
                                 *****************
                                 * O   R   C   A *
                                 *****************

                                            #,                                       
                                            ###                                      
                                            ####                                     
                                            #####                                    
                                            ######                                   
                                           ########,                                 
                                     ,,################,,,,,                         
                               ,,#################################,,                 
                          ,,##########################################,,             
                       ,#########################################, ''#####,          
                    ,#############################################,,   '####,        
                  ,##################################################,,,,####,       
                ,###########''''           ''''###############################       
              ,#####''   ,,,,##########,,,,          '''####'''          '####       
            ,##' ,,,,###########################,,,                        '##       
           ' ,,###''''                  '''############,,,                           
         ,,##''                                '''############,,,,        ,,,,,,###''
      ,#''                                            '''#######################'''  
     '                                                          ''''####''''         
             ,#######,   #######,   ,#######,      ##                                
            ,#'     '#,  ##    ##  ,#'     '#,    #''#        ,####,    ,#,          
            ##       ##  ##   ,#'  ##            #'  '#       #'       ,# #          
            ##       ##  #######   ##           ,######,      #####,      #          
            '#,     ,#'  ##    ##  '#,     ,#' ,#      #,     #,   #      #          
             '#######'   ##     ##  '#######'  #'      '#     '####' #    #          



                #########################################################
                #                        -***-                          #
                #          Department of theory and spectroscopy        #
                #                                                       #
                #                      Frank Neese                      #
                #                                                       #
                #     Directorship, Architecture, Infrastructure        #
                #                    SHARK, DRIVERS                     #
                #        Core code/Algorithms in most modules           #
                #                                                       #
                #        Max Planck Institute fuer Kohlenforschung      #
                #                Kaiser Wilhelm Platz 1                 #
                #                 D-45470 Muelheim/Ruhr                 #
                #                      Germany                          #
                #                                                       #
                #                  All rights reserved                  #
                #                        -***-                          #
                #########################################################


                         Program Version 6.1.0  -  RELEASE   -
                                (GIT: $679e74b$)
                          ($2025-06-10 18:02:51 +0200$)


 With contributions from (in alphabetic order):
[Max-Planck-Institut fuer Kohlenforschung]                               
  Daniel Aravena         : Magnetic Suceptibility                        
  Michael Atanasov       : Ab Initio Ligand Field Theory (pilot matlab implementation)
  Alexander A. Auer      : GIAO ZORA, VPT2 properties, NMR spectrum      
  Ute Becker             : All parallelization in ORCA, NUMFREQ, NUMCALC 
  Giovanni Bistoni       : ED, misc. LED, open-shell LED, HFLD           
  Dmytro Bykov           : pre 5.0 version of the SCF Hessian            
  Marcos Casanova-Páez   : Triplet and SCS-CIS(D). UHF-(DLPNO)-IP/EA/STEOM-CCSD. UHF-CVS-IP/STEOM-CCSD   
  Vijay G. Chilkuri      : MRCI spin determinant printing, contributions to CSF-ICE 
  Pauline Colinet        : FMM embedding                                 
  Dipayan Datta          : RHF DLPNO-CCSD density                        
  Achintya Kumar Dutta   : EOM-CC, STEOM-CC                              
  Nicolas Foglia         : Exact transition moments, OPA infrastructure, MCD improvements    
  Dmitry Ganyushin       : Spin-Orbit,Spin-Spin,Magnetic field MRCI      
  Miquel Garcia-Rates    : C-PCM and meta-GGA Hessian, CCSD/C-PCM, Gaussian charge scheme 
  Tiago L. C. Gouveia    : GS-ROHF, GS-ROCIS                             
  Yang Guo               : DLPNO-NEVPT2, F12-NEVPT2, CIM, IAO-localization        
  Andreas Hansen         : Spin unrestricted coupled pair/coupled cluster methods 
  Ingolf Harden          : AUTO-CI MPn and infrastructure                
  Benjamin Helmich-Paris : MC-RPA, TRAH-(SCF,CASSCF), AVAS, COSX integrals, SCF dyn. polar., MC-PDFT, srDFT 
  Lee Huntington         : MR-EOM, pCC                                   
  Robert Izsak           : Overlap fitted RIJCOSX, COSX-SCS-MP3, EOM     
  Riya Kayal             : Wick's Theorem for AUTO-CI, AUTO-CI UHF-CCSDT 
  Emily Kempfer          : AUTO-CI RHF CISDT and CCSDT, approximate NEVPT4
  Christian Kollmar      : KDIIS, OOCD, Brueckner-CCSD(T), CCSD density, CASPT2, CASPT2-K, improved NEVPT2 
  Axel Koslowski         : Symmetry handling                             
  Simone Kossmann        : meta-GGA functionals, TD-DFT gradient, OOMP2, (MP2 Hessian; deprecated post 5.0) 
  Lucas Lang             : DCDCAS, Hyperfine gauge corrections, ICE-SOC+SSC
  Marvin Lechner         : AUTO-CI (C++ implementation), FIC-MRCC        
  Spencer Leger          : CASSCF response                               
  Dagmar Lenk            : GEPOL surface, SMD, ORCA-2-JSON               
  Dimitrios Liakos       : Extrapolation schemes; Compound Job, Property file
  Dimitrios Manganas     : Further ROCIS development; embedding schemes. LFT, Crystal Embedding 
  Dimitrios Pantazis     : SARC Basis sets                               
  Anastasios Papadopoulos: AUTO-CI, single reference methods and gradients 
  Taras Petrenko         : pre 6.0 DFT Hessian and TD-DFT gradient,  ECA, NRVS 
  Petra Pikulova         : Analytic Raman intensities                    
  Peter Pinski           : DLPNO-MP2, DLPNO-MP2 Gradient                 
  Shashank Vittal Rao    : ES-AILFT, MagRelax                            
  Christoph Reimann      : Effective Core Potentials                     
  Marius Retegan         : Local ZFS, SOC                                
  Christoph Riplinger    : Optimizer, TS searches, QM/MM, DLPNO-CCSD(T), (RO)-DLPNO pert. Triples 
  Michael Roemelt        : Original ROCIS implementation, recursive CI coupling coefficients
  Masaaki Saitow         : Open-shell DLPNO-CCSD energy and density      
  Barbara Sandhoefer     : DKH picture change effects                    
  Yorick L. A. Schmerwitz: GMF and freeze-and-release deltaSCF, NEB S-IDPP initial path                    
  Kantharuban Sivalingam : CASSCF convergence/infrastructure, NEVPT2, NEVPT3, NEVPT4(SD), FIC-MRCI and CEPA variants
  Bernardo de Souza      : ESD, SOC TD-DFT                               
  Georgi L. Stoychev     : AutoAux, RI-MP2 NMR, DLPNO-MP2 response, X2C  
  Van Anh Tran           : RI-MP2 g-tensors                              
  Willem Van den Heuvel  : Paramagnetic NMR                              
  Zikuan Wang            : NOTCH, Electric field optimization            
  Frank Wennmohs         : Technical directorship and infrastructure     
  Hang Xu                : AUTO-CI-Response properties                   
                                                                         
[FACCTs GmbH]                                                            
  Markus Bursch, Nicolas Foglia, Miquel Garcia-Rates, Ingolf Harden, Hagen Neugebauer, Anastasios Papadopoulos, 
  Christoph Riplinger, Bernardo de Souza, Georgi L. Stoychev                                                    
                                                                 
  APM, various basis sets, CI-OPT, improved COSX, DLPNO-Multilevel,           
  DOCKER, DRACO, updates on ESD, Fragmentator, GOAT, IRC, LR-CPCM, L-BFGS, MBIS, meta-GGA TD-DFT gradient, ML-optimized integration grids, 
  MM, NACMEs, nearIR, NEB, NEB-TS, NL-DFT gradient (VV10), 2- and 3-layer-ONIOM, interface openCOSMO-RS, QMMM,   
  Crystal-QMMM, RESP, rigid body optimization, SF, symmetry and pop. for TD-DFT, various functionals, SOLVATOR                                   
                                                                         
[Other institutions]                                                     
  V. Asgeirsson          : NEB                                           
  Christoph Bannwarth    : sTDA-DFT, sTD-DFT, PBEh-3c, B97-3c, D3        
  Giovanni Bistoni       : ETS/NOCV, ADLD/ADEX, COVALED                  
  Martin Brehm           : Molecular dynamics                            
  Ronald Cardenas        : ETS/NOCV                                      
  Martina Colucci        : COVALED                                       
  Sebastian Ehlert       : rSCAN, r2SCAN, r2SCAN-3c, D4, dhf basis sets  
  Marvin Friede          : D4 for Fr, Ra, Ac-Lr                          
  Lars Goerigk           : TD-DFT with DH, B97 family of functionals     
  Stefan Grimme          : VdW corrections, initial TS optimization, DFT functionals, gCP, sTDA/sTD-DF 
  Waldemar Hujo          : DFT-NL                                        
  H. Jonsson             : NEB                                           
  Holger Kruse           : gCP                                           
  Marcel Mueller         : wB97X-3c, vDZP basis set                      
  Hagen Neugebauer       : wr2SCAN, Native XTB                           
  Gianluca Regni         : ADLD/ADEX                                     
  Tobias Risthaus        : pre 6.0 range-separated hybrid DFT and stability analysis
  Lukas Wittmann         : regularized MP2, r2SCAN double-hybrids, wr2SCAN        
                                                                         
We gratefully acknowledge several colleagues who have allowed us to      
interface, adapt or use parts of their codes:                            
  Ed Valeev, F. Pavosevic, A. Kumar             : LibInt (2-el integral package), F12 methods 
  Garnet Chan, S. Sharma, J. Yang, R. Olivares  : DMRG                   
  Ulf Ekstrom                                   : XCFun DFT Library      
  Mihaly Kallay                                 : mrcc  (arbitrary order and MRCC methods)
  Frank Weinhold                                : gennbo (NPA and NBO analysis)           
  Simon Mueller                                 : openCOSMO-RS                            
  Christopher J. Cramer and Donald G. Truhlar   : smd solvation model                     
  S Lehtola, MJT Oliveira, MAL Marques          : LibXC Library                           
  Liviu Ungur et al                             : ANISO software                          


 Your calculation uses the libint2 library for the computation of 2-el integrals
 For citations please refer to: http://libint.valeyev.net

 Your ORCA version has been built with support for libXC version: 7.0.0
 For citations please refer to: https://libxc.gitlab.io

 This ORCA versions uses:
   CBLAS   interface :  Fast vector & matrix operations
   LAPACKE interface :  Fast linear algebra routines
   SCALAPACK package :  Parallel linear algebra routines
   Shared memory     :  Shared parallel matrices
   BLAS/LAPACK       :  OpenBLAS 0.3.29  USE64BITINT DYNAMIC_ARCH NO_AFFINITY SkylakeX SINGLE_THREADED
        Core in use  :  SkylakeX
   Copyright (c) 2011-2014, The OpenBLAS Project


  ***********************************
  * Starting time: Thu Mar 12 13:24:07 2026
  * Host name:     midway3-login4.rcc.local
  * Process ID:    3062281
  * Working dir.:  /home/rzhu16/orca_TS_search/sn2_cl_i/DFT_test
  ***********************************

Your calculation utilizes the geometrical counterpoise correction gCP
Please cite in your paper:
H.Kruse, S. Grimme J.Chem.Phys., 136, (2012), 154101 
   

Your calculation utilizes the atom-pairwise dispersion correction
based on EEQ partial charges (D4)


================================================================================

cite the ECPs for I  [Def2-ECP] as follows:
Ce-Yb(ecp-28): M. Dolg, H. Stoll, H.Preuss, J. Chem. Phys., 1989, 90, 1730-1734.
Y-Cd(ecp-28), Hf-Hg(ecp-46): D. Andrae,U. Haeussermann, M. Dolg, H. Stoll, H. Preuss, Theor. Chim. Acta, 1990, 77, 123-141.
In-Sb(ecp-28), Tl-Bi(ecp-46): B. Metz, H. Stoll, M. Dolg, J. Chem. Phys., 2000, 113, 2563-2569.
Te-Xe(ecp-28), Po-Rn(ecp-46): K. A. Peterson, D. Figgen, E. Goll, H. Stoll, M. Dolg, J. Chem. Phys., 2003, 119, 11113-11123.
Rb(ecp-28), Cs(ecp-46): T. Leininger, A. Nicklass, W. Kuechle, H. Stoll, M. Dolg, A. Bergner, Chem. Phys. Lett., 1996, 255, 274-280.
Sr(ecp-28), Ba(ecp-46): M. Kaupp, P. V. Schleyer, H. Stoll and H. Preuss, J. Chem. Phys., 1991, 94, 1360-1366.
La(ecp-46): M. Dolg, H. Stoll, A. Savin, H. Preuss, Theor. Chim. Acta, 1989, 75, 173-194.
Lu(ecp-28): X. Cao, M. Dolg, J. Chem. Phys., 2001, 115, 7348-7355.
Fr-Ra(ecp-78) K. Eichkorn, F. Weigend, O. Treutler, R. Ahlrichs, Theor. Chem. Acc. 1997, 97, 119.
Ac-Lr(ecp-60) K. Eichkorn, F. Weigend, O. Treutler, R. Ahlrichs, Theor. Chem. Acc. 1997, 97, 119.

ECP parameters for I  [Def2-ECP] have been obtained from:
TURBOMOLE (7.0.2)

----- Orbital basis set information -----
Your calculation utilizes the basis: def2-mTZVPP
   Stefan Grimme, Andreas Hansen, Sebastian Ehlert, and Jan-Michael Mewes 
   J. Chem. Phys. 154, 064103 (2021). DOI: 10.1063/5.0040021

----- AuxJ basis set information -----
Your calculation utilizes the basis: def2-mTZVPP/J
   Stefan Grimme, Andreas Hansen, Sebastian Ehlert, and Jan-Michael Mewes 
   J. Chem. Phys. 154, 000000 (2021). DOI: 10.1063/5.0040021

================================================================================
                                        WARNINGS
                       Please study these warnings very carefully!
================================================================================



WARNING: SCAN, rSCAN, or r2SCAN functional requested.
  ===> : libXC variant has now been activated.



WARNING: Geometry Optimization
  ===> : Switching off AutoStart
         For restart on a previous wavefunction, please use MOREAD

================================================================================
                                       INPUT FILE
================================================================================
NAME = product_optfreq.inp
|  1> ! r2SCAN-3c Opt Freq PAL8 TightSCF
|  2> 
|  3> %pal
|  4>    nprocs 8
|  5> end
|  6> 
|  7> %scf
|  8>    MaxIter 150
|  9> end
| 10> 
| 11> * xyz -1 1
| 12>   C       0.000140      0.000136     -0.275237
| 13>   H       0.000063      1.026182      0.055394
| 14>   H       0.888726     -0.513008      0.055406
| 15>   H      -0.888660     -0.513045      0.055433
| 16>   Cl     -0.000009     -0.000010      2.496538
| 17>   I       0.000053      0.000051     -2.448380
| 18> *
| 19> 
| 20>                          ****END OF INPUT****
================================================================================

                       *****************************
                       * Geometry Optimization Run *
                       *****************************

Geometry optimization settings:
Update method            Update   .... BFGS
Choice of coordinates    CoordSys .... (2022) Redundant Internals
Initial Hessian          InHess   .... Almloef's Model
Max. no of cycles        MaxIter  .... 50

Convergence Tolerances:
Energy Change            TolE     ....  5.0000e-06 Eh
Max. Gradient            TolMAXG  ....  3.0000e-04 Eh/bohr
RMS Gradient             TolRMSG  ....  1.0000e-04 Eh/bohr
Max. Displacement        TolMAXD  ....  4.0000e-03 bohr
RMS Displacement         TolRMSD  ....  2.0000e-03 bohr
Strict Convergence                .... False

------------------------------------------------------------------------------
                        ORCA OPTIMIZATION COORDINATE SETUP
------------------------------------------------------------------------------

The optimization will be done in redundant internal coordinates (2022)
Making redundant internal coordinates   ...  (2022 redundants) done
Evaluating the initial hessian          ...  (Almloef) done
Evaluating the coordinates              ...  done
Calculating the B-matrix                .... done
Calculating the G-matrix                .... done
The number of degrees of freedom        ....   17

    -----------------------------------------------------------------
                    Redundant Internal Coordinates


    -----------------------------------------------------------------
         Definition                    Initial Value    Approx d2E/dq
    -----------------------------------------------------------------
      1. B(H   1,C   0)                  1.0780         0.376327   
      2. B(H   2,C   0)                  1.0781         0.376238   
      3. B(H   3,C   0)                  1.0783         0.375959   
      4. B(Cl  4,H   2)                  2.6480         0.010000   
      5. B(Cl  4,H   3)                  2.6480         0.010000   
      6. B(Cl  4,H   1)                  2.6481         0.010000   
      7. B(Cl  4,C   0)                  2.7718         0.010000   
      8. B(I   5,C   0)                  2.1731         0.118244   
      9. A(H   1,C   0,H   3)          111.0312         0.294861   
     10. A(H   2,C   0,H   3)          111.0276         0.294850   
     11. A(H   1,C   0,I   5)          107.8632         0.287759   
     12. A(H   2,C   0,I   5)          107.8613         0.287748   
     13. A(H   3,C   0,I   5)          107.8554         0.287715   
     14. A(H   1,C   0,Cl  4)           72.1421         0.196492   
     15. A(H   2,C   0,Cl  4)           72.1407         0.196486   
     16. A(H   3,C   0,Cl  4)           72.1373         0.196468   
     17. A(H   1,C   0,H   2)          111.0410         0.294896   
    -----------------------------------------------------------------

Number of atoms                         .... 6
Number of degrees of freedom            .... 17


         *************************************************************
         *                GEOMETRY OPTIMIZATION CYCLE   1            *
         *************************************************************
---------------------------------
CARTESIAN COORDINATES (ANGSTROEM)
---------------------------------
  C      0.000140    0.000136   -0.275237
  H      0.000063    1.026182    0.055394
  H      0.888726   -0.513008    0.055406
  H     -0.888660   -0.513045    0.055433
  Cl    -0.000009   -0.000010    2.496538
  I      0.000053    0.000051   -2.448380

----------------------------
CARTESIAN COORDINATES (A.U.)
----------------------------
  NO LB      ZA    FRAG     MASS         X           Y           Z
   0 C     6.0000    0    12.011    0.000265    0.000257   -0.520123
   1 H     1.0000    0     1.008    0.000119    1.939203    0.104679
   2 H     1.0000    0     1.008    1.679449   -0.969445    0.104702
   3 H     1.0000    0     1.008   -1.679324   -0.969515    0.104753
   4 Cl   17.0000    0    35.453   -0.000017   -0.000019    4.717773
   5 I    25.0000*   0   126.900    0.000100    0.000096   -4.626768
* core charge reduced due to ECP

--------------------------------
INTERNAL COORDINATES (ANGSTROEM)
--------------------------------
 C      0   0   0     0.000000000000     0.00000000     0.00000000
 H      1   0   0     1.078001511226     0.00000000     0.00000000
 H      1   2   0     1.078066156403   111.04104558     0.00000000
 H      1   2   3     1.078268439518   111.03121658   124.04178510
 Cl     4   1   2     2.647999080825    85.05920165   297.97544737
 I      1   2   3     2.173143003404   107.86315331   242.01449845

---------------------------
INTERNAL COORDINATES (A.U.)
---------------------------
 C      0   0   0     0.000000000000     0.00000000     0.00000000
 H      1   0   0     2.037127628171     0.00000000     0.00000000
 H      1   2   0     2.037249789850   111.04104558     0.00000000
 H      1   2   3     2.037632049540   111.03121658   124.04178510
 Cl     4   1   2     5.003993065635    85.05920165   297.97544737
 I      1   2   3     4.106645126280   107.86315331   242.01449845

---------------------
BASIS SET INFORMATION
---------------------
There are 4 groups of distinct atoms

 Group   1 Type C   : 11s6p1d contracted to 5s3p1d pattern {62111/411/1}
 Group   2 Type H   : 4s1p contracted to 2s1p pattern {31/1}
 Group   3 Type Cl  : 14s9p2d contracted to 5s4p2d pattern {73211/6111/11}
 Group   4 Type I   : 11s10p8d contracted to 6s5p3d pattern {521111/34111/611}

Atom   0C    basis set group =>   1
Atom   1H    basis set group =>   2
Atom   2H    basis set group =>   2
Atom   3H    basis set group =>   2
Atom   4Cl   basis set group =>   3
Atom   5I    basis set group =>   4
---------------------------------
AUXILIARY/J BASIS SET INFORMATION
---------------------------------
There are 4 groups of distinct atoms

 Group   1 Type C   : 8s3p3d contracted to 6s3p3d pattern {311111/111/111}
 Group   2 Type H   : 5s2p1d contracted to 3s1p1d pattern {311/2/1}
 Group   3 Type Cl  : 14s5p5d2f contracted to 8s4p3d1f pattern {71111111/2111/311/2}
 Group   4 Type I   : 11s5p5d3f1g contracted to 8s4p3d2f1g pattern {41111111/2111/311/21/1}

Atom   0C    basis set group =>   1
Atom   1H    basis set group =>   2
Atom   2H    basis set group =>   2
Atom   3H    basis set group =>   2
Atom   4Cl   basis set group =>   3
Atom   5I    basis set group =>   4
-------------------------
ECP PARAMETER INFORMATION
-------------------------

 Group 1, Type I  ECP Def2-ECP (replacing 28 core electrons, lmax=3)

Atom   5I    ECP group =>   1



           ************************************************************
           *        Program running with 8 parallel MPI-processes     *
           *              working on a common directory               *
           ************************************************************
------------------------------------------------------------------------------
                             ORCA STARTUP CALCULATIONS
                           -- RI-GTO INTEGRALS CHOSEN --
------------------------------------------------------------------------------
------------------------------------------------------------------------------
                   ___                                                        
                  /   \      - P O W E R E D   B Y -                         
                 /     \                                                     
                 |  |  |   _    _      __       _____    __    __             
                 |  |  |  | |  | |    /  \     |  _  \  |  |  /  |          
                  \  \/   | |  | |   /    \    | | | |  |  | /  /          
                 / \  \   | |__| |  /  /\  \   | |_| |  |  |/  /          
                |  |  |   |  __  | /  /__\  \  |    /   |      \           
                |  |  |   | |  | | |   __   |  |    \   |  |\   \          
                \     /   | |  | | |  |  |  |  | |\  \  |  | \   \       
                 \___/    |_|  |_| |__|  |__|  |_| \__\ |__|  \__/        
                                                                              
                      - O R C A' S   B I G   F R I E N D -                    
                                      &                                       
                       - I N T E G R A L  F E E D E R -                       
                                                                              
 v1 FN, 2020, v2 2021, v3 2022-2024                                           
------------------------------------------------------------------------------


----------------------
SHARK INTEGRAL PACKAGE
----------------------

Number of atoms                             ...      6
Number of basis functions                   ...     97
Number of shells                            ...     43
Maximum angular momentum                    ...      2
Integral batch strategy                     ... SHARK/LIBINT Hybrid
RI-J (if used) integral strategy            ... SPLIT-RIJ (Revised 2003 algorithm where possible)
Printlevel                                  ...      1
Contraction scheme used                     ... SEGMENTED contraction
Prescreening option                         ... SCHWARTZ
   Thresh                                   ... 2.500e-11
   Tcut                                     ... 2.500e-12
   Tpresel                                  ... 2.500e-12 
Coulomb Range Separation                    ... NOT USED
Exchange Range Separation                   ... NOT USED
Multipole approximations                    ... NOT USED
Finite Nucleus Model                        ... NOT USED
CABS basis                                  ... NOT available
Auxiliary Coulomb fitting basis             ... AVAILABLE
   # of basis functions in Aux-J            ...    163
   # of shells in Aux-J                     ...     61
   Maximum angular momentum in Aux-J        ...      4
Auxiliary J/K fitting basis                 ... NOT available
Auxiliary Correlation fitting basis         ... NOT available
Auxiliary 'external' fitting basis          ... NOT available

Checking pre-screening integrals            ... done (  0.0 sec) Dimension = 43
   => SHARK Basis and OBASIS are compatible. Storing Pre-screening
Shell pair information
Shell pair cut-off parameter TPreSel        ...   2.5e-12
Total number of shell pairs                 ...       946
Shell pairs after pre-screening             ...       868
Total number of primitive shell pairs       ...      3934
Primitive shell pairs kept                  ...      2760
          la=0 lb=0:    224 shell pairs
          la=1 lb=0:    304 shell pairs
          la=1 lb=1:    114 shell pairs
          la=2 lb=0:    121 shell pairs
          la=2 lb=1:     85 shell pairs
          la=2 lb=2:     20 shell pairs

Checking whether 4 symmetric matrices of dimension 97 fit in memory
:Max Core in MB      =   4096.00
 MB in use           =      4.43
 MB left             =   4091.57
 MB needed           =      0.15
 Data fit in memory  = YES
Calculating RI/J V-Matrix + Cholesky decomp.... done (  0.0 sec)
Calculating Nuclear repulsion               ... done (  0.0 sec) ENN=    136.067958917444 Eh

Diagonalization of the overlap matrix:
Smallest eigenvalue                        ... 3.938e-03
Time for diagonalization                   ...    0.001 sec
Threshold for overlap eigenvalues          ... 1.000e-07
Number of eigenvalues below threshold      ... 0
Time for construction of square roots      ...    0.001 sec
Total time needed                          ...    0.003 sec

-------------------
DFT GRID GENERATION
-------------------

General Integration Accuracy     IntAcc      ... 4.388
Radial Grid Type                 RadialGrid  ... OptM3 with GC (2021)
Angular Grid (max. ang.)         AngularGrid ... 4 (Lebedev-302)
Angular grid pruning method      GridPruning ... 4 (adaptive)
Weight generation scheme         WeightScheme... mBecke (2022)
Basis function cutoff            BFCut       ... 1.0000e-11
Integration weight cutoff        WCut        ... 1.0000e-14
Partially contracted basis set               ... off
Rotationally invariant grid construction     ... off
Angular grids for H and He will be reduced by one unit

Total number of grid points                  ...    34824
Total number of batches                      ...      547
Average number of points per batch           ...       63
Average number of grid points per atom       ...     5804
Grids setup in   1.2 sec
Initializing property integral containers    ... done (  0.0 sec)

SHARK setup successfully completed in   1.5 seconds

Maximum memory used throughout the entire STARTUP-calculation: 13.0 MB


           ************************************************************
           *        Program running with 8 parallel MPI-processes     *
           *              working on a common directory               *
           ************************************************************
-------------------------------------------------------------------------------
                                 ORCA GUESS
                   Start orbitals & Density for SCF / CASSCF
-------------------------------------------------------------------------------

------------
SCF SETTINGS
------------
Hamiltonian:
 Density Functional     Method          .... DFT(GTOs)
  Functional kind                       .... Exchange
  Functional name                       .... Re-regularized SCAN exchange by Furness et al
  Functional family                     .... MGGA
  Functional refs                              
    [ 0] J. W. Furness, A. D. Kaplan, J. Ning, J. P. Perdew, and J. Sun.,  J. Phys. Chem. Lett. 11, 8208-8215 (2020), doi: 10.1021/acs.jpclett.0c02405
    [ 1] J. W. Furness, A. D. Kaplan, J. Ning, J. P. Perdew, and J. Sun.,  J. Phys. Chem. Lett. 11, 9248-9248 (2020), doi: 10.1021/acs.jpclett.0c03077
  Functional external parameters        .... 6
    Parameter  0 _c1        =  6.670000e-01 : c1 parameter        
    Parameter  1 _c2        =  8.000000e-01 : c2 parameter        
    Parameter  2 _d         =  1.240000e+00 : d parameter         
    Parameter  3 _k1        =  6.500000e-02 : k1 parameter        
    Parameter  4 _eta       =  1.000000e-03 : eta parameter       
    Parameter  5 _dp2       =  3.610000e-01 : dp2 parameter       
  Functional kind                       .... Correlation
  Functional name                       .... Re-regularized SCAN correlation by Furness et al
  Functional family                     .... MGGA
  Functional refs                              
    [ 0] J. W. Furness, A. D. Kaplan, J. Ning, J. P. Perdew, and J. Sun.,  J. Phys. Chem. Lett. 11, 8208-8215 (2020), doi: 10.1021/acs.jpclett.0c02405
    [ 1] J. W. Furness, A. D. Kaplan, J. Ning, J. P. Perdew, and J. Sun.,  J. Phys. Chem. Lett. 11, 9248-9248 (2020), doi: 10.1021/acs.jpclett.0c03077
  Functional external parameters        .... 1
    Parameter  0 _eta       =  1.000000e-03 : Regularization parameter
 Gradients option       PostSCFGGA      .... off
 RI-approximation to the Coulomb term is turned on
   Number of AuxJ basis functions       .... 163


General Settings:
 Integral files         IntName         .... product_optfreq
 Hartree-Fock type      HFTyp           .... RHF
 Total Charge           Charge          ....   -1
 Multiplicity           Mult            ....    1
 Number of Electrons    NEL             ....   52
 Basis Dimension        Dim             ....   97
 Nuclear Repulsion      ENuc            ....    136.0679589174 Eh

Convergence Acceleration:
 AO-DIIS                CNVDIIS         .... on
   Start iteration      DIISMaxIt       ....    12
   Startup error        DIISStart       ....  0.200000
   # of expansion vecs  DIISMaxEq       ....     5
   Bias factor          DIISBfac        ....   1.050
   Max. coefficient     DIISMaxC        ....  10.000
 MO-DIIS                CNVKDIIS        .... off
 Trust-Rad. Augm. Hess. CNVTRAH         .... auto
   Auto Start mean grad. ratio tolernc. ....  1.125000
   Auto Start start iteration           ....    50
   Auto Start num. interpolation iter.  ....    10
   Max. Number of Micro iterations      ....    24
   Max. Number of Macro iterations      .... Maxiter - #DIIS iter
   Number of Davidson start vectors     ....     2
   Converg. threshold    (grad. norm)   ....   1.000e-05
   Grad. Scal. Fac. for Micro threshold ....   0.100
   Minimum threshold for Micro iter.    ....   1.000e-02
   NR start threshold (gradient norm)   ....   1.000e-04
   Initial trust radius                 ....   0.400
   Minimum AH scaling param. (alpha)    ....   1.000
   Maximum AH scaling param. (alpha)    .... 1000.000
   Quad. conv. algorithm                .... NR
   White noise on init. David. guess    .... on
   Maximum white noise                  ....   0.010
   Pseudo random numbers                .... off
   Inactive MOs                         .... canonical
   Orbital update algorithm             .... Taylor
   Preconditioner                       .... Diag
   Full preconditioner red. dimension   ....   250
   COSX micro iterations for RIJONX calc.... off
 SOSCF                 CNVSOSCF           .... on
   Start iteration     SOSCFMaxIt         ....   150
   Startup grad/error  SOSCFStart         ....  0.003300
   Hessian update      SOSCFHessUp        .... L-BFGS
   Autom. constraints  SOSCFAutoConstrain .... off
 Level Shifting         CNVShift        .... on
   Level shift para.    LevelShift      ....    0.2500
   Turn off err/grad.   ShiftErr        ....    0.0010
 Zerner damping         CNVZerner       .... off
 Static damping         CNVDamp         .... on
   Fraction old density DampFac         ....    0.7000
   Max. Damping (<1)    DampMax         ....    0.9800
   Min. Damping (>=0)   DampMin         ....    0.0000
   Turn off err/grad.   DampErr         ....    0.1000

SCF Procedure:
 Maximum # iterations   MaxIter         ....   150
 SCF integral mode      SCFMode         .... Direct
   Integral package                     .... SHARK and LIBINT hybrid scheme
 Reset frequency        DirectResetFreq ....    20
 Integral Threshold     Thresh          ....  2.500e-11 Eh
 Primitive CutOff       TCut            ....  2.500e-12 Eh

Convergence Tolerance:
 Convergence Check Mode ConvCheckMode   .... Total+1el-Energy
 Convergence forced     ConvForced      .... 0
 Energy Change          TolE            ....  1.000e-08 Eh
 1-El. energy change                    ....  1.000e-05 Eh
 Orbital Gradient       TolG            ....  1.000e-05
 Orbital Rotation angle TolX            ....  1.000e-05
 DIIS Error             TolErr          ....  5.000e-07

------------------------------
INITIAL GUESS: MODEL POTENTIAL
------------------------------
Loading Hartree-Fock densities                     ... done
Atomic calculation to generate a density for atom 5 (I  with ECP)
  Multiplicity assumed   :    2
  Atomic configuration   : 1s2 2s2 2p6 3s2 3p6 4s2 3d10 4p6 5s2 4d10 5p5 
  Number of open shells  : 1
  Command: /software/orca-6.1.0-el8-x86_64/bin/orca product_optfreq_atom53.inp "" > product_optfreq_atom53.out
Returned from the atomic calculation with res=0
Calculating cut-offs                               ... done
Initializing the effective Hamiltonian             ... done
Setting up the integral package (SHARK)            ... done
Starting the Coulomb interaction                   ... done (   0.0 sec)
Making the grid                                    ... done (   0.2 sec)
Mapping shells                                     ... done
Starting the XC term evaluation                    ... done (   0.1 sec)
  promolecular density results
     # of electrons  =     78.997626669
     EX              =   -206.452417440
     EC              =     -3.797476936
     EX+EC           =   -210.249894376
Transforming the Hamiltonian                       ... done (   0.0 sec)
Diagonalizing the Hamiltonian                      ... done (   0.0 sec)
Back transforming the eigenvectors                 ... done (   0.0 sec)
Now organizing SCF variables                       ... done
                      ------------------
                      INITIAL GUESS DONE (   5.9 sec)
                      ------------------
             **** ENERGY FILE WAS UPDATED (product_optfreq.en.tmp) ****
Finished Guess after   6.4 sec
Maximum memory used throughout the entire GUESS-calculation: 7.5 MB


           ************************************************************
           *        Program running with 8 parallel MPI-processes     *
           *              working on a common directory               *
           ************************************************************

-------------------------------------------------------------------------------------------
                                      ORCA LEAN-SCF
                              memory conserving SCF solver
-------------------------------------------------------------------------------------------

----------------------------------------D-I-I-S--------------------------------------------
Iteration    Energy (Eh)           Delta-E    RMSDP     MaxDP     DIISErr   Damp  Time(sec)
-------------------------------------------------------------------------------------------
               ***  Starting incremental Fock matrix formation  ***
    1    -797.7169881281660082     0.00e+00  1.33e-02  1.02e-01  6.02e-01  0.700   0.3
Warning: op=0 Small HOMO/LUMO gap (   0.068) - skipping pre-diagonalization
         Will do a full diagonalization
    2    -797.7947235410491658    -7.77e-02  1.13e-02  6.13e-02  4.09e-01  0.700   0.5
    3    -797.8293377905165471    -3.46e-02  6.45e-03  4.03e-02  2.78e-01  0.700   0.6
                               ***Turning on AO-DIIS***
    4    -797.8477241199517493    -1.84e-02  2.93e-03  2.27e-02  1.90e-01  0.700   0.3
    5    -797.8608958698017659    -1.32e-02  1.62e-03  1.05e-02  1.33e-01  0.700   0.2
    6    -797.8701995590869274    -9.30e-03  1.01e-03  7.10e-03  9.39e-02  0.700   0.2
    7    -797.8769110723833364    -6.71e-03  2.67e-03  1.70e-02  6.62e-02  0.000   0.3
    8    -797.8926261500583905    -1.57e-02  5.95e-04  3.68e-03  5.01e-03  0.000   0.5
                              *** Initializing SOSCF ***
---------------------------------------S-O-S-C-F--------------------------------------
Iteration    Energy (Eh)           Delta-E    RMSDP     MaxDP     MaxGrad    Time(sec)
--------------------------------------------------------------------------------------
    9    -797.8926860255783140    -5.99e-05  1.97e-04  2.24e-03  1.60e-03     0.3
               *** Restarting incremental Fock matrix formation ***
   10    -797.8926927171453372    -6.69e-06  1.42e-04  1.31e-03  2.49e-04     0.2
   11    -797.8926915532575777     1.16e-06  9.59e-05  5.90e-04  4.87e-04     0.3
   12    -797.8926935137484406    -1.96e-06  2.93e-05  2.68e-04  4.67e-05     0.4
   13    -797.8926935054525984     8.30e-09  1.62e-05  1.42e-04  5.13e-05     0.4
                 **** Energy Check signals convergence ****

               *****************************************************
               *                     SUCCESS                       *
               *           SCF CONVERGED AFTER  13 CYCLES          *
               *****************************************************

             **** ENERGY FILE WAS UPDATED (product_optfreq.en.tmp) ****

----------------
TOTAL SCF ENERGY
----------------

Total Energy       :       -797.89269354301700 Eh          -21711.76400 eV

Components:
Nuclear Repulsion  :        136.06795891744369 Eh            3702.59740 eV
Electronic Energy  :       -933.96065246046066 Eh          -25414.36139 eV
One Electron Energy:      -1487.61337788267156 Eh          -40480.01798 eV
Two Electron Energy:        553.65272542221089 Eh           15065.65658 eV

Virial components:
Potential Energy   :      -1408.97993022336573 Eh          -38340.29308 eV
Kinetic Energy     :        611.08723668034872 Eh           16628.52909 eV
Virial Ratio       :          2.30569359929274

DFT components:
N(Alpha)           :       26.000007558056 electrons
N(Beta)            :       26.000007558056 electrons
N(Total)           :       52.000015116112 electrons
E(X)               :      -55.277957420006 Eh       
E(C)               :       -2.010940019011 Eh       
E(XC)              :      -57.288897439017 Eh       

---------------
SCF CONVERGENCE
---------------

  Last Energy change         ...   -8.2958e-09  Tolerance :   1.0000e-08
  Last MAX-Density change    ...    1.4224e-04  Tolerance :   1.0000e-07
  Last RMS-Density change    ...    1.6249e-05  Tolerance :   5.0000e-09
  Last DIIS Error            ...    1.5956e-03  Tolerance :   5.0000e-07
  Last Orbital Gradient      ...    5.1274e-05  Tolerance :   1.0000e-05
  Last Orbital Rotation      ...    7.0876e-05  Tolerance :   1.0000e-05


----------------
ORBITAL ENERGIES
----------------

  NO   OCC          E(Eh)            E(eV) 
   0   2.0000    -100.912342     -2745.9644 
   1   2.0000      -9.917214      -269.8611 
   2   2.0000      -9.068754      -246.7733 
   3   2.0000      -6.809177      -185.2871 
   4   2.0000      -6.807801      -185.2497 
   5   2.0000      -6.807801      -185.2497 
   6   2.0000      -6.666652      -181.4088 
   7   2.0000      -4.682030      -127.4045 
   8   2.0000      -4.670565      -127.0925 
   9   2.0000      -4.670565      -127.0925 
  10   2.0000      -1.718047       -46.7504 
  11   2.0000      -1.715340       -46.6768 
  12   2.0000      -1.715340       -46.6768 
  13   2.0000      -1.705505       -46.4091 
  14   2.0000      -1.705504       -46.4091 
  15   2.0000      -0.566115       -15.4048 
  16   2.0000      -0.476518       -12.9667 
  17   2.0000      -0.452261       -12.3066 
  18   2.0000      -0.247820        -6.7435 
  19   2.0000      -0.247765        -6.7420 
  20   2.0000      -0.189202        -5.1485 
  21   2.0000      -0.100937        -2.7466 
  22   2.0000      -0.100932        -2.7465 
  23   2.0000      -0.025817        -0.7025 
  24   2.0000      -0.024355        -0.6627 
  25   2.0000      -0.024354        -0.6627 
  26   0.0000       0.096295         2.6203 
  27   0.0000       0.244349         6.6491 
  28   0.0000       0.280732         7.6391 
  29   0.0000       0.280767         7.6400 
  30   0.0000       0.287868         7.8333 
  31   0.0000       0.312785         8.5113 
  32   0.0000       0.312795         8.5116 
  33   0.0000       0.344856         9.3840 
  34   0.0000       0.344863         9.3842 
  35   0.0000       0.374494        10.1905 
  36   0.0000       0.374525        10.1914 
*Only the first 10 virtual orbitals were printed.

                    ********************************
                    * MULLIKEN POPULATION ANALYSIS *
                    ********************************

-----------------------
MULLIKEN ATOMIC CHARGES
-----------------------
   0 C :   -0.388042
   1 H :    0.197555
   2 H :    0.197575
   3 H :    0.197569
   4 Cl:   -0.828389
   5 I :   -0.376268
Sum of atomic charges:   -1.0000000

--------------------------------
MULLIKEN REDUCED ORBITAL CHARGES
--------------------------------
  0 C s       :     3.309502  s :     3.309502
      pz      :     0.785726  p :     3.056029
      px      :     1.135154
      py      :     1.135150
      dz2     :     0.008011  d :     0.022510
      dxz     :     0.003000
      dyz     :     0.003000
      dx2y2   :     0.004249
      dxy     :     0.004250

  1 H s       :     0.783004  s :     0.783004
      pz      :     0.005246  p :     0.019442
      px      :     0.003574
      py      :     0.010622

  2 H s       :     0.782986  s :     0.782986
      pz      :     0.005245  p :     0.019438
      px      :     0.008858
      py      :     0.005336

  3 H s       :     0.783001  s :     0.783001
      pz      :     0.005243  p :     0.019430
      px      :     0.008855
      py      :     0.005332

  4 Cls       :     5.972153  s :     5.972153
      pz      :     3.870163  p :    11.853532
      px      :     3.991683
      py      :     3.991686
      dz2     :     0.001484  d :     0.002704
      dxz     :     0.000602
      dyz     :     0.000601
      dx2y2   :     0.000009
      dxy     :     0.000009

  5 I s       :     3.977056  s :     3.977056
      pz      :     3.344609  p :    11.346478
      px      :     4.000934
      py      :     4.000935
      dz2     :     2.020448  d :    10.052734
      dxz     :     2.015935
      dyz     :     2.015930
      dx2y2   :     2.000210
      dxy     :     2.000210



                     *******************************
                     * LOEWDIN POPULATION ANALYSIS *
                     *******************************

----------------------
LOEWDIN ATOMIC CHARGES
----------------------
   0 C :   -0.574587
   1 H :    0.167458
   2 H :    0.167477
   3 H :    0.167519
   4 Cl:   -0.781198
   5 I :   -0.146670

-------------------------------
LOEWDIN REDUCED ORBITAL CHARGES
-------------------------------
  0 C s       :     3.095882  s :     3.095882
      pz      :     1.015230  p :     3.426110
      px      :     1.205436
      py      :     1.205444
      dz2     :     0.017629  d :     0.052594
      dxz     :     0.007061
      dyz     :     0.007063
      dx2y2   :     0.010420
      dxy     :     0.010421

  1 H s       :     0.784153  s :     0.784153
      pz      :     0.011596  p :     0.048389
      px      :     0.008391
      py      :     0.028402

  2 H s       :     0.784141  s :     0.784141
      pz      :     0.011594  p :     0.048381
      px      :     0.023395
      py      :     0.013393

  3 H s       :     0.784123  s :     0.784123
      pz      :     0.011588  p :     0.048358
      px      :     0.023387
      py      :     0.013383

  4 Cls       :     5.948317  s :     5.948317
      pz      :     3.846458  p :    11.825795
      px      :     3.989668
      py      :     3.989669
      dz2     :     0.003811  d :     0.007085
      dxz     :     0.001608
      dyz     :     0.001607
      dx2y2   :     0.000030
      dxy     :     0.000030

  5 I s       :     3.770865  s :     3.770865
      pz      :     3.313476  p :    11.256090
      px      :     3.971307
      py      :     3.971306
      dz2     :     2.064613  d :    10.119715
      dxz     :     2.027288
      dyz     :     2.027282
      dx2y2   :     2.000266
      dxy     :     2.000266



                      *****************************
                      * MAYER POPULATION ANALYSIS *
                      *****************************

  NA   - Mulliken gross atomic population
  ZA   - Total nuclear charge
  QA   - Mulliken gross atomic charge
  VA   - Mayer's total valence
  BVA  - Mayer's bonded valence
  FA   - Mayer's free valence

  ATOM       NA         ZA         QA         VA         BVA        FA
  0 C      6.3880     6.0000    -0.3880     3.7814     3.7814    -0.0000
  1 H      0.8024     1.0000     0.1976     0.9455     0.9455     0.0000
  2 H      0.8024     1.0000     0.1976     0.9455     0.9455     0.0000
  3 H      0.8024     1.0000     0.1976     0.9455     0.9455    -0.0000
  4 Cl    17.8284    17.0000    -0.8284     0.3027     0.3027    -0.0000
  5 I     25.3763    25.0000    -0.3763     0.8740     0.8740    -0.0000

  Mayer bond orders larger than 0.100000
B(  0-C ,  1-H ) :   0.9448 B(  0-C ,  2-H ) :   0.9448 B(  0-C ,  3-H ) :   0.9448 
B(  0-C ,  4-Cl) :   0.1956 B(  0-C ,  5-I ) :   0.7515 B(  4-Cl,  5-I ) :   0.1085 


-------
TIMINGS
-------

Total SCF time: 0 days 0 hours 0 min 5 sec 

Total time                  ....       5.428 sec
Sum of individual times     ....       4.728 sec  ( 87.1%)

SCF preparation             ....       0.234 sec  (  4.3%)
Fock matrix formation       ....       3.447 sec  ( 63.5%)
  Startup                   ....       0.028 sec  (  0.8% of F)
  Split-RI-J                ....       0.759 sec  ( 22.0% of F)
  XC integration            ....       2.732 sec  ( 79.3% of F)
    XC Preparation          ....       0.000 sec  (  0.0% of XC)
    Basis function eval.    ....       0.190 sec  (  6.9% of XC)
    Density eval.           ....       0.670 sec  ( 24.5% of XC)
    XC-Functional eval.     ....       0.417 sec  ( 15.3% of XC)
    XC-Potential eval.      ....       0.596 sec  ( 21.8% of XC)
Diagonalization             ....       0.000 sec  (  0.0%)
Density matrix formation    ....       0.057 sec  (  1.0%)
Total Energy calculation    ....       0.029 sec  (  0.5%)
Population analysis         ....       0.014 sec  (  0.3%)
Orbital Transformation      ....       0.089 sec  (  1.6%)
Orbital Orthonormalization  ....       0.000 sec  (  0.0%)
DIIS solution               ....       0.575 sec  ( 10.6%)
SOSCF solution              ....       0.284 sec  (  5.2%)
Finished LeanSCF after   5.5 sec

Maximum memory used throughout the entire LEANSCF-calculation: 6.7 MB


           ************************************************************
           *        Program running with 8 parallel MPI-processes     *
           *              working on a common directory               *
           ************************************************************

------------------------------------------------------------------------------
                         ORCA PROPERTY INTEGRAL CALCULATIONS
------------------------------------------------------------------------------

GBWName                                   ... product_optfreq.gbw
Number of atoms                           ...      6
Number of basis functions                 ...     97
Max core memory                           ...   4096 MB

Dipole integrals                          ... YES
Quadrupole integrals                      ...  NO
Linear momentum integrals                 ...  NO
Angular momentum integrals                ...  NO
Higher moments length integrals           ...  NO
Higher moments velocity integrals         ...  NO
Kinetic energy integrals                  ...  NO
GIAO right hand sides                     ...  NO
GIAO dipole derivative integrals          ...  NO
SOC integrals                             ...  NO
EPR diamagnetic integrals (GIAO)          ...  NO
EPR gauge integrals                       ...  NO
Field gradient integrals                  ...  NO (   0 nuclei)
Spin-dipole/Fermi contact integrals       ...  NO (   0 nuclei)
Contact density integrals                 ...  NO (   0 nuclei)
Nucleus-orbit integrals                   ...  NO (   0 nuclei)
Geometric perturbations                   ...  NO (   6 nuclei)

Choice of electric origin   ... Center of mass
Position of electric origin ... (  0.0001,  0.0001, -2.4004) 
Choice of magnetic origin   ... GIAO
Position of magnetic origin ... (  0.0000,  0.0000,  0.0000) 

Calculating integrals                     ... Electric Dipole (Length)     done (  0.0 sec)

Property integrals calculated in   0.0 sec

Maximum memory used throughout the entire PROPINT-calculation: 7.0 MB


-------------------------------------------------------------------------------
                          DFT DISPERSION CORRECTION                            
                                                                               
                                DFTD4 V3.4.0                                   
-------------------------------------------------------------------------------
The R2SCAN3C composite method is recognized
Using three-body term ABC
Active option DFTDOPT                   ...         5   

-------------------------   ----------------
Dispersion correction           -0.001235021
-------------------------   ----------------

------------------   -----------------
gCP correction             0.003615266
------------------   -----------------

-------------------------   --------------------
FINAL SINGLE POINT ENERGY      -797.890313297773
-------------------------   --------------------



           ************************************************************
           *        Program running with 8 parallel MPI-processes     *
           *              working on a common directory               *
           ************************************************************
------------------------------------------------------------------------------
                         ORCA SCF GRADIENT CALCULATION
------------------------------------------------------------------------------

Nuc. rep. gradient        (SHARK) ... done (  0.0 sec)
HCore & Overlap gradient  (SHARK) ... done (  0.1 sec)
ECP gradient              (SHARK) ... done (  0.2 sec)
Split-RIJ-J gradient      (SHARK) ... done (  1.5 sec)
XC gradient                       ... done (  0.8 sec)
Dispersion correction             ... done (  0.1 sec)

-------------------
DISPERSION GRADIENT
-------------------

   1   C   :   -0.000000004   -0.000000004   -0.000002671
   2   H   :    0.000000001    0.000001165   -0.000002068
   3   H   :    0.000001007   -0.000000581   -0.000002068
   4   H   :   -0.000001002   -0.000000578   -0.000002068
   5   Cl  :   -0.000000002   -0.000000002    0.000086319
   6   I   :    0.000000001    0.000000001   -0.000077444

Difference to translation invariance:
           :   -0.0000000000    0.0000000000   -0.0000000000

Difference to rotation invariance:
           :    0.0000000000   -0.0000000000    0.0000000000

Norm of the Dispersion gradient    ...    0.0001160716
RMS gradient                       ...    0.0000273583
MAX gradient                       ...    0.0000863192
gCP correction                   ... done

------------------
CARTESIAN GRADIENT
------------------

   1   C   :    0.000129069    0.000105248   -0.016428597
   2   H   :   -0.000005323   -0.004193518    0.001434058
   3   H   :   -0.003624558    0.002085705    0.001459537
   4   H   :    0.003504122    0.002022311    0.001499321
   5   Cl  :   -0.000000390   -0.000017439   -0.009583671
   6   I   :   -0.000002920   -0.000002308    0.021619352

Difference to translation invariance:
           :   -0.0000000000    0.0000000000   -0.0000000000

Difference to rotation invariance:
           :    0.0000455052    0.0000000231    0.0000000260

Norm of the Cartesian gradient     ...    0.0297833261
RMS gradient                       ...    0.0070199973
MAX gradient                       ...    0.0216193516

-------
TIMINGS
-------

Total SCF gradient time     ....        2.793 sec

Densities                   ....       0.000 sec  (  0.0%)
One electron gradient       ....       0.086 sec  (  3.1%)
RI-J Coulomb gradient       ....       1.502 sec  ( 53.8%)
XC gradient                 ....       0.787 sec  ( 28.2%)

Maximum memory used throughout the entire SCFGRAD-calculation: 26.9 MB
------------------------------------------------------------------------------
                         ORCA GEOMETRY RELAXATION STEP
------------------------------------------------------------------------------

Reading the OPT-File                    .... done
Getting information on internals        .... done
Copying old internal coords+grads       .... done
Making the new internal coordinates     .... (2022 redundants) done
Validating the new internal coordinates .... (2022 redundants) done
Calculating the B-matrix                .... done
Calculating the G,G- and P matrices     .... done
Transforming gradient to internals      .... done
Projecting the internal gradient        .... done
Number of atoms                         ....   6
Number of internal coordinates          ....  17
Current Energy                          ....  -797.890313298 Eh
Current gradient norm                   ....     0.029783326 Eh/bohr
Maximum allowed component of the step   ....  0.300
Current trust radius                    ....  0.300
Evaluating the initial hessian          ....  (Almloef) done
Projecting the Hessian                  .... done
Forming the augmented Hessian           .... done
Diagonalizing the augmented Hessian     .... done
Last element of RFO vector              ....  0.937385278
Lowest eigenvalues of augmented Hessian:
 -0.005527720  0.011609076  0.046392826  0.046404328  0.122075578
Length of the computed step             ....  0.371559268
Warning: the length of the step is outside the trust region - taking restricted step instead
The input lambda is                     ....     0.009000
   iter:   5  x=    0.002639  g=  415.773396 f(x)=     0.983582
   iter:  10  x=   -0.010490  g=    6.770943 f(x)=     0.002322
The output lambda is                    ....    -0.010499 (13 iterations)
The final length of the internal step   ....  0.300000000
Converting the step to Cartesian space:
 Initial RMS(Int)=    0.0727606875
Transforming coordinates:
 Iter   0:  RMS(Cart)=    0.0501405156 RMS(Int)=    0.0728120177
done
Storing new coordinates                 .... done

                                .--------------------.
          ----------------------|Geometry convergence|-------------------------
          Item                value                   Tolerance       Converged
          ---------------------------------------------------------------------
          RMS gradient        0.0055597331            0.0001000000      NO
          MAX gradient        0.0216193512            0.0003000000      NO
          RMS step            0.0727606875            0.0020000000      NO
          MAX step            0.1679272513            0.0040000000      NO
          -------------------------------------------------------------------------
          ........................................................
          Max(Bonds)      0.0889      Max(Angles)    0.03
          Max(Dihed)        0.00      Max(Improp)    0.00
          ---------------------------------------------------------------------

The optimization has not yet converged - more geometry cycles are needed


    ---------------------------------------------------------------------------
                         Redundant Internal Coordinates
                            (Angstroem and degrees)

        Definition                    Value    dE/dq     Step     New-Value
    ----------------------------------------------------------------------------
     1. B(H   1,C   0)                1.0780 -0.003330  0.0046    1.0826   
     2. B(H   2,C   0)                1.0781 -0.003308  0.0045    1.0826   
     3. B(H   3,C   0)                1.0783 -0.003166  0.0043    1.0826   
     4. B(Cl  4,H   2)                2.6480 -0.002608  0.0646    2.7126   
     5. B(Cl  4,H   3)                2.6480 -0.002607  0.0646    2.7126   
     6. B(Cl  4,H   1)                2.6481 -0.002581  0.0643    2.7124   
     7. B(Cl  4,C   0)                2.7718 -0.002397  0.0690    2.8408   
     8. B(I   5,C   0)                2.1731 -0.021619  0.0889    2.2620   
     9. A(H   1,C   0,H   3)          111.03 -0.000053    0.03    111.06   
    10. A(H   2,C   0,H   3)          111.03 -0.000055    0.03    111.05   
    11. A(H   1,C   0,I   5)          107.86  0.000073   -0.03    107.83   
    12. A(H   2,C   0,I   5)          107.86  0.000052   -0.03    107.84   
    13. A(H   3,C   0,I   5)          107.86  0.000034   -0.02    107.83   
    14. A(H   1,C   0,Cl  4)           72.14 -0.000042    0.02     72.16   
    15. A(H   2,C   0,Cl  4)           72.14 -0.000056    0.03     72.17   
    16. A(H   3,C   0,Cl  4)           72.14 -0.000061    0.03     72.17   
    17. A(H   1,C   0,H   2)          111.04 -0.000041    0.02    111.06   
    ----------------------------------------------------------------------------

Geometry step timings:
Preparation and reading OPT file:      0.000 s ( 2.781 %)
Internal coordinates            :      0.000 s ( 3.540 %)
B/P matrices and projection     :      0.000 s (10.683 %)
Hessian update/contruction      :      0.001 s (34.450 %)
Making the step                 :      0.000 s (13.148 %)
Converting the step to Cartesian:      0.000 s ( 3.603 %)
Storing new data                :      0.000 s ( 6.764 %)
Checking convergence            :      0.000 s ( 4.614 %)
Final printing                  :      0.000 s (19.975 %)
Total time                      :      0.002 s

Time for energy+gradient        :     19.394 s
Time for complete geometry iter :     20.193 s

         *************************************************************
         *                GEOMETRY OPTIMIZATION CYCLE   2            *
         *************************************************************
---------------------------------
CARTESIAN COORDINATES (ANGSTROEM)
---------------------------------
  C      0.000090    0.000027   -0.272385
  H      0.000033    1.030543    0.059253
  H      0.892553   -0.515350    0.059166
  H     -0.892415   -0.515310    0.059154
  Cl    -0.000003    0.000186    2.568355
  I      0.000053    0.000210   -2.534391

----------------------------
CARTESIAN COORDINATES (A.U.)
----------------------------
  NO LB      ZA    FRAG     MASS         X           Y           Z
   0 C     6.0000    0    12.011    0.000170    0.000050   -0.514732
   1 H     1.0000    0     1.008    0.000063    1.947444    0.111973
   2 H     1.0000    0     1.008    1.686682   -0.973870    0.111808
   3 H     1.0000    0     1.008   -1.686419   -0.973796    0.111785
   4 Cl   17.0000    0    35.453   -0.000005    0.000352    4.853488
   5 I    25.0000*   0   126.900    0.000101    0.000397   -4.789304
* core charge reduced due to ECP

--------------------------------
INTERNAL COORDINATES (ANGSTROEM)
--------------------------------
 C      0   0   0     0.000000000000     0.00000000     0.00000000
 H      1   0   0     1.082565490698     0.00000000     0.00000000
 H      1   2   0     1.082603223421   111.06266400     0.00000000
 H      1   2   3     1.082614857898   111.05521381   124.10625595
 Cl     2   1   3     2.712420735086    85.51367511   297.94755387
 I      1   2   3     2.262006277432   107.83442730   242.04950553

---------------------------
INTERNAL COORDINATES (A.U.)
---------------------------
 C      0   0   0     0.000000000000     0.00000000     0.00000000
 H      1   0   0     2.045752299453     0.00000000     0.00000000
 H      1   2   0     2.045823603966   111.06266400     0.00000000
 H      1   2   3     2.045845589942   111.05521381   124.10625595
 Cl     2   1   3     5.125732349283    85.51367511   297.94755387
 I      1   2   3     4.274572377557   107.83442730   242.04950553



           ************************************************************
           *        Program running with 8 parallel MPI-processes     *
           *              working on a common directory               *
           ************************************************************
------------------------------------------------------------------------------
                   ___                                                        
                  /   \      - P O W E R E D   B Y -                         
                 /     \                                                     
                 |  |  |   _    _      __       _____    __    __             
                 |  |  |  | |  | |    /  \     |  _  \  |  |  /  |          
                  \  \/   | |  | |   /    \    | | | |  |  | /  /          
                 / \  \   | |__| |  /  /\  \   | |_| |  |  |/  /          
                |  |  |   |  __  | /  /__\  \  |    /   |      \           
                |  |  |   | |  | | |   __   |  |    \   |  |\   \          
                \     /   | |  | | |  |  |  |  | |\  \  |  | \   \       
                 \___/    |_|  |_| |__|  |__|  |_| \__\ |__|  \__/        
                                                                              
                      - O R C A' S   B I G   F R I E N D -                    
                                      &                                       
                       - I N T E G R A L  F E E D E R -                       
                                                                              
 v1 FN, 2020, v2 2021, v3 2022-2024                                           
------------------------------------------------------------------------------


----------------------
SHARK INTEGRAL PACKAGE
----------------------

Number of atoms                             ...      6
Number of basis functions                   ...     97
Number of shells                            ...     43
Maximum angular momentum                    ...      2
Integral batch strategy                     ... SHARK/LIBINT Hybrid
RI-J (if used) integral strategy            ... SPLIT-RIJ (Revised 2003 algorithm where possible)
Printlevel                                  ...      1
Contraction scheme used                     ... SEGMENTED contraction
Prescreening option                         ... SCHWARTZ
   Thresh                                   ... 2.500e-11
   Tcut                                     ... 2.500e-12
   Tpresel                                  ... 2.500e-12 
Coulomb Range Separation                    ... NOT USED
Exchange Range Separation                   ... NOT USED
Multipole approximations                    ... NOT USED
Finite Nucleus Model                        ... NOT USED
CABS basis                                  ... NOT available
Auxiliary Coulomb fitting basis             ... AVAILABLE
   # of basis functions in Aux-J            ...    163
   # of shells in Aux-J                     ...     61
   Maximum angular momentum in Aux-J        ...      4
Auxiliary J/K fitting basis                 ... NOT available
Auxiliary Correlation fitting basis         ... NOT available
Auxiliary 'external' fitting basis          ... NOT available

Checking pre-screening integrals            ... done (  0.0 sec) Dimension = 43
   => SHARK Basis and OBASIS are compatible. Storing Pre-screening
Shell pair information
Shell pair cut-off parameter TPreSel        ...   2.5e-12
Total number of shell pairs                 ...       946
Shell pairs after pre-screening             ...       865
Total number of primitive shell pairs       ...      3934
Primitive shell pairs kept                  ...      2732
          la=0 lb=0:    223 shell pairs
          la=1 lb=0:    303 shell pairs
          la=1 lb=1:    114 shell pairs
          la=2 lb=0:    121 shell pairs
          la=2 lb=1:     84 shell pairs
          la=2 lb=2:     20 shell pairs

Checking whether 4 symmetric matrices of dimension 97 fit in memory
:Max Core in MB      =   4096.00
 MB in use           =      4.49
 MB left             =   4091.51
 MB needed           =      0.15
 Data fit in memory  = YES
Calculating RI/J V-Matrix + Cholesky decomp.... done (  0.0 sec)
Calculating Nuclear repulsion               ... done (  0.0 sec) ENN=    132.024425495280 Eh

Diagonalization of the overlap matrix:
Smallest eigenvalue                        ... 4.172e-03
Time for diagonalization                   ...    0.082 sec
Threshold for overlap eigenvalues          ... 1.000e-07
Number of eigenvalues below threshold      ... 0
Time for construction of square roots      ...    0.008 sec
Total time needed                          ...    0.091 sec

-------------------
DFT GRID GENERATION
-------------------

General Integration Accuracy     IntAcc      ... 4.388
Radial Grid Type                 RadialGrid  ... OptM3 with GC (2021)
Angular Grid (max. ang.)         AngularGrid ... 4 (Lebedev-302)
Angular grid pruning method      GridPruning ... 4 (adaptive)
Weight generation scheme         WeightScheme... mBecke (2022)
Basis function cutoff            BFCut       ... 1.0000e-11
Integration weight cutoff        WCut        ... 1.0000e-14
Partially contracted basis set               ... off
Rotationally invariant grid construction     ... off
Angular grids for H and He will be reduced by one unit

Total number of grid points                  ...    34839
Total number of batches                      ...      547
Average number of points per batch           ...       63
Average number of grid points per atom       ...     5806
Grids setup in   1.0 sec
Initializing property integral containers    ... done (  0.0 sec)

SHARK setup successfully completed in   1.6 seconds

Maximum memory used throughout the entire STARTUP-calculation: 13.0 MB


           ************************************************************
           *        Program running with 8 parallel MPI-processes     *
           *              working on a common directory               *
           ************************************************************
Occupation numbers will be reassigned to an Aufbau configuration
             **** ENERGY FILE WAS UPDATED (product_optfreq.en.tmp) ****
Finished Guess after   0.3 sec
Maximum memory used throughout the entire GUESS-calculation: 6.9 MB


           ************************************************************
           *        Program running with 8 parallel MPI-processes     *
           *              working on a common directory               *
           ************************************************************
----------------------------------------D-I-I-S--------------------------------------------
Iteration    Energy (Eh)           Delta-E    RMSDP     MaxDP     DIISErr   Damp  Time(sec)
-------------------------------------------------------------------------------------------
               ***  Starting incremental Fock matrix formation  ***
    1    -797.8940717983857667     0.00e+00  6.81e-04  3.99e-03  4.87e-02  0.700   0.5
    2    -797.8943533898795977    -2.82e-04  6.74e-04  3.25e-03  3.42e-02  0.700   0.5
                               ***Turning on AO-DIIS***
    3    -797.8945580917267080    -2.05e-04  5.58e-04  2.99e-03  2.39e-02  0.700   0.6
    4    -797.8946982223005762    -1.40e-04  1.42e-03  8.17e-03  1.68e-02  0.000   0.5
                              *** Initializing SOSCF ***
---------------------------------------S-O-S-C-F--------------------------------------
Iteration    Energy (Eh)           Delta-E    RMSDP     MaxDP     MaxGrad    Time(sec)
--------------------------------------------------------------------------------------
    5    -797.8950342502632793    -3.36e-04  1.41e-04  7.03e-04  1.16e-03     0.6
               *** Restarting incremental Fock matrix formation ***
    6    -797.8950356760584555    -1.43e-06  1.61e-04  8.47e-04  3.78e-04     0.4
    7    -797.8950322812416971     3.39e-06  1.03e-04  5.89e-04  9.13e-04     0.6
    8    -797.8950369119571633    -4.63e-06  1.10e-05  9.65e-05  1.77e-05     0.5
    9    -797.8950369145213699    -2.56e-09  5.13e-06  4.37e-05  1.51e-05     0.5
                 **** Energy Check signals convergence ****

               *****************************************************
               *                     SUCCESS                       *
               *           SCF CONVERGED AFTER   9 CYCLES          *
               *****************************************************

             **** ENERGY FILE WAS UPDATED (product_optfreq.en.tmp) ****

----------------
TOTAL SCF ENERGY
----------------

Total Energy       :       -797.89503691814218 Eh          -21711.82776 eV

Components:
Nuclear Repulsion  :        132.02442549528018 Eh            3592.56726 eV
Electronic Energy  :       -929.91946241342237 Eh          -25304.39502 eV
One Electron Energy:      -1479.45466475030094 Eh          -40258.00811 eV
Two Electron Energy:        549.53520233687857 Eh           14953.61308 eV

Virial components:
Potential Energy   :      -1408.87746079041790 Eh          -38337.50475 eV
Kinetic Energy     :        610.98242387227583 Eh           16625.67699 eV
Virial Ratio       :          2.30592142382960

DFT components:
N(Alpha)           :       26.000007525253 electrons
N(Beta)            :       26.000007525253 electrons
N(Total)           :       52.000015050506 electrons
E(X)               :      -55.248975297169 Eh       
E(C)               :       -2.007304375476 Eh       
E(XC)              :      -57.256279672645 Eh       

---------------
SCF CONVERGENCE
---------------

  Last Energy change         ...    2.5642e-09  Tolerance :   1.0000e-08
  Last MAX-Density change    ...    4.3731e-05  Tolerance :   1.0000e-07
  Last RMS-Density change    ...    5.1326e-06  Tolerance :   5.0000e-09
  Last DIIS Error            ...    1.1562e-03  Tolerance :   5.0000e-07
  Last Orbital Gradient      ...    1.5058e-05  Tolerance :   1.0000e-05
  Last Orbital Rotation      ...    3.5456e-05  Tolerance :   1.0000e-05


Total SCF time: 0 days 0 hours 0 min 5 sec 
Finished LeanSCF after   5.6 sec

Maximum memory used throughout the entire LEANSCF-calculation: 6.6 MB


           ************************************************************
           *        Program running with 8 parallel MPI-processes     *
           *              working on a common directory               *
           ************************************************************

------------------------------------------------------------------------------
                         ORCA PROPERTY INTEGRAL CALCULATIONS
------------------------------------------------------------------------------

GBWName                                   ... product_optfreq.gbw
Number of atoms                           ...      6
Number of basis functions                 ...     97
Max core memory                           ...   4096 MB

Dipole integrals                          ... YES
Quadrupole integrals                      ...  NO
Linear momentum integrals                 ...  NO
Angular momentum integrals                ...  NO
Higher moments length integrals           ...  NO
Higher moments velocity integrals         ...  NO
Kinetic energy integrals                  ...  NO
GIAO right hand sides                     ...  NO
GIAO dipole derivative integrals          ...  NO
SOC integrals                             ...  NO
EPR diamagnetic integrals (GIAO)          ...  NO
EPR gauge integrals                       ...  NO
Field gradient integrals                  ...  NO (   0 nuclei)
Spin-dipole/Fermi contact integrals       ...  NO (   0 nuclei)
Contact density integrals                 ...  NO (   0 nuclei)
Nucleus-orbit integrals                   ...  NO (   0 nuclei)
Geometric perturbations                   ...  NO (   6 nuclei)

Choice of electric origin   ... Center of mass
Position of electric origin ... (  0.0001,  0.0004, -2.4891) 
Choice of magnetic origin   ... GIAO
Position of magnetic origin ... (  0.0000,  0.0000,  0.0000) 

Calculating integrals                     ... Electric Dipole (Length)     done (  0.0 sec)

Property integrals calculated in   0.1 sec

Maximum memory used throughout the entire PROPINT-calculation: 7.0 MB


-------------------------------------------------------------------------------
                          DFT DISPERSION CORRECTION                            
                                                                               
                                DFTD4 V3.4.0                                   
-------------------------------------------------------------------------------
-------------------------   ----------------
Dispersion correction           -0.001210847
-------------------------   ----------------

------------------   -----------------
gCP correction             0.003153273
------------------   -----------------

-------------------------   --------------------
FINAL SINGLE POINT ENERGY      -797.893094492308
-------------------------   --------------------



           ************************************************************
           *        Program running with 8 parallel MPI-processes     *
           *              working on a common directory               *
           ************************************************************
------------------------------------------------------------------------------
                         ORCA SCF GRADIENT CALCULATION
------------------------------------------------------------------------------

Nuc. rep. gradient        (SHARK) ... done (  0.0 sec)
HCore & Overlap gradient  (SHARK) ... done (  0.1 sec)
ECP gradient              (SHARK) ... done (  0.2 sec)
Split-RIJ-J gradient      (SHARK) ... done (  1.8 sec)
XC gradient                       ... done (  0.6 sec)
Dispersion correction             ... done (  0.2 sec)

-------------------
DISPERSION GRADIENT
-------------------

   1   C   :   -0.000000000   -0.000000004   -0.000003116
   2   H   :    0.000000001    0.000001342   -0.000001781
   3   H   :    0.000001164   -0.000000672   -0.000001783
   4   H   :   -0.000001162   -0.000000672   -0.000001783
   5   Cl  :   -0.000000002    0.000000003    0.000085208
   6   I   :    0.000000000    0.000000002   -0.000076745

Difference to translation invariance:
           :    0.0000000000    0.0000000000   -0.0000000000

Difference to rotation invariance:
           :    0.0000000000   -0.0000000000    0.0000000000

Norm of the Dispersion gradient    ...    0.0001147818
RMS gradient                       ...    0.0000270543
MAX gradient                       ...    0.0000852083
gCP correction                   ... done

------------------
CARTESIAN GRADIENT
------------------

   1   C   :    0.000015712    0.000014740   -0.011298480
   2   H   :   -0.000006331   -0.002294225    0.004370256
   3   H   :   -0.001998788    0.001147687    0.004388949
   4   H   :    0.001990614    0.001150277    0.004391599
   5   Cl  :   -0.000000077   -0.000019497   -0.003673403
   6   I   :   -0.000001130    0.000001018    0.001821080

Difference to translation invariance:
           :    0.0000000000   -0.0000000000    0.0000000001

Difference to rotation invariance:
           :    0.0000659795    0.0000000436    0.0000000125

Norm of the Cartesian gradient     ...    0.0147640241
RMS gradient                       ...    0.0034799138
MAX gradient                       ...    0.0112984805

-------
TIMINGS
-------

Total SCF gradient time     ....        2.991 sec

Densities                   ....       0.000 sec  (  0.0%)
One electron gradient       ....       0.088 sec  (  3.0%)
RI-J Coulomb gradient       ....       1.780 sec  ( 59.5%)
XC gradient                 ....       0.612 sec  ( 20.5%)

Maximum memory used throughout the entire SCFGRAD-calculation: 26.9 MB
------------------------------------------------------------------------------
                         ORCA GEOMETRY RELAXATION STEP
------------------------------------------------------------------------------

Reading the OPT-File                    .... done
Getting information on internals        .... done
Copying old internal coords+grads       .... done
Making the new internal coordinates     .... (2022 redundants) done
Validating the new internal coordinates .... (2022 redundants) done
Calculating the B-matrix                .... done
Calculating the G,G- and P matrices     .... done
Transforming gradient to internals      .... done
Projecting the internal gradient        .... done
Number of atoms                         ....   6
Number of internal coordinates          ....  17
Current Energy                          ....  -797.893094492 Eh
Current gradient norm                   ....     0.014764024 Eh/bohr
Maximum allowed component of the step   ....  0.300
Current trust radius                    ....  0.300
Updating the Hessian (BFGS)             .... done
Forming the augmented Hessian           .... done
Diagonalizing the augmented Hessian     .... done
Last element of RFO vector              ....  0.982686198
Lowest eigenvalues of augmented Hessian:
 -0.000706866  0.011053155  0.046392778  0.046404107  0.103052188
Length of the computed step             ....  0.188542108
The final length of the internal step   ....  0.188542108
Converting the step to Cartesian space:
[...]



--------------------
Rotational spectrum 
--------------------
 
Rotational constants in cm-1:             5.051726             0.022130             0.022130 
Rotational constants in MHz :        151446.921563           663.450114           663.450031 

Dipole components along the rotational axes: 
x,y,z [a.u.] :    -4.356898     0.000004     0.001062 
x,y,z [Debye]:   -11.074355     0.000010     0.002700 

 

Dipole moment calculation done in   0.1 sec 

-----------
SCF HESSIAN
-----------

Occupied/Occupied contributions to the Hessian:
   => Occupied/Occupied contributions              ... done (  0.0 sec)
Perturbed density contributions to the Hessian:
   => Perturbed density contributions              ... done (  0.0 sec)
Explicit contributions to the Hessian:
   => Nuclear repulsion Hessian                    ... done (  0.0 sec)
   => HCore and overlap Hessian                    ... done (  0.2 sec)
   => ECP Hessian                                  ... done (  1.6 sec)
   => RI-J Hessian                                 ... done (  1.8 sec)
   => XC-Hessian                                   ... done (  2.2 sec)
   => Van der Waals-Hessian                        ... done (  0.5 sec)
   => GCP-Hessian                                  ... done (  0.0 sec)
   => Explicit contributions done
Dipole derivatives                                 ... done (  0.1 sec)
Mass weighting the Hessian           ... done
Calculating normal modes             ... done
Scaling frequencies                  ... done

-----------------------
VIBRATIONAL FREQUENCIES
-----------------------

Scaling factor for frequencies =  1.000000000  (already applied!)

     0:       0.00 cm**-1
     1:       0.00 cm**-1
     2:       0.00 cm**-1
     3:       0.00 cm**-1
     4:       0.00 cm**-1
     5:       0.00 cm**-1
     6:     117.92 cm**-1
     7:     118.01 cm**-1
     8:     122.50 cm**-1
     9:     266.09 cm**-1
    10:     835.06 cm**-1
    11:     835.49 cm**-1
    12:    1106.97 cm**-1
    13:    1422.86 cm**-1
    14:    1423.20 cm**-1
    15:    3137.10 cm**-1
    16:    3304.57 cm**-1
    17:    3305.41 cm**-1


------------
NORMAL MODES
------------

These modes are the Cartesian displacements weighted by the diagonal matrix
M(i,i)=1/sqrt(m[i]) where m[i] is the mass of the displaced atom
Thus, these vectors are normalized but *not* orthogonal

                  0          1          2          3          4          5    
      0       0.000000   0.000000   0.000000   0.000000   0.000000   0.000000
      1       0.000000   0.000000   0.000000   0.000000   0.000000   0.000000
      2       0.000000   0.000000   0.000000   0.000000   0.000000   0.000000
      3       0.000000   0.000000   0.000000   0.000000   0.000000   0.000000
      4       0.000000   0.000000   0.000000   0.000000   0.000000   0.000000
      5       0.000000   0.000000   0.000000   0.000000   0.000000   0.000000
      6       0.000000   0.000000   0.000000   0.000000   0.000000   0.000000
      7       0.000000   0.000000   0.000000   0.000000   0.000000   0.000000
      8       0.000000   0.000000   0.000000   0.000000   0.000000   0.000000
      9       0.000000   0.000000   0.000000   0.000000   0.000000   0.000000
     10       0.000000   0.000000   0.000000   0.000000   0.000000   0.000000
     11       0.000000   0.000000   0.000000   0.000000   0.000000   0.000000
     12       0.000000   0.000000   0.000000   0.000000   0.000000   0.000000
     13       0.000000   0.000000   0.000000   0.000000   0.000000   0.000000
     14       0.000000   0.000000   0.000000   0.000000   0.000000   0.000000
     15       0.000000   0.000000   0.000000   0.000000   0.000000   0.000000
     16       0.000000   0.000000   0.000000   0.000000   0.000000   0.000000
     17       0.000000   0.000000   0.000000   0.000000   0.000000   0.000000
                  6          7          8          9         10         11    
      0       0.453102   0.000657  -0.000073  -0.000011   0.000028  -0.075180
      1       0.000656  -0.453084  -0.021446  -0.001856  -0.075166  -0.000028
      2       0.000017  -0.003151   0.372901   0.757172  -0.000204  -0.000001
      3       0.493751   0.000722  -0.000075  -0.000005  -0.000051   0.164541
      4       0.000727  -0.501328   0.013974   0.078982   0.108406   0.000041
      5      -0.000252   0.180396   0.169981   0.363184  -0.790187  -0.000293
      6       0.495833   0.005379   0.032196   0.069344   0.024541   0.121806
      7      -0.007896  -0.492137  -0.041640  -0.041802   0.149942   0.025142
      8      -0.157596  -0.092752   0.159276   0.364228   0.395225  -0.684079
      9       0.495841  -0.003948  -0.032348  -0.069354  -0.024642   0.121769
     10       0.009321  -0.492097  -0.041642  -0.041802   0.149960  -0.025030
     11       0.157883  -0.092296   0.159233   0.364229   0.394715   0.684375
     12      -0.091896  -0.000133   0.000023  -0.000000   0.000000  -0.001178
     13      -0.000133   0.091894   0.004207   0.000249  -0.001183  -0.000000
     14      -0.000022   0.004421  -0.857302   0.041011   0.000040   0.000000
     15      -0.029011  -0.000042   0.000002   0.000001  -0.000002   0.004203
     16      -0.000042   0.029011   0.001405   0.000143   0.004201   0.000002
     17       0.000004  -0.000900   0.200336  -0.091795   0.000010   0.000000
                 12         13         14         15         16         17    
      0       0.000001  -0.080526   0.000029  -0.000001  -0.000031   0.098698
      1       0.000015  -0.000029  -0.080531  -0.000158  -0.098715  -0.000031
      2      -0.070102  -0.000001   0.000049   0.028799  -0.000140   0.000001
      3      -0.000007   0.779198  -0.000283   0.000002  -0.000009   0.017641
      4      -0.128241  -0.000039  -0.109474  -0.564613   0.792949   0.000249
      5       0.561453   0.000085   0.207488  -0.114487   0.179937   0.000057
      6      -0.110138   0.112941   0.384912  -0.490292  -0.349835  -0.589988
      7       0.063823   0.384765   0.556857   0.283235   0.184545   0.350915
      8       0.561667   0.180432  -0.104025  -0.114141  -0.089069  -0.154685
      9       0.110122   0.112669  -0.384991   0.490296   0.350209  -0.589769
     10       0.063823  -0.384364   0.557132   0.283237   0.184767  -0.350799
     11       0.561672  -0.180504  -0.103906  -0.114128  -0.089157   0.154612
     12       0.000000  -0.000182   0.000000   0.000000   0.000000  -0.000104
     13      -0.000005  -0.000000  -0.000177   0.000000   0.000105   0.000000
     14      -0.005956  -0.000000  -0.000006   0.000242  -0.000002   0.000000
     15       0.000000  -0.000309   0.000000   0.000000   0.000000  -0.000082
     16       0.000005  -0.000000  -0.000307   0.000000   0.000082   0.000000
     17      -0.005084  -0.000000   0.000001  -0.000071   0.000000  -0.000000


-----------
IR SPECTRUM
-----------

 Mode   freq       eps      Int      T**2         TX        TY        TZ
       cm**-1   L/(mol*cm) km/mol    a.u.
----------------------------------------------------------------------------
  6:    117.92   0.001132    5.72  0.002996  ( 0.054733  0.000079  0.000015)
  7:    118.01   0.001140    5.76  0.003015  ( 0.000079 -0.054701 -0.004808)
  8:    122.50   0.020824  105.24  0.053050  (-0.000005 -0.000816  0.230325)
  9:    266.09   0.078227  395.33  0.091742  (-0.000003 -0.000102  0.302890)
 10:    835.06   0.000286    1.44  0.000107  (-0.000004  0.010333 -0.000087)
 11:    835.49   0.000288    1.46  0.000108  ( 0.010372  0.000004  0.000000)
 12:   1106.97   0.018342   92.69  0.005171  ( 0.000001  0.000039 -0.071908)
 13:   1422.86   0.001335    6.75  0.000293  ( 0.017111  0.000006  0.000001)
 14:   1423.20   0.001355    6.85  0.000297  (-0.000006  0.017235  0.000111)
 15:   3137.10   0.000306    1.54  0.000030  ( 0.000000 -0.000108 -0.005513)
 16:   3304.57   0.000785    3.97  0.000074  ( 0.000003  0.008608 -0.000024)
 17:   3305.41   0.000790    3.99  0.000075  (-0.008635  0.000003 -0.000001)

* The epsilon (eps) is given for a Dirac delta lineshape.
** The dipole moment derivative (T) already includes vibrational overlap.

The first frequency considered to be a vibration is 6
The total number of vibrations considered is 12


--------------------------
THERMOCHEMISTRY AT 298.15K
--------------------------

Temperature         ...   298.15 K
Pressure            ...     1.00 atm
Total Mass          ...   177.39 AMU
Quasi RRHO          ...     True
Cut-Off Frequency   ...     1.00 cm^-1

Throughout the following assumptions are being made:
  (1) The electronic state is orbitally nondegenerate
  (2) There are no thermally accessible electronically excited states
  (3) Hindered rotations indicated by low frequency modes are not
      treated as such but are treated as vibrations and this may
      cause some error
  (4) All equations used are the standard statistical mechanics
      equations for an ideal gas
  (5) All vibrations are strictly harmonic

freq.     117.92  E(vib)   ...       0.44 
freq.     118.01  E(vib)   ...       0.44 
freq.     122.50  E(vib)   ...       0.43 
freq.     266.09  E(vib)   ...       0.29 
freq.     835.06  E(vib)   ...       0.04 
freq.     835.49  E(vib)   ...       0.04 
freq.    1106.97  E(vib)   ...       0.02 
freq.    1422.86  E(vib)   ...       0.00 
freq.    1423.20  E(vib)   ...       0.00 
freq.    3137.10  E(vib)   ...       0.00 
freq.    3304.57  E(vib)   ...       0.00 
freq.    3305.41  E(vib)   ...       0.00 

------------
INNER ENERGY
------------

The inner energy is: U= E(el) + E(ZPE) + E(vib) + E(rot) + E(trans)
    E(el)   - is the total energy from the electronic structure calculation
              = E(kin-el) + E(nuc-el) + E(el-el) + E(nuc-nuc)
    E(ZPE)  - the the zero temperature vibrational energy from the frequency calculation
    E(vib)  - the the finite temperature correction to E(ZPE) due to population
              of excited vibrational states
    E(rot)  - is the rotational thermal energy
    E(trans)- is the translational thermal energy

Summary of contributions to the inner energy U:
Electronic energy                ...   -797.89423716 Eh
Zero point energy                ...      0.03643967 Eh      22.87 kcal/mol
Thermal vibrational correction   ...      0.00273387 Eh       1.72 kcal/mol
Thermal rotational correction    ...      0.00141627 Eh       0.89 kcal/mol
Thermal translational correction ...      0.00141627 Eh       0.89 kcal/mol
-----------------------------------------------------------------------
Total thermal energy                   -797.85223107 Eh


Summary of corrections to the electronic energy:
(perhaps to be used in another calculation)
Total thermal correction                  0.00556642 Eh       3.49 kcal/mol
Non-thermal (ZPE) correction              0.03643967 Eh      22.87 kcal/mol
-----------------------------------------------------------------------
Total correction                          0.04200609 Eh      26.36 kcal/mol


--------
ENTHALPY
--------

The enthalpy is H = U + kB*T
                kB is Boltzmann's constant
Total thermal energy              ...   -797.85223107 Eh 
Thermal Enthalpy correction       ...      0.00094421 Eh       0.59 kcal/mol
-----------------------------------------------------------------------
Total Enthalpy                    ...   -797.85128686 Eh


Note: Rotational entropy computed according to Herzberg 
Infrared and Raman Spectra, Chapter V,1, Van Nostrand Reinhold, 1945 
Point Group:  Cs, Symmetry Number:   1  
Rotational constants in cm-1:     5.051730     0.022130     0.022130 

Vibrational entropy computed according to the QRRHO of S. Grimme
Chem.Eur.J. 2012 18 9955 using a reference frequency of 100.0 cm-1


-------
ENTROPY
-------

The entropy contributions are T*S = T*(S(el)+S(vib)+S(rot)+S(trans))
     S(el)   - electronic entropy
     S(vib)  - vibrational entropy
     S(rot)  - rotational entropy
     S(trans)- translational entropy
The entropies will be listed as multiplied by the temperature to get
units of energy

Electronic entropy                ...      0.00000000 Eh      0.00 kcal/mol
Vibrational entropy               ...      0.00521781 Eh      3.27 kcal/mol
Rotational entropy                ...      0.01234424 Eh      7.75 kcal/mol
Translational entropy             ...      0.01968301 Eh     12.35 kcal/mol
-----------------------------------------------------------------------
Final entropy term                ...      0.03724506 Eh     23.37 kcal/mol

In case the symmetry of your molecule has not been determined correctly
or in case you have a reason to use a different symmetry number we print 
out the resulting rotational entropy values for sn=1,12:

 non-linear molecules -----------------------------------
|  sn= 1 | S(rot)=       0.01234424 Eh      7.75 kcal/mol|
|  sn= 2 | S(rot)=       0.01168978 Eh      7.34 kcal/mol|
|  sn= 3 | S(rot)=       0.01130695 Eh      7.10 kcal/mol|
|  sn= 4 | S(rot)=       0.01103533 Eh      6.92 kcal/mol|
|  sn= 5 | S(rot)=       0.01082464 Eh      6.79 kcal/mol|
|  sn= 6 | S(rot)=       0.01065250 Eh      6.68 kcal/mol|
|  sn= 7 | S(rot)=       0.01050695 Eh      6.59 kcal/mol|
|  sn= 8 | S(rot)=       0.01038087 Eh      6.51 kcal/mol|
|  sn= 9 | S(rot)=       0.01026966 Eh      6.44 kcal/mol|
|  sn=10 | S(rot)=       0.01017018 Eh      6.38 kcal/mol|
|  sn=11 | S(rot)=       0.01008019 Eh      6.33 kcal/mol|
|  sn=12 | S(rot)=       0.00999804 Eh      6.27 kcal/mol|
 linear molecules ---------------------------------------
|  Dinfh | S(rot)=       0.00892390 Eh      5.60 kcal/mol|
|  Cinfv | S(rot)=       0.00957835 Eh      6.01 kcal/mol|
 --------------------------------------------------------


-------------------
GIBBS FREE ENERGY
-------------------

The Gibbs free energy is G = H - T*S

Total enthalpy                    ...   -797.85128686 Eh 
Total entropy correction          ...     -0.03724506 Eh    -23.37 kcal/mol
-----------------------------------------------------------------------
Final Gibbs free energy         ...   -797.88853192 Eh

For completeness - the Gibbs free energy minus the electronic energy
G-E(el)                           ...      0.00570524 Eh      3.58 kcal/mol


Maximum memory used throughout the entire PROP-calculation: 27.9 MB

--------------------------------
SUGGESTED CITATIONS FOR THIS RUN
--------------------------------

Below you find a list of papers that are relevant to this ORCA run
We neither can nor want to force you to cite these papers, but we appreciate if you do
You receive ORCA, which is the product of decades of hard work by many enthusiastic individuals, for free
The only thing we kindly ask in return is that you cite our papers,
We deeply appreciate it, if you show your appreciation for ORCA by not just citing the generic ORCA reference.

Please note that relegating all ORCA citations to the supporting information does *not* help us.
SI sections are not indexed - citations you put there will not count into any citation statistics
But we need these citations in order to attract the funding resources that allow us to do what we are doing

Therefore, if you are a happy ORCA user, please consider citing a few of the papers listed below in the main body of your paper

In addition to the list printed below, the program has created the file product_optfreq.bibtex that contains the list in bibtex format
You can import this file easily into all common literature databanks and citation aid programs


List of essential papers. We consider these as the minimum necessary citations

  1. Grimme, S.; Hansen, A.; Ehlert, S.; Mewes, J.
     r2SCAN-3c: A 'Swiss army knife' composite electronic-structure method
     J. Chem. Phys. 2021 154 , 064103
     doi.org/10.1063/5.0040021
  2. Neese, F.
     Software update: the ORCA program system, version 6.0
     WIRES Comput. Molec. Sci. 2025 15(1), e70019
     doi.org/10.1002/wcms.7019

List of papers to cite with high priority. The work reported in these papers was absolutely
necessary for this run to complete.
Our perspective: the developers of density functionals and basis sets usually get cited in chemistry papers
Good! But without the algorithms to do something with them, the functionals or basis sets would not do anything.
Hence, in our opinion, the algorithm design and method developments papers are equally worthy of getting cited

  1. Neese, F.
     An improvement of the resolution of the identity approximation for the formation of the Coulomb matrix
     J. Comp. Chem. 2003 24(14), 1740-1747
     doi.org/10.1002/jcc.10318
  2. Bykov, D.; Petrenko, T.; Izsak, R.; Kossmann, S.; Becker, U.; Valeev, E.; Neese, F.
     Efficient implementation of the analytic second derivatives of Hartree-Fock and hybrid DFT energies: a detailed analysis of different approximations
     Molec. Phys. 2015 113 , 1961-1977
     doi.org/10.1080/00268976.2015.1025114
  3. Caldeweyher, E.; Bannwarth, C.; Grimme, S.
     Extension of the D3 dispersion coefficient model
     J. Chem. Phys. 2017 147 , 034112
     doi.org/10.1063/1.4993215
  4. Lehtola, S.; Steigemann, C.; Oliveira, M.; Marques, M.
     Recent developments in Libxc - A comprehensive library of functionals for density functional theory
     Software X 2018 7 , 
     doi.org/10.1016/j.softx.2017.11.002
  5. Caldeweyher, E.; Ehlert, S.; Hansen, A.; Neugebauer, H.; Spicher, S.; Bannwarth, C.; Grimme, S.
     A generally applicable atomic-charge dependent London dispersion correction
     J. Chem. Phys. 2019 150 , 154122
     doi.org/10.1063/1.5090222
  6. Caldeweyher, E.; Mewes, J.; Ehlert, S.; Grimme, S.
     Extension and evaluation of the D4 London-dispersion model for periodic systems
     Phys. Chem. Chem. Phys. 2020 22(16), 8499-8512
     doi.org/10.1039/D0CP00502A
  7. Neese, F.
     The SHARK Integral Generation and Digestion System
     J. Comp. Chem. 2022 44(3), 381
     doi.org/10.1002/jcc.26942
  8. Wittmann, L.; Gordiy, I.; Friede, M.; Helmich-Paris, B.; Grimme, S.; Hansen, A.; Bursch, M.
     Extension of the D3 and D4 London Dispersion Corrections to the full Actinides Series
     Phys. Chem. Chem. Phys. 2024 26(32), 21379-21394
     doi.org/10.1039/D4CP01514B

List of suggested additional citations. These are papers that are important in the 'surrounding' of 
of this run, or papers that preceded the highly important papers. If you like your results we are grateful for a citation.

  1. Neese, F.
     The ORCA program system
     WIRES Comput. Molec. Sci. 2012 2(1), 73-78
     doi.org/10.1002/wcms.81
  2. Neese, F.
     Software update: the ORCA program system, version 4.0
     WIRES Comput. Molec. Sci. 2018 8(1), 1-6
     doi.org/10.1002/wcms.1327
  3. Neese, F.; Wennmohs, F.; Becker, U.; Riplinger, C.
     The ORCA quantum chemistry program package
     J. Chem. Phys. 2020 152(22), 224108
     doi.org/10.1063/5.0004608
  4. Neese, F.
     Software update: The ORCA program system—Version 5.0
     WIRES Comput. Molec. Sci. 2022 12(1), e1606
     doi.org/10.1002/wcms.1606

List of optional additional citations

  1. Neese, F.
     Approximate second-order SCF convergence for spin unrestricted wavefunctions
     Chem. Phys. Lett. 2000 325(1-3), 93-98
     doi.org/10.1016/s0009-2614(00)00662-x

Timings for individual modules:

Sum of individual times          ...      136.923 sec (=   2.282 min)
Startup calculation              ...       18.807 sec (=   0.313 min)  13.7 %
SCF iterations                   ...       57.510 sec (=   0.958 min)  42.0 %
Property integrals               ...       20.008 sec (=   0.333 min)  14.6 %
SCF Response                     ...        5.144 sec (=   0.086 min)   3.8 %
Property calculations            ...        6.902 sec (=   0.115 min)   5.0 %
SCF Gradient evaluation          ...       28.508 sec (=   0.475 min)  20.8 %
Geometry relaxation              ...        0.045 sec (=   0.001 min)   0.0 %
                             ****ORCA TERMINATED NORMALLY****
TOTAL RUN TIME: 0 days 0 hours 2 minutes 25 seconds 501 msec
