
                                 *****************
                                 * O   R   C   A *
                                 *****************

                                            #,                                       
                                            ###                                      
                                            ####                                     
                                            #####                                    
                                            ######                                   
                                           ########,                                 
                                     ,,################,,,,,                         
                               ,,#################################,,                 
                          ,,##########################################,,             
                       ,#########################################, ''#####,          
                    ,#############################################,,   '####,        
                  ,##################################################,,,,####,       
                ,###########''''           ''''###############################       
              ,#####''   ,,,,##########,,,,          '''####'''          '####       
            ,##' ,,,,###########################,,,                        '##       
           ' ,,###''''                  '''############,,,                           
         ,,##''                                '''############,,,,        ,,,,,,###''
      ,#''                                            '''#######################'''  
     '                                                          ''''####''''         
             ,#######,   #######,   ,#######,      ##                                
            ,#'     '#,  ##    ##  ,#'     '#,    #''#        ,####,    ,#,          
            ##       ##  ##   ,#'  ##            #'  '#       #'       ,# #          
            ##       ##  #######   ##           ,######,      #####,      #          
            '#,     ,#'  ##    ##  '#,     ,#' ,#      #,     #,   #      #          
             '#######'   ##     ##  '#######'  #'      '#     '####' #    #          



                #########################################################
                #                        -***-                          #
                #          Department of theory and spectroscopy        #
                #                                                       #
                #                      Frank Neese                      #
                #                                                       #
                #     Directorship, Architecture, Infrastructure        #
                #                    SHARK, DRIVERS                     #
                #        Core code/Algorithms in most modules           #
                #                                                       #
                #        Max Planck Institute fuer Kohlenforschung      #
                #                Kaiser Wilhelm Platz 1                 #
                #                 D-45470 Muelheim/Ruhr                 #
                #                      Germany                          #
                #                                                       #
                #                  All rights reserved                  #
                #                        -***-                          #
                #########################################################


                         Program Version 6.1.0  -  RELEASE   -
                                (GIT: $679e74b$)
                          ($2025-06-10 18:02:51 +0200$)


 With contributions from (in alphabetic order):
[Max-Planck-Institut fuer Kohlenforschung]                               
  Daniel Aravena         : Magnetic Suceptibility                        
  Michael Atanasov       : Ab Initio Ligand Field Theory (pilot matlab implementation)
  Alexander A. Auer      : GIAO ZORA, VPT2 properties, NMR spectrum      
  Ute Becker             : All parallelization in ORCA, NUMFREQ, NUMCALC 
  Giovanni Bistoni       : ED, misc. LED, open-shell LED, HFLD           
  Dmytro Bykov           : pre 5.0 version of the SCF Hessian            
  Marcos Casanova-Páez   : Triplet and SCS-CIS(D). UHF-(DLPNO)-IP/EA/STEOM-CCSD. UHF-CVS-IP/STEOM-CCSD   
  Vijay G. Chilkuri      : MRCI spin determinant printing, contributions to CSF-ICE 
  Pauline Colinet        : FMM embedding                                 
  Dipayan Datta          : RHF DLPNO-CCSD density                        
  Achintya Kumar Dutta   : EOM-CC, STEOM-CC                              
  Nicolas Foglia         : Exact transition moments, OPA infrastructure, MCD improvements    
  Dmitry Ganyushin       : Spin-Orbit,Spin-Spin,Magnetic field MRCI      
  Miquel Garcia-Rates    : C-PCM and meta-GGA Hessian, CCSD/C-PCM, Gaussian charge scheme 
  Tiago L. C. Gouveia    : GS-ROHF, GS-ROCIS                             
  Yang Guo               : DLPNO-NEVPT2, F12-NEVPT2, CIM, IAO-localization        
  Andreas Hansen         : Spin unrestricted coupled pair/coupled cluster methods 
  Ingolf Harden          : AUTO-CI MPn and infrastructure                
  Benjamin Helmich-Paris : MC-RPA, TRAH-(SCF,CASSCF), AVAS, COSX integrals, SCF dyn. polar., MC-PDFT, srDFT 
  Lee Huntington         : MR-EOM, pCC                                   
  Robert Izsak           : Overlap fitted RIJCOSX, COSX-SCS-MP3, EOM     
  Riya Kayal             : Wick's Theorem for AUTO-CI, AUTO-CI UHF-CCSDT 
  Emily Kempfer          : AUTO-CI RHF CISDT and CCSDT, approximate NEVPT4
  Christian Kollmar      : KDIIS, OOCD, Brueckner-CCSD(T), CCSD density, CASPT2, CASPT2-K, improved NEVPT2 
  Axel Koslowski         : Symmetry handling                             
  Simone Kossmann        : meta-GGA functionals, TD-DFT gradient, OOMP2, (MP2 Hessian; deprecated post 5.0) 
  Lucas Lang             : DCDCAS, Hyperfine gauge corrections, ICE-SOC+SSC
  Marvin Lechner         : AUTO-CI (C++ implementation), FIC-MRCC        
  Spencer Leger          : CASSCF response                               
  Dagmar Lenk            : GEPOL surface, SMD, ORCA-2-JSON               
  Dimitrios Liakos       : Extrapolation schemes; Compound Job, Property file
  Dimitrios Manganas     : Further ROCIS development; embedding schemes. LFT, Crystal Embedding 
  Dimitrios Pantazis     : SARC Basis sets                               
  Anastasios Papadopoulos: AUTO-CI, single reference methods and gradients 
  Taras Petrenko         : pre 6.0 DFT Hessian and TD-DFT gradient,  ECA, NRVS 
  Petra Pikulova         : Analytic Raman intensities                    
  Peter Pinski           : DLPNO-MP2, DLPNO-MP2 Gradient                 
  Shashank Vittal Rao    : ES-AILFT, MagRelax                            
  Christoph Reimann      : Effective Core Potentials                     
  Marius Retegan         : Local ZFS, SOC                                
  Christoph Riplinger    : Optimizer, TS searches, QM/MM, DLPNO-CCSD(T), (RO)-DLPNO pert. Triples 
  Michael Roemelt        : Original ROCIS implementation, recursive CI coupling coefficients
  Masaaki Saitow         : Open-shell DLPNO-CCSD energy and density      
  Barbara Sandhoefer     : DKH picture change effects                    
  Yorick L. A. Schmerwitz: GMF and freeze-and-release deltaSCF, NEB S-IDPP initial path                    
  Kantharuban Sivalingam : CASSCF convergence/infrastructure, NEVPT2, NEVPT3, NEVPT4(SD), FIC-MRCI and CEPA variants
  Bernardo de Souza      : ESD, SOC TD-DFT                               
  Georgi L. Stoychev     : AutoAux, RI-MP2 NMR, DLPNO-MP2 response, X2C  
  Van Anh Tran           : RI-MP2 g-tensors                              
  Willem Van den Heuvel  : Paramagnetic NMR                              
  Zikuan Wang            : NOTCH, Electric field optimization            
  Frank Wennmohs         : Technical directorship and infrastructure     
  Hang Xu                : AUTO-CI-Response properties                   
                                                                         
[FACCTs GmbH]                                                            
  Markus Bursch, Nicolas Foglia, Miquel Garcia-Rates, Ingolf Harden, Hagen Neugebauer, Anastasios Papadopoulos, 
  Christoph Riplinger, Bernardo de Souza, Georgi L. Stoychev                                                    
                                                                 
  APM, various basis sets, CI-OPT, improved COSX, DLPNO-Multilevel,           
  DOCKER, DRACO, updates on ESD, Fragmentator, GOAT, IRC, LR-CPCM, L-BFGS, MBIS, meta-GGA TD-DFT gradient, ML-optimized integration grids, 
  MM, NACMEs, nearIR, NEB, NEB-TS, NL-DFT gradient (VV10), 2- and 3-layer-ONIOM, interface openCOSMO-RS, QMMM,   
  Crystal-QMMM, RESP, rigid body optimization, SF, symmetry and pop. for TD-DFT, various functionals, SOLVATOR                                   
                                                                         
[Other institutions]                                                     
  V. Asgeirsson          : NEB                                           
  Christoph Bannwarth    : sTDA-DFT, sTD-DFT, PBEh-3c, B97-3c, D3        
  Giovanni Bistoni       : ETS/NOCV, ADLD/ADEX, COVALED                  
  Martin Brehm           : Molecular dynamics                            
  Ronald Cardenas        : ETS/NOCV                                      
  Martina Colucci        : COVALED                                       
  Sebastian Ehlert       : rSCAN, r2SCAN, r2SCAN-3c, D4, dhf basis sets  
  Marvin Friede          : D4 for Fr, Ra, Ac-Lr                          
  Lars Goerigk           : TD-DFT with DH, B97 family of functionals     
  Stefan Grimme          : VdW corrections, initial TS optimization, DFT functionals, gCP, sTDA/sTD-DF 
  Waldemar Hujo          : DFT-NL                                        
  H. Jonsson             : NEB                                           
  Holger Kruse           : gCP                                           
  Marcel Mueller         : wB97X-3c, vDZP basis set                      
  Hagen Neugebauer       : wr2SCAN, Native XTB                           
  Gianluca Regni         : ADLD/ADEX                                     
  Tobias Risthaus        : pre 6.0 range-separated hybrid DFT and stability analysis
  Lukas Wittmann         : regularized MP2, r2SCAN double-hybrids, wr2SCAN        
                                                                         
We gratefully acknowledge several colleagues who have allowed us to      
interface, adapt or use parts of their codes:                            
  Ed Valeev, F. Pavosevic, A. Kumar             : LibInt (2-el integral package), F12 methods 
  Garnet Chan, S. Sharma, J. Yang, R. Olivares  : DMRG                   
  Ulf Ekstrom                                   : XCFun DFT Library      
  Mihaly Kallay                                 : mrcc  (arbitrary order and MRCC methods)
  Frank Weinhold                                : gennbo (NPA and NBO analysis)           
  Simon Mueller                                 : openCOSMO-RS                            
  Christopher J. Cramer and Donald G. Truhlar   : smd solvation model                     
  S Lehtola, MJT Oliveira, MAL Marques          : LibXC Library                           
  Liviu Ungur et al                             : ANISO software                          


 Your calculation uses the libint2 library for the computation of 2-el integrals
 For citations please refer to: http://libint.valeyev.net

 Your ORCA version has been built with support for libXC version: 7.0.0
 For citations please refer to: https://libxc.gitlab.io

 This ORCA versions uses:
   CBLAS   interface :  Fast vector & matrix operations
   LAPACKE interface :  Fast linear algebra routines
   SCALAPACK package :  Parallel linear algebra routines
   Shared memory     :  Shared parallel matrices
   BLAS/LAPACK       :  OpenBLAS 0.3.29  USE64BITINT DYNAMIC_ARCH NO_AFFINITY SkylakeX SINGLE_THREADED
        Core in use  :  SkylakeX
   Copyright (c) 2011-2014, The OpenBLAS Project


  ***********************************
  * Starting time: Thu Mar 12 13:07:17 2026
  * Host name:     midway3-login4.rcc.local
  * Process ID:    2927088
  * Working dir.:  /home/rzhu16/orca_TS_search/sn2_f_cl/DFT_test
  ***********************************

Your calculation utilizes the geometrical counterpoise correction gCP
Please cite in your paper:
H.Kruse, S. Grimme J.Chem.Phys., 136, (2012), 154101 
   

Your calculation utilizes the atom-pairwise dispersion correction
based on EEQ partial charges (D4)


================================================================================

----- Orbital basis set information -----
Your calculation utilizes the basis: def2-mTZVPP
   Stefan Grimme, Andreas Hansen, Sebastian Ehlert, and Jan-Michael Mewes 
   J. Chem. Phys. 154, 064103 (2021). DOI: 10.1063/5.0040021

----- AuxJ basis set information -----
Your calculation utilizes the basis: def2-mTZVPP/J
   Stefan Grimme, Andreas Hansen, Sebastian Ehlert, and Jan-Michael Mewes 
   J. Chem. Phys. 154, 000000 (2021). DOI: 10.1063/5.0040021

================================================================================
                                        WARNINGS
                       Please study these warnings very carefully!
================================================================================



WARNING: SCAN, rSCAN, or r2SCAN functional requested.
  ===> : libXC variant has now been activated.



WARNING: Geometry Optimization
  ===> : Switching off AutoStart
         For restart on a previous wavefunction, please use MOREAD

================================================================================
                                       INPUT FILE
================================================================================
NAME = product_optfreq.inp
|  1> ! r2SCAN-3c Opt Freq PAL8 TightSCF
|  2> 
|  3> %pal
|  4>    nprocs 8
|  5> end
|  6> 
|  7> %scf
|  8>    MaxIter 150
|  9> end
| 10> 
| 11> * xyz -1 1
| 12>   C       0.322915      0.186064     -0.329677
| 13>   H       0.413279      1.268730     -0.291283
| 14>   H       1.306816     -0.274687     -0.292163
| 15>   H      -0.287524     -0.167680      0.547872
| 16>   F      -0.638078     -0.370174      2.134345
| 17>   Cl     -0.376558     -0.217992     -1.911267
| 18> *
| 19> 
| 20>                          ****END OF INPUT****
================================================================================

                       *****************************
                       * Geometry Optimization Run *
                       *****************************

Geometry optimization settings:
Update method            Update   .... BFGS
Choice of coordinates    CoordSys .... (2022) Redundant Internals
Initial Hessian          InHess   .... Almloef's Model
Max. no of cycles        MaxIter  .... 50

Convergence Tolerances:
Energy Change            TolE     ....  5.0000e-06 Eh
Max. Gradient            TolMAXG  ....  3.0000e-04 Eh/bohr
RMS Gradient             TolRMSG  ....  1.0000e-04 Eh/bohr
Max. Displacement        TolMAXD  ....  4.0000e-03 bohr
RMS Displacement         TolRMSD  ....  2.0000e-03 bohr
Strict Convergence                .... False

------------------------------------------------------------------------------
                        ORCA OPTIMIZATION COORDINATE SETUP
------------------------------------------------------------------------------

The optimization will be done in redundant internal coordinates (2022)
Making redundant internal coordinates   ...  (2022 redundants) done
Evaluating the initial hessian          ...  (Almloef) done
Evaluating the coordinates              ...  done
Calculating the B-matrix                .... done
Calculating the G-matrix                .... done
The number of degrees of freedom        ....   16

    -----------------------------------------------------------------
                    Redundant Internal Coordinates


    -----------------------------------------------------------------
         Definition                    Initial Value    Approx d2E/dq
    -----------------------------------------------------------------
      1. B(H   1,C   0)                  1.0871         0.363945   
      2. B(H   2,C   0)                  1.0871         0.363973   
      3. B(H   3,C   0)                  1.1260         0.315498   
      4. B(F   4,H   3)                  1.6373         0.040128   
      5. B(Cl  5,H   3)                  2.4613         0.010000   
      6. B(Cl  5,C   0)                  1.7759         0.339623   
      7. A(H   1,C   0,H   3)          109.2941         0.285360   
      8. A(H   1,C   0,H   2)          110.2218         0.291816   
      9. A(H   1,C   0,Cl  5)          106.9046         0.333170   
     10. A(H   2,C   0,Cl  5)          106.9045         0.333174   
     11. A(H   3,C   0,Cl  5)          114.1461         0.325401   
     12. A(H   2,C   0,H   3)          109.3067         0.285363   
     13. A(C   0,H   3,F   4)          155.5167         0.205883   
     14. D(F   4,H   3,C   0,H   2)     60.4371         0.096255   
     15. D(F   4,H   3,C   0,Cl  5)   -179.9134         0.096255   
     16. D(F   4,H   3,C   0,H   1)    -60.2727         0.096255   
    -----------------------------------------------------------------

Number of atoms                         .... 6
Number of degrees of freedom            .... 16


         *************************************************************
         *                GEOMETRY OPTIMIZATION CYCLE   1            *
         *************************************************************
---------------------------------
CARTESIAN COORDINATES (ANGSTROEM)
---------------------------------
  C      0.322915    0.186064   -0.329677
  H      0.413279    1.268730   -0.291283
  H      1.306816   -0.274687   -0.292163
  H     -0.287524   -0.167680    0.547872
  F     -0.638078   -0.370174    2.134345
  Cl    -0.376558   -0.217992   -1.911267

----------------------------
CARTESIAN COORDINATES (A.U.)
----------------------------
  NO LB      ZA    FRAG     MASS         X           Y           Z
   0 C     6.0000    0    12.011    0.610221    0.351610   -0.622999
   1 H     1.0000    0     1.008    0.780984    2.397552   -0.550445
   2 H     1.0000    0     1.008    2.469524   -0.519083   -0.552108
   3 H     1.0000    0     1.008   -0.543342   -0.316869    1.035328
   4 F     9.0000    0    18.998   -1.205793   -0.699527    4.033328
   5 Cl   17.0000    0    35.453   -0.711591   -0.411945   -3.611771

--------------------------------
INTERNAL COORDINATES (ANGSTROEM)
--------------------------------
 C      0   0   0     0.000000000000     0.00000000     0.00000000
 H      1   0   0     1.087108743083     0.00000000     0.00000000
 H      1   2   0     1.087087835457   110.22182605     0.00000000
 H      1   2   3     1.125994155250   109.29406207   120.14998505
 F      4   1   2     1.637311365221   155.51674089   299.72728491
 Cl     1   2   3     1.775936557697   106.90459894   244.16243543

---------------------------
INTERNAL COORDINATES (A.U.)
---------------------------
 C      0   0   0     0.000000000000     0.00000000     0.00000000
 H      1   0   0     2.054337802219     0.00000000     0.00000000
 H      1   2   0     2.054298292530   110.22182605     0.00000000
 H      1   2   3     2.127820581819   109.29406207   120.14998505
 F      4   1   2     3.094070076224   155.51674089   299.72728491
 Cl     1   2   3     3.356033725266   106.90459894   244.16243543

---------------------
BASIS SET INFORMATION
---------------------
There are 4 groups of distinct atoms

 Group   1 Type C   : 11s6p1d contracted to 5s3p1d pattern {62111/411/1}
 Group   2 Type H   : 4s1p contracted to 2s1p pattern {31/1}
 Group   3 Type F   : 11s6p2d contracted to 5s3p2d pattern {62111/411/11}
 Group   4 Type Cl  : 14s9p2d contracted to 5s4p2d pattern {73211/6111/11}

Atom   0C    basis set group =>   1
Atom   1H    basis set group =>   2
Atom   2H    basis set group =>   2
Atom   3H    basis set group =>   2
Atom   4F    basis set group =>   3
Atom   5Cl   basis set group =>   4
---------------------------------
AUXILIARY/J BASIS SET INFORMATION
---------------------------------
There are 4 groups of distinct atoms

 Group   1 Type C   : 8s3p3d contracted to 6s3p3d pattern {311111/111/111}
 Group   2 Type H   : 5s2p1d contracted to 3s1p1d pattern {311/2/1}
 Group   3 Type F   : 8s3p4d contracted to 6s3p4d pattern {311111/111/1111}
 Group   4 Type Cl  : 14s5p5d2f contracted to 8s4p3d1f pattern {71111111/2111/311/2}

Atom   0C    basis set group =>   1
Atom   1H    basis set group =>   2
Atom   2H    basis set group =>   2
Atom   3H    basis set group =>   2
Atom   4F    basis set group =>   3
Atom   5Cl   basis set group =>   4


           ************************************************************
           *        Program running with 8 parallel MPI-processes     *
           *              working on a common directory               *
           ************************************************************
------------------------------------------------------------------------------
                             ORCA STARTUP CALCULATIONS
                           -- RI-GTO INTEGRALS CHOSEN --
------------------------------------------------------------------------------
------------------------------------------------------------------------------
                   ___                                                        
                  /   \      - P O W E R E D   B Y -                         
                 /     \                                                     
                 |  |  |   _    _      __       _____    __    __             
                 |  |  |  | |  | |    /  \     |  _  \  |  |  /  |          
                  \  \/   | |  | |   /    \    | | | |  |  | /  /          
                 / \  \   | |__| |  /  /\  \   | |_| |  |  |/  /          
                |  |  |   |  __  | /  /__\  \  |    /   |      \           
                |  |  |   | |  | | |   __   |  |    \   |  |\   \          
                \     /   | |  | | |  |  |  |  | |\  \  |  | \   \       
                 \___/    |_|  |_| |__|  |__|  |_| \__\ |__|  \__/        
                                                                              
                      - O R C A' S   B I G   F R I E N D -                    
                                      &                                       
                       - I N T E G R A L  F E E D E R -                       
                                                                              
 v1 FN, 2020, v2 2021, v3 2022-2024                                           
------------------------------------------------------------------------------


----------------------
SHARK INTEGRAL PACKAGE
----------------------

Number of atoms                             ...      6
Number of basis functions                   ...     85
Number of shells                            ...     39
Maximum angular momentum                    ...      2
Integral batch strategy                     ... SHARK/LIBINT Hybrid
RI-J (if used) integral strategy            ... SPLIT-RIJ (Revised 2003 algorithm where possible)
Printlevel                                  ...      1
Contraction scheme used                     ... SEGMENTED contraction
Prescreening option                         ... SCHWARTZ
   Thresh                                   ... 2.500e-11
   Tcut                                     ... 2.500e-12
   Tpresel                                  ... 2.500e-12 
Coulomb Range Separation                    ... NOT USED
Exchange Range Separation                   ... NOT USED
Multipole approximations                    ... NOT USED
Finite Nucleus Model                        ... NOT USED
CABS basis                                  ... NOT available
Auxiliary Coulomb fitting basis             ... AVAILABLE
   # of basis functions in Aux-J            ...    140
   # of shells in Aux-J                     ...     56
   Maximum angular momentum in Aux-J        ...      3
Auxiliary J/K fitting basis                 ... NOT available
Auxiliary Correlation fitting basis         ... NOT available
Auxiliary 'external' fitting basis          ... NOT available

Checking pre-screening integrals            ... done (  0.0 sec) Dimension = 39
   => SHARK Basis and OBASIS are compatible. Storing Pre-screening
Shell pair information
Shell pair cut-off parameter TPreSel        ...   2.5e-12
Total number of shell pairs                 ...       780
Shell pairs after pre-screening             ...       725
Total number of primitive shell pairs       ...      3096
Primitive shell pairs kept                  ...      2250
          la=0 lb=0:    209 shell pairs
          la=1 lb=0:    253 shell pairs
          la=1 lb=1:     88 shell pairs
          la=2 lb=0:     98 shell pairs
          la=2 lb=1:     62 shell pairs
          la=2 lb=2:     15 shell pairs

Checking whether 4 symmetric matrices of dimension 85 fit in memory
:Max Core in MB      =   4096.00
 MB in use           =      2.91
 MB left             =   4093.09
 MB needed           =      0.11
 Data fit in memory  = YES
Calculating RI/J V-Matrix + Cholesky decomp.... done (  0.0 sec)
Calculating Nuclear repulsion               ... done (  0.0 sec) ENN=     87.794106273156 Eh

Diagonalization of the overlap matrix:
Smallest eigenvalue                        ... 5.356e-03
Time for diagonalization                   ...    0.001 sec
Threshold for overlap eigenvalues          ... 1.000e-07
Number of eigenvalues below threshold      ... 0
Time for construction of square roots      ...    0.001 sec
Total time needed                          ...    0.079 sec

-------------------
DFT GRID GENERATION
-------------------

General Integration Accuracy     IntAcc      ... 4.388
Radial Grid Type                 RadialGrid  ... OptM3 with GC (2021)
Angular Grid (max. ang.)         AngularGrid ... 4 (Lebedev-302)
Angular grid pruning method      GridPruning ... 4 (adaptive)
Weight generation scheme         WeightScheme... mBecke (2022)
Basis function cutoff            BFCut       ... 1.0000e-11
Integration weight cutoff        WCut        ... 1.0000e-14
Partially contracted basis set               ... off
Rotationally invariant grid construction     ... off
Angular grids for H and He will be reduced by one unit

Total number of grid points                  ...    29391
Total number of batches                      ...      462
Average number of points per batch           ...       63
Average number of grid points per atom       ...     4898
Grids setup in   0.4 sec
Initializing property integral containers    ... done (  0.0 sec)

SHARK setup successfully completed in   0.9 seconds

Maximum memory used throughout the entire STARTUP-calculation: 9.8 MB


           ************************************************************
           *        Program running with 8 parallel MPI-processes     *
           *              working on a common directory               *
           ************************************************************
-------------------------------------------------------------------------------
                                 ORCA GUESS
                   Start orbitals & Density for SCF / CASSCF
-------------------------------------------------------------------------------

------------
SCF SETTINGS
------------
Hamiltonian:
 Density Functional     Method          .... DFT(GTOs)
  Functional kind                       .... Exchange
  Functional name                       .... Re-regularized SCAN exchange by Furness et al
  Functional family                     .... MGGA
  Functional refs                              
    [ 0] J. W. Furness, A. D. Kaplan, J. Ning, J. P. Perdew, and J. Sun.,  J. Phys. Chem. Lett. 11, 8208-8215 (2020), doi: 10.1021/acs.jpclett.0c02405
    [ 1] J. W. Furness, A. D. Kaplan, J. Ning, J. P. Perdew, and J. Sun.,  J. Phys. Chem. Lett. 11, 9248-9248 (2020), doi: 10.1021/acs.jpclett.0c03077
  Functional external parameters        .... 6
    Parameter  0 _c1        =  6.670000e-01 : c1 parameter        
    Parameter  1 _c2        =  8.000000e-01 : c2 parameter        
    Parameter  2 _d         =  1.240000e+00 : d parameter         
    Parameter  3 _k1        =  6.500000e-02 : k1 parameter        
    Parameter  4 _eta       =  1.000000e-03 : eta parameter       
    Parameter  5 _dp2       =  3.610000e-01 : dp2 parameter       
  Functional kind                       .... Correlation
  Functional name                       .... Re-regularized SCAN correlation by Furness et al
  Functional family                     .... MGGA
  Functional refs                              
    [ 0] J. W. Furness, A. D. Kaplan, J. Ning, J. P. Perdew, and J. Sun.,  J. Phys. Chem. Lett. 11, 8208-8215 (2020), doi: 10.1021/acs.jpclett.0c02405
    [ 1] J. W. Furness, A. D. Kaplan, J. Ning, J. P. Perdew, and J. Sun.,  J. Phys. Chem. Lett. 11, 9248-9248 (2020), doi: 10.1021/acs.jpclett.0c03077
  Functional external parameters        .... 1
    Parameter  0 _eta       =  1.000000e-03 : Regularization parameter
 Gradients option       PostSCFGGA      .... off
 RI-approximation to the Coulomb term is turned on
   Number of AuxJ basis functions       .... 140


General Settings:
 Integral files         IntName         .... product_optfreq
 Hartree-Fock type      HFTyp           .... RHF
 Total Charge           Charge          ....   -1
 Multiplicity           Mult            ....    1
 Number of Electrons    NEL             ....   36
 Basis Dimension        Dim             ....   85
 Nuclear Repulsion      ENuc            ....     87.7941062732 Eh

Convergence Acceleration:
 AO-DIIS                CNVDIIS         .... on
   Start iteration      DIISMaxIt       ....    12
   Startup error        DIISStart       ....  0.200000
   # of expansion vecs  DIISMaxEq       ....     5
   Bias factor          DIISBfac        ....   1.050
   Max. coefficient     DIISMaxC        ....  10.000
 MO-DIIS                CNVKDIIS        .... off
 Trust-Rad. Augm. Hess. CNVTRAH         .... auto
   Auto Start mean grad. ratio tolernc. ....  1.125000
   Auto Start start iteration           ....    50
   Auto Start num. interpolation iter.  ....    10
   Max. Number of Micro iterations      ....    24
   Max. Number of Macro iterations      .... Maxiter - #DIIS iter
   Number of Davidson start vectors     ....     2
   Converg. threshold    (grad. norm)   ....   1.000e-05
   Grad. Scal. Fac. for Micro threshold ....   0.100
   Minimum threshold for Micro iter.    ....   1.000e-02
   NR start threshold (gradient norm)   ....   1.000e-04
   Initial trust radius                 ....   0.400
   Minimum AH scaling param. (alpha)    ....   1.000
   Maximum AH scaling param. (alpha)    .... 1000.000
   Quad. conv. algorithm                .... NR
   White noise on init. David. guess    .... on
   Maximum white noise                  ....   0.010
   Pseudo random numbers                .... off
   Inactive MOs                         .... canonical
   Orbital update algorithm             .... Taylor
   Preconditioner                       .... Diag
   Full preconditioner red. dimension   ....   250
   COSX micro iterations for RIJONX calc.... off
 SOSCF                 CNVSOSCF           .... on
   Start iteration     SOSCFMaxIt         ....   150
   Startup grad/error  SOSCFStart         ....  0.003300
   Hessian update      SOSCFHessUp        .... L-BFGS
   Autom. constraints  SOSCFAutoConstrain .... off
 Level Shifting         CNVShift        .... on
   Level shift para.    LevelShift      ....    0.2500
   Turn off err/grad.   ShiftErr        ....    0.0010
 Zerner damping         CNVZerner       .... off
 Static damping         CNVDamp         .... on
   Fraction old density DampFac         ....    0.7000
   Max. Damping (<1)    DampMax         ....    0.9800
   Min. Damping (>=0)   DampMin         ....    0.0000
   Turn off err/grad.   DampErr         ....    0.1000

SCF Procedure:
 Maximum # iterations   MaxIter         ....   150
 SCF integral mode      SCFMode         .... Direct
   Integral package                     .... SHARK and LIBINT hybrid scheme
 Reset frequency        DirectResetFreq ....    20
 Integral Threshold     Thresh          ....  2.500e-11 Eh
 Primitive CutOff       TCut            ....  2.500e-12 Eh

Convergence Tolerance:
 Convergence Check Mode ConvCheckMode   .... Total+1el-Energy
 Convergence forced     ConvForced      .... 0
 Energy Change          TolE            ....  1.000e-08 Eh
 1-El. energy change                    ....  1.000e-05 Eh
 Orbital Gradient       TolG            ....  1.000e-05
 Orbital Rotation angle TolX            ....  1.000e-05
 DIIS Error             TolErr          ....  5.000e-07

------------------------------
INITIAL GUESS: MODEL POTENTIAL
------------------------------
Loading Hartree-Fock densities                     ... done
Calculating cut-offs                               ... done
Initializing the effective Hamiltonian             ... done
Setting up the integral package (SHARK)            ... done
Starting the Coulomb interaction                   ... done (   0.0 sec)
Making the grid                                    ... done (   0.1 sec)
Mapping shells                                     ... done
Starting the XC term evaluation                    ... done (   0.0 sec)
  promolecular density results
     # of electrons  =     34.997829317
     EX              =    -43.291952075
     EC              =     -1.245278094
     EX+EC           =    -44.537230169
Transforming the Hamiltonian                       ... done (   0.0 sec)
Diagonalizing the Hamiltonian                      ... done (   0.0 sec)
Back transforming the eigenvectors                 ... done (   0.0 sec)
Now organizing SCF variables                       ... done
                      ------------------
                      INITIAL GUESS DONE (   0.1 sec)
                      ------------------
             **** ENERGY FILE WAS UPDATED (product_optfreq.en.tmp) ****
Finished Guess after   0.4 sec
Maximum memory used throughout the entire GUESS-calculation: 5.2 MB


           ************************************************************
           *        Program running with 8 parallel MPI-processes     *
           *              working on a common directory               *
           ************************************************************

-------------------------------------------------------------------------------------------
                                      ORCA LEAN-SCF
                              memory conserving SCF solver
-------------------------------------------------------------------------------------------

----------------------------------------D-I-I-S--------------------------------------------
Iteration    Energy (Eh)           Delta-E    RMSDP     MaxDP     DIISErr   Damp  Time(sec)
-------------------------------------------------------------------------------------------
               ***  Starting incremental Fock matrix formation  ***
    1    -599.7776194375023806     0.00e+00  1.37e-02  7.28e-02  3.77e-01  0.700   0.1
Warning: op=0 Small HOMO/LUMO gap (   0.098) - skipping pre-diagonalization
         Will do a full diagonalization
    2    -599.8568003851602271    -7.92e-02  9.35e-03  3.23e-02  1.22e-01  0.700   0.4
                               ***Turning on AO-DIIS***
    3    -599.8830709545427453    -2.63e-02  4.00e-03  2.00e-02  2.79e-02  0.700   0.4
    4    -599.8996334332066453    -1.66e-02  6.40e-03  3.70e-02  1.81e-02  0.000   0.3
    5    -599.9382099515270284    -3.86e-02  1.98e-03  9.38e-03  8.76e-03  0.000   0.2
                              *** Initializing SOSCF ***
---------------------------------------S-O-S-C-F--------------------------------------
Iteration    Energy (Eh)           Delta-E    RMSDP     MaxDP     MaxGrad    Time(sec)
--------------------------------------------------------------------------------------
    6    -599.9385880744813448    -3.78e-04  7.70e-04  3.31e-03  2.19e-03     0.3
               *** Restarting incremental Fock matrix formation ***
    7    -599.9386381672791231    -5.01e-05  9.73e-04  4.60e-03  1.08e-03     0.4
    8    -599.9386457274305258    -7.56e-06  2.68e-04  1.55e-03  1.40e-03     0.5
    9    -599.9386534287618815    -7.70e-06  2.74e-04  1.08e-03  6.14e-04     0.4
   10    -599.9386562919029302    -2.86e-06  6.50e-05  4.53e-04  8.32e-05     0.5
   11    -599.9386564384479925    -1.47e-07  2.36e-05  1.44e-04  5.03e-05     0.4
   12    -599.9386564661440389    -2.77e-08  1.27e-05  5.52e-05  2.53e-05     0.4
   13    -599.9386564726285087    -6.48e-09  3.89e-06  2.13e-05  1.26e-05     0.4
                 **** Energy Check signals convergence ****

               *****************************************************
               *                     SUCCESS                       *
               *           SCF CONVERGED AFTER  13 CYCLES          *
               *****************************************************

             **** ENERGY FILE WAS UPDATED (product_optfreq.en.tmp) ****

----------------
TOTAL SCF ENERGY
----------------

Total Energy       :       -599.93865647382188 Eh          -16325.16080 eV

Components:
Nuclear Repulsion  :         87.79410627315632 Eh            2388.99909 eV
Electronic Energy  :       -687.73276274697821 Eh          -18714.15988 eV
One Electron Energy:      -1011.27183958064415 Eh          -27518.10575 eV
Two Electron Energy:        323.53907683366594 Eh            8803.94586 eV

Virial components:
Potential Energy   :      -1198.49463820230449 Eh          -32612.69710 eV
Kinetic Energy     :        598.55598172848249 Eh           16287.53631 eV
Virial Ratio       :          2.00231001742117

DFT components:
N(Alpha)           :       17.999994695933 electrons
N(Beta)            :       17.999994695933 electrons
N(Total)           :       35.999989391867 electrons
E(X)               :      -44.143848036265 Eh       
E(C)               :       -1.264829208967 Eh       
E(XC)              :      -45.408677245232 Eh       

---------------
SCF CONVERGENCE
---------------

  Last Energy change         ...    6.4845e-09  Tolerance :   1.0000e-08
  Last MAX-Density change    ...    2.1251e-05  Tolerance :   1.0000e-07
  Last RMS-Density change    ...    3.8892e-06  Tolerance :   5.0000e-09
  Last DIIS Error            ...    2.1879e-03  Tolerance :   5.0000e-07
  Last Orbital Gradient      ...    1.2576e-05  Tolerance :   1.0000e-05
  Last Orbital Rotation      ...    1.3965e-05  Tolerance :   1.0000e-05


----------------
ORBITAL ENERGIES
----------------

  NO   OCC          E(Eh)            E(eV) 
   0   2.0000    -101.041196     -2749.4707 
   1   2.0000     -24.057487      -654.6375 
   2   2.0000      -9.885720      -269.0041 
   3   2.0000      -9.197937      -250.2886 
   4   2.0000      -6.943685      -188.9473 
   5   2.0000      -6.934185      -188.6888 
   6   2.0000      -6.934047      -188.6850 
   7   2.0000      -0.692863       -18.8538 
   8   2.0000      -0.646937       -17.6040 
   9   2.0000      -0.453553       -12.3418 
  10   2.0000      -0.237767        -6.4700 
  11   2.0000      -0.220539        -6.0012 
  12   2.0000      -0.210938        -5.7399 
  13   2.0000      -0.108228        -2.9450 
  14   2.0000      -0.103472        -2.8156 
  15   2.0000       0.023765         0.6467 
  16   2.0000       0.024639         0.6705 
  17   2.0000       0.027061         0.7364 
  18   0.0000       0.185519         5.0482 
  19   0.0000       0.264412         7.1950 
  20   0.0000       0.338090         9.1999 
  21   0.0000       0.347580         9.4581 
  22   0.0000       0.364925         9.9301 
  23   0.0000       0.380069        10.3422 
  24   0.0000       0.421164        11.4605 
  25   0.0000       0.459055        12.4915 
  26   0.0000       0.528163        14.3720 
  27   0.0000       0.536389        14.5959 
  28   0.0000       0.573968        15.6185 
*Only the first 10 virtual orbitals were printed.

                    ********************************
                    * MULLIKEN POPULATION ANALYSIS *
                    ********************************

-----------------------
MULLIKEN ATOMIC CHARGES
-----------------------
   0 C :   -0.388402
   1 H :    0.112813
   2 H :    0.112773
   3 H :    0.335204
   4 F :   -0.865117
   5 Cl:   -0.307271
Sum of atomic charges:   -1.0000000

--------------------------------
MULLIKEN REDUCED ORBITAL CHARGES
--------------------------------
  0 C s       :     3.315732  s :     3.315732
      pz      :     0.872000  p :     3.041959
      px      :     1.105865
      py      :     1.064095
      dz2     :     0.010330  d :     0.030710
      dxz     :     0.006472
      dyz     :     0.004125
      dx2y2   :     0.006581
      dxy     :     0.003202

  1 H s       :     0.868473  s :     0.868473
      pz      :     0.003362  p :     0.018714
      px      :     0.004043
      py      :     0.011309

  2 H s       :     0.868513  s :     0.868513
      pz      :     0.003361  p :     0.018714
      px      :     0.010159
      py      :     0.005194

  3 H s       :     0.638889  s :     0.638889
      pz      :     0.016516  p :     0.025907
      px      :     0.005547
      py      :     0.003843

  4 F s       :     3.991020  s :     3.991020
      pz      :     1.917265  p :     5.871889
      px      :     1.974156
      py      :     1.980468
      dz2     :     0.001583  d :     0.002208
      dxz     :     0.000350
      dyz     :     0.000235
      dx2y2   :     0.000021
      dxy     :     0.000020

  5 Cls       :     5.927717  s :     5.927717
      pz      :     3.488252  p :    11.324610
      px      :     3.883562
      py      :     3.952797
      dz2     :     0.020735  d :     0.054944
      dxz     :     0.014252
      dyz     :     0.012145
      dx2y2   :     0.004515
      dxy     :     0.003296



                     *******************************
                     * LOEWDIN POPULATION ANALYSIS *
                     *******************************

----------------------
LOEWDIN ATOMIC CHARGES
----------------------
   0 C :   -0.488858
   1 H :    0.129350
   2 H :    0.129322
   3 H :    0.225896
   4 F :   -0.877905
   5 Cl:   -0.117806

-------------------------------
LOEWDIN REDUCED ORBITAL CHARGES
-------------------------------
  0 C s       :     3.077081  s :     3.077081
      pz      :     1.013783  p :     3.339705
      px      :     1.166531
      py      :     1.159391
      dz2     :     0.023729  d :     0.072072
      dxz     :     0.014856
      dyz     :     0.008717
      dx2y2   :     0.016840
      dxy     :     0.007930

  1 H s       :     0.826036  s :     0.826036
      pz      :     0.007581  p :     0.044614
      px      :     0.009334
      py      :     0.027698

  2 H s       :     0.826061  s :     0.826061
      pz      :     0.007579  p :     0.044617
      px      :     0.024937
      py      :     0.012100

  3 H s       :     0.687217  s :     0.687217
      pz      :     0.057706  p :     0.086886
      px      :     0.018342
      py      :     0.010839

  4 F s       :     3.973070  s :     3.973070
      pz      :     1.919136  p :     5.881130
      px      :     1.977280
      py      :     1.984713
      dz2     :     0.017681  d :     0.023706
      dxz     :     0.004074
      dyz     :     0.001656
      dx2y2   :     0.000134
      dxy     :     0.000162

  5 Cls       :     5.700208  s :     5.700208
      pz      :     3.501101  p :    11.301541
      px      :     3.870056
      py      :     3.930384
      dz2     :     0.048046  d :     0.116057
      dxz     :     0.030569
      dyz     :     0.022890
      dx2y2   :     0.007942
      dxy     :     0.006610



                      *****************************
                      * MAYER POPULATION ANALYSIS *
                      *****************************

  NA   - Mulliken gross atomic population
  ZA   - Total nuclear charge
  QA   - Mulliken gross atomic charge
  VA   - Mayer's total valence
  BVA  - Mayer's bonded valence
  FA   - Mayer's free valence

  ATOM       NA         ZA         QA         VA         BVA        FA
  0 C      6.3884     6.0000    -0.3884     3.7687     3.7687     0.0000
  1 H      0.8872     1.0000     0.1128     0.9638     0.9638     0.0000
  2 H      0.8872     1.0000     0.1128     0.9638     0.9638     0.0000
  3 H      0.6648     1.0000     0.3352     0.9083     0.9083     0.0000
  4 F      9.8651     9.0000    -0.8651     0.2201     0.2201    -0.0000
  5 Cl    17.3073    17.0000    -0.3073     0.9265     0.9265     0.0000

  Mayer bond orders larger than 0.100000
B(  0-C ,  1-H ) :   0.9705 B(  0-C ,  2-H ) :   0.9705 B(  0-C ,  3-H ) :   0.8095 
B(  0-C ,  4-F ) :   0.1152 B(  0-C ,  5-Cl) :   0.9030 

-------
TIMINGS
-------

Total SCF time: 0 days 0 hours 0 min 5 sec 

Total time                  ....       5.589 sec
Sum of individual times     ....       5.339 sec  ( 95.5%)

SCF preparation             ....       0.489 sec  (  8.7%)
Fock matrix formation       ....       3.474 sec  ( 62.2%)
  Startup                   ....       0.024 sec  (  0.7% of F)
  Split-RI-J                ....       0.567 sec  ( 16.3% of F)
  XC integration            ....       2.631 sec  ( 75.7% of F)
    XC Preparation          ....       0.000 sec  (  0.0% of XC)
    Basis function eval.    ....       0.370 sec  ( 14.1% of XC)
    Density eval.           ....       0.625 sec  ( 23.7% of XC)
    XC-Functional eval.     ....       0.301 sec  ( 11.5% of XC)
    XC-Potential eval.      ....       0.407 sec  ( 15.5% of XC)
Diagonalization             ....       0.000 sec  (  0.0%)
Density matrix formation    ....       0.054 sec  (  1.0%)
Total Energy calculation    ....       0.031 sec  (  0.6%)
Population analysis         ....       0.064 sec  (  1.2%)
Orbital Transformation      ....       0.107 sec  (  1.9%)
Orbital Orthonormalization  ....       0.000 sec  (  0.0%)
DIIS solution               ....       0.466 sec  (  8.3%)
SOSCF solution              ....       0.654 sec  ( 11.7%)
Finished LeanSCF after   5.6 sec

Maximum memory used throughout the entire LEANSCF-calculation: 4.8 MB


           ************************************************************
           *        Program running with 8 parallel MPI-processes     *
           *              working on a common directory               *
           ************************************************************

------------------------------------------------------------------------------
                         ORCA PROPERTY INTEGRAL CALCULATIONS
------------------------------------------------------------------------------

GBWName                                   ... product_optfreq.gbw
Number of atoms                           ...      6
Number of basis functions                 ...     85
Max core memory                           ...   4096 MB

Dipole integrals                          ... YES
Quadrupole integrals                      ...  NO
Linear momentum integrals                 ...  NO
Angular momentum integrals                ...  NO
Higher moments length integrals           ...  NO
Higher moments velocity integrals         ...  NO
Kinetic energy integrals                  ...  NO
GIAO right hand sides                     ...  NO
GIAO dipole derivative integrals          ...  NO
SOC integrals                             ...  NO
EPR diamagnetic integrals (GIAO)          ...  NO
EPR gauge integrals                       ...  NO
Field gradient integrals                  ...  NO (   0 nuclei)
Spin-dipole/Fermi contact integrals       ...  NO (   0 nuclei)
Contact density integrals                 ...  NO (   0 nuclei)
Nucleus-orbit integrals                   ...  NO (   0 nuclei)
Geometric perturbations                   ...  NO (   6 nuclei)

Choice of electric origin   ... Center of mass
Position of electric origin ... ( -0.5480, -0.3180, -0.8487) 
Choice of magnetic origin   ... GIAO
Position of magnetic origin ... (  0.0000,  0.0000,  0.0000) 

Calculating integrals                     ... Electric Dipole (Length)     done (  0.1 sec)

Property integrals calculated in   0.1 sec

Maximum memory used throughout the entire PROPINT-calculation: 5.4 MB


-------------------------------------------------------------------------------
                          DFT DISPERSION CORRECTION                            
                                                                               
                                DFTD4 V3.4.0                                   
-------------------------------------------------------------------------------
The R2SCAN3C composite method is recognized
Using three-body term ABC
Active option DFTDOPT                   ...         5   

-------------------------   ----------------
Dispersion correction           -0.000826042
-------------------------   ----------------

------------------   -----------------
gCP correction             0.006962068
------------------   -----------------

-------------------------   --------------------
FINAL SINGLE POINT ENERGY      -599.932520447902
-------------------------   --------------------



           ************************************************************
           *        Program running with 8 parallel MPI-processes     *
           *              working on a common directory               *
           ************************************************************
------------------------------------------------------------------------------
                         ORCA SCF GRADIENT CALCULATION
------------------------------------------------------------------------------

Nuc. rep. gradient        (SHARK) ... done (  0.0 sec)
HCore & Overlap gradient  (SHARK) ... done (  0.1 sec)
Split-RIJ-J gradient      (SHARK) ... done (  0.5 sec)
XC gradient                       ... done (  0.6 sec)
Dispersion correction             ... done (  0.2 sec)

-------------------
DISPERSION GRADIENT
-------------------

   1   C   :    0.000008473    0.000004899    0.000003319
   2   H   :    0.000001487   -0.000001046   -0.000003567
   3   H   :   -0.000000163    0.000001810   -0.000003569
   4   H   :    0.000002176    0.000001262   -0.000000322
   5   F   :   -0.000009597   -0.000005561    0.000043581
   6   Cl  :   -0.000002376   -0.000001364   -0.000039442

Difference to translation invariance:
           :    0.0000000000    0.0000000000    0.0000000000

Difference to rotation invariance:
           :   -0.0000000000    0.0000000000   -0.0000000000

Norm of the Dispersion gradient    ...    0.0000610802
RMS gradient                       ...    0.0000143967
MAX gradient                       ...    0.0000435809
gCP correction                   ... done

------------------
CARTESIAN GRADIENT
------------------

   1   C   :   -0.007477169   -0.004324952   -0.018357104
   2   H   :   -0.001969441   -0.004148231   -0.000657506
   3   H   :   -0.004593991    0.000362214   -0.000648591
   4   H   :    0.002265015    0.001318129   -0.007478797
   5   F   :    0.000353454    0.000200088    0.001325685
   6   Cl  :    0.011422131    0.006592752    0.025816312

Difference to translation invariance:
           :   -0.0000000000   -0.0000000000   -0.0000000000

Difference to rotation invariance:
           :   -0.0000247715    0.0000179515    0.0000032892

Norm of the Cartesian gradient     ...    0.0368769033
RMS gradient                       ...    0.0086919695
MAX gradient                       ...    0.0258163124

-------
TIMINGS
-------

Total SCF gradient time     ....        1.495 sec

Densities                   ....       0.000 sec  (  0.0%)
One electron gradient       ....       0.087 sec  (  5.8%)
RI-J Coulomb gradient       ....       0.515 sec  ( 34.5%)
XC gradient                 ....       0.596 sec  ( 39.9%)

Maximum memory used throughout the entire SCFGRAD-calculation: 25.1 MB
------------------------------------------------------------------------------
                         ORCA GEOMETRY RELAXATION STEP
------------------------------------------------------------------------------

Reading the OPT-File                    .... done
Getting information on internals        .... done
Copying old internal coords+grads       .... done
Making the new internal coordinates     .... (2022 redundants) done
Validating the new internal coordinates .... (2022 redundants) done
Calculating the B-matrix                .... done
Calculating the G,G- and P matrices     .... done
Transforming gradient to internals      .... done
Projecting the internal gradient        .... done
Number of atoms                         ....   6
Number of internal coordinates          ....  16
Current Energy                          ....  -599.932520448 Eh
Current gradient norm                   ....     0.036876903 Eh/bohr
Maximum allowed component of the step   ....  0.300
Current trust radius                    ....  0.300
Evaluating the initial hessian          ....  (Almloef) done
Projecting the Hessian                  .... done
Forming the augmented Hessian           .... done
Diagonalizing the augmented Hessian     .... done
Last element of RFO vector              ....  0.992214360
Lowest eigenvalues of augmented Hessian:
 -0.002681262  0.040160268  0.089436811  0.096255084  0.205906130
Length of the computed step             ....  0.125519061
The final length of the internal step   ....  0.125519061
Converting the step to Cartesian space:
 Initial RMS(Int)=    0.0313797653
Transforming coordinates:
 Iter   0:  RMS(Cart)=    0.0201082136 RMS(Int)=    0.0314117993
done
Storing new coordinates                 .... done

                                .--------------------.
          ----------------------|Geometry convergence|-------------------------
          Item                value                   Tolerance       Converged
          ---------------------------------------------------------------------
          RMS gradient        0.0064884706            0.0001000000      NO
          MAX gradient        0.0215452776            0.0003000000      NO
          RMS step            0.0313797653            0.0020000000      NO
          MAX step            0.0862942952            0.0040000000      NO
          -------------------------------------------------------------------------
          ........................................................
          Max(Bonds)      0.0457      Max(Angles)    0.61
          Max(Dihed)        0.24      Max(Improp)    0.00
          ---------------------------------------------------------------------

The optimization has not yet converged - more geometry cycles are needed


    ---------------------------------------------------------------------------
                         Redundant Internal Coordinates
                            (Angstroem and degrees)

        Definition                    Value    dE/dq     Step     New-Value
    ----------------------------------------------------------------------------
     1. B(H   1,C   0)                1.0871 -0.004318  0.0062    1.0933   
     2. B(H   2,C   0)                1.0871 -0.004334  0.0063    1.0933   
     3. B(H   3,C   0)                1.1260 -0.000525  0.0098    1.1358   
     4. B(F   4,H   3)                1.6373  0.001184 -0.0146    1.6227   
     5. B(Cl  5,H   3)                2.4613 -0.008193  0.0457    2.5069   
     6. B(Cl  5,C   0)                1.7759 -0.021545  0.0433    1.8192   
     7. A(H   1,C   0,H   3)          109.29 -0.001915    0.07    109.37   
     8. A(H   1,C   0,H   2)          110.22  0.001399   -0.46    109.76   
     9. A(H   1,C   0,Cl  5)          106.90 -0.002996    0.18    107.09   
    10. A(H   2,C   0,Cl  5)          106.90 -0.002999    0.18    107.09   
    11. A(H   3,C   0,Cl  5)          114.15  0.008408   -0.08    114.07   
    12. A(H   2,C   0,H   3)          109.31 -0.001931    0.08    109.38   
    13. A(C   0,H   3,F   4)          155.52 -0.002223    0.61    156.13   
    14. D(F   4,H   3,C   0,H   2)     60.44 -0.000327   -0.23     60.20   
    15. D(F   4,H   3,C   0,Cl  5)   -179.91 -0.000007    0.00   -179.91   
    16. D(F   4,H   3,C   0,H   1)    -60.27  0.000326    0.24    -60.04   
    ----------------------------------------------------------------------------

Geometry step timings:
Preparation and reading OPT file:      0.000 s ( 2.766 %)
Internal coordinates            :      0.000 s ( 3.712 %)
B/P matrices and projection     :      0.000 s (10.626 %)
Hessian update/contruction      :      0.001 s (37.191 %)
Making the step                 :      0.000 s (10.189 %)
Converting the step to Cartesian:      0.000 s ( 3.275 %)
Storing new data                :      0.000 s ( 7.060 %)
Checking convergence            :      0.000 s ( 5.822 %)
Final printing                  :      0.000 s (18.996 %)
Total time                      :      0.001 s

Time for energy+gradient        :     11.970 s
Time for complete geometry iter :     13.161 s

         *************************************************************
         *                GEOMETRY OPTIMIZATION CYCLE   2            *
         *************************************************************
---------------------------------
CARTESIAN COORDINATES (ANGSTROEM)
---------------------------------
  C      0.326867    0.188336   -0.324085
  H      0.422128    1.276865   -0.286336
  H      1.318325   -0.271067   -0.287241
  H     -0.286423   -0.167043    0.563332
  F     -0.644007   -0.373589    2.132587
  Cl    -0.396040   -0.229240   -1.940431

----------------------------
CARTESIAN COORDINATES (A.U.)
----------------------------
  NO LB      ZA    FRAG     MASS         X           Y           Z
   0 C     6.0000    0    12.011    0.617690    0.355903   -0.612432
   1 H     1.0000    0     1.008    0.797706    2.412924   -0.541096
   2 H     1.0000    0     1.008    2.491274   -0.512243   -0.542806
   3 H     1.0000    0     1.008   -0.541262   -0.315666    1.064543
   4 F     9.0000    0    18.998   -1.216997   -0.705981    4.030005
   5 Cl   17.0000    0    35.453   -0.748408   -0.433200   -3.666882

--------------------------------
INTERNAL COORDINATES (ANGSTROEM)
--------------------------------
 C      0   0   0     0.000000000000     0.00000000     0.00000000
 H      1   0   0     1.093341084718     0.00000000     0.00000000
 H      1   2   0     1.093342425696   109.76484526     0.00000000
 H      1   2   3     1.135750337567   109.36566714   120.00538877
 F      4   1   2     1.622679487830   156.12734635   299.96299102
 Cl     1   2   3     1.819213311907   107.08706649   244.08061433

---------------------------
INTERNAL COORDINATES (A.U.)
---------------------------
 C      0   0   0     0.000000000000     0.00000000     0.00000000
 H      1   0   0     2.066115221082     0.00000000     0.00000000
 H      1   2   0     2.066117755163   109.76484526     0.00000000
 H      1   2   3     2.146257094510   109.36566714   120.00538877
 F      4   1   2     3.066419835131   156.12734635   299.96299102
 Cl     1   2   3     3.437814938687   107.08706649   244.08061433



           ************************************************************
           *        Program running with 8 parallel MPI-processes     *
           *              working on a common directory               *
           ************************************************************
------------------------------------------------------------------------------
                   ___                                                        
                  /   \      - P O W E R E D   B Y -                         
                 /     \                                                     
                 |  |  |   _    _      __       _____    __    __             
                 |  |  |  | |  | |    /  \     |  _  \  |  |  /  |          
                  \  \/   | |  | |   /    \    | | | |  |  | /  /          
                 / \  \   | |__| |  /  /\  \   | |_| |  |  |/  /          
                |  |  |   |  __  | /  /__\  \  |    /   |      \           
                |  |  |   | |  | | |   __   |  |    \   |  |\   \          
                \     /   | |  | | |  |  |  |  | |\  \  |  | \   \       
                 \___/    |_|  |_| |__|  |__|  |_| \__\ |__|  \__/        
                                                                              
                      - O R C A' S   B I G   F R I E N D -                    
                                      &                                       
                       - I N T E G R A L  F E E D E R -                       
                                                                              
 v1 FN, 2020, v2 2021, v3 2022-2024                                           
------------------------------------------------------------------------------


----------------------
SHARK INTEGRAL PACKAGE
----------------------

Number of atoms                             ...      6
Number of basis functions                   ...     85
Number of shells                            ...     39
Maximum angular momentum                    ...      2
Integral batch strategy                     ... SHARK/LIBINT Hybrid
RI-J (if used) integral strategy            ... SPLIT-RIJ (Revised 2003 algorithm where possible)
Printlevel                                  ...      1
Contraction scheme used                     ... SEGMENTED contraction
Prescreening option                         ... SCHWARTZ
   Thresh                                   ... 2.500e-11
   Tcut                                     ... 2.500e-12
   Tpresel                                  ... 2.500e-12 
Coulomb Range Separation                    ... NOT USED
Exchange Range Separation                   ... NOT USED
Multipole approximations                    ... NOT USED
Finite Nucleus Model                        ... NOT USED
CABS basis                                  ... NOT available
Auxiliary Coulomb fitting basis             ... AVAILABLE
   # of basis functions in Aux-J            ...    140
   # of shells in Aux-J                     ...     56
   Maximum angular momentum in Aux-J        ...      3
Auxiliary J/K fitting basis                 ... NOT available
Auxiliary Correlation fitting basis         ... NOT available
Auxiliary 'external' fitting basis          ... NOT available

Checking pre-screening integrals            ... done (  0.0 sec) Dimension = 39
   => SHARK Basis and OBASIS are compatible. Storing Pre-screening
Shell pair information
Shell pair cut-off parameter TPreSel        ...   2.5e-12
Total number of shell pairs                 ...       780
Shell pairs after pre-screening             ...       725
Total number of primitive shell pairs       ...      3096
Primitive shell pairs kept                  ...      2246
          la=0 lb=0:    209 shell pairs
          la=1 lb=0:    253 shell pairs
          la=1 lb=1:     88 shell pairs
          la=2 lb=0:     98 shell pairs
          la=2 lb=1:     62 shell pairs
          la=2 lb=2:     15 shell pairs

Checking whether 4 symmetric matrices of dimension 85 fit in memory
:Max Core in MB      =   4096.00
 MB in use           =      2.97
 MB left             =   4093.03
 MB needed           =      0.11
 Data fit in memory  = YES
Calculating RI/J V-Matrix + Cholesky decomp.... done (  0.0 sec)
Calculating Nuclear repulsion               ... done (  0.0 sec) ENN=     86.694157232309 Eh

Diagonalization of the overlap matrix:
Smallest eigenvalue                        ... 5.512e-03
Time for diagonalization                   ...    0.001 sec
Threshold for overlap eigenvalues          ... 1.000e-07
Number of eigenvalues below threshold      ... 0
Time for construction of square roots      ...    0.001 sec
Total time needed                          ...    0.002 sec

-------------------
DFT GRID GENERATION
-------------------

General Integration Accuracy     IntAcc      ... 4.388
Radial Grid Type                 RadialGrid  ... OptM3 with GC (2021)
Angular Grid (max. ang.)         AngularGrid ... 4 (Lebedev-302)
Angular grid pruning method      GridPruning ... 4 (adaptive)
Weight generation scheme         WeightScheme... mBecke (2022)
Basis function cutoff            BFCut       ... 1.0000e-11
Integration weight cutoff        WCut        ... 1.0000e-14
Partially contracted basis set               ... off
Rotationally invariant grid construction     ... off
Angular grids for H and He will be reduced by one unit

Total number of grid points                  ...    29396
Total number of batches                      ...      463
Average number of points per batch           ...       63
Average number of grid points per atom       ...     4899
Grids setup in   0.7 sec
Initializing property integral containers    ... done (  0.0 sec)

SHARK setup successfully completed in   1.1 seconds

Maximum memory used throughout the entire STARTUP-calculation: 9.9 MB


           ************************************************************
           *        Program running with 8 parallel MPI-processes     *
           *              working on a common directory               *
           ************************************************************
Occupation numbers will be reassigned to an Aufbau configuration
             **** ENERGY FILE WAS UPDATED (product_optfreq.en.tmp) ****
Finished Guess after   0.2 sec
Maximum memory used throughout the entire GUESS-calculation: 5.3 MB


           ************************************************************
           *        Program running with 8 parallel MPI-processes     *
           *              working on a common directory               *
           ************************************************************
----------------------------------------D-I-I-S--------------------------------------------
Iteration    Energy (Eh)           Delta-E    RMSDP     MaxDP     DIISErr   Damp  Time(sec)
-------------------------------------------------------------------------------------------
               ***  Starting incremental Fock matrix formation  ***
    1    -599.9396379745210197     0.00e+00  3.98e-04  1.80e-03  9.48e-03  0.700   0.5
    2    -599.9397843840966971    -1.46e-04  3.69e-04  1.57e-03  6.42e-03  0.700   0.5
                               ***Turning on AO-DIIS***
    3    -599.9398845475639064    -1.00e-04  2.94e-04  1.29e-03  4.08e-03  0.700   0.5
                              *** Initializing SOSCF ***
---------------------------------------S-O-S-C-F--------------------------------------
Iteration    Energy (Eh)           Delta-E    RMSDP     MaxDP     MaxGrad    Time(sec)
--------------------------------------------------------------------------------------
    4    -599.9399537275591001    -6.92e-05  7.40e-04  3.51e-03  3.11e-03     0.5
               *** Restarting incremental Fock matrix formation ***
    5    -599.9401164424650688    -1.63e-04  1.68e-04  6.58e-04  3.36e-04     0.4
    6    -599.9401146255181629     1.82e-06  8.81e-05  4.35e-04  6.25e-04     0.5
    7    -599.9401179891402762    -3.36e-06  1.67e-05  1.32e-04  2.48e-05     0.4
    8    -599.9401179827376609     6.40e-09  9.05e-06  5.14e-05  4.36e-05     0.5
                 **** Energy Check signals convergence ****

               *****************************************************
               *                     SUCCESS                       *
               *           SCF CONVERGED AFTER   8 CYCLES          *
               *****************************************************

             **** ENERGY FILE WAS UPDATED (product_optfreq.en.tmp) ****

----------------
TOTAL SCF ENERGY
----------------

Total Energy       :       -599.94011799818895 Eh          -16325.20057 eV

Components:
Nuclear Repulsion  :         86.69415723230907 Eh            2359.06795 eV
Electronic Energy  :       -686.63427523049802 Eh          -18684.26852 eV
One Electron Energy:      -1009.08805333488260 Eh          -27458.68190 eV
Two Electron Energy:        322.45377810438458 Eh            8774.41338 eV

Virial components:
Potential Energy   :      -1198.40875223099033 Eh          -32610.36003 eV
Kinetic Energy     :        598.46863423280138 Eh           16285.15946 eV
Virial Ratio       :          2.00245874834740

DFT components:
N(Alpha)           :       17.999994192174 electrons
N(Beta)            :       17.999994192174 electrons
N(Total)           :       35.999988384348 electrons
E(X)               :      -44.122162434835 Eh       
E(C)               :       -1.263222704404 Eh       
E(XC)              :      -45.385385139240 Eh       

---------------
SCF CONVERGENCE
---------------

  Last Energy change         ...   -6.4026e-09  Tolerance :   1.0000e-08
  Last MAX-Density change    ...    5.1387e-05  Tolerance :   1.0000e-07
  Last RMS-Density change    ...    9.0470e-06  Tolerance :   5.0000e-09
  Last DIIS Error            ...    3.1126e-03  Tolerance :   5.0000e-07
  Last Orbital Gradient      ...    4.3638e-05  Tolerance :   1.0000e-05
  Last Orbital Rotation      ...    2.3162e-05  Tolerance :   1.0000e-05


Total SCF time: 0 days 0 hours 0 min 4 sec 
Finished LeanSCF after   4.6 sec

Maximum memory used throughout the entire LEANSCF-calculation: 4.8 MB


           ************************************************************
           *        Program running with 8 parallel MPI-processes     *
           *              working on a common directory               *
           ************************************************************

------------------------------------------------------------------------------
                         ORCA PROPERTY INTEGRAL CALCULATIONS
------------------------------------------------------------------------------

GBWName                                   ... product_optfreq.gbw
Number of atoms                           ...      6
Number of basis functions                 ...     85
Max core memory                           ...   4096 MB

Dipole integrals                          ... YES
Quadrupole integrals                      ...  NO
Linear momentum integrals                 ...  NO
Angular momentum integrals                ...  NO
Higher moments length integrals           ...  NO
Higher moments velocity integrals         ...  NO
Kinetic energy integrals                  ...  NO
GIAO right hand sides                     ...  NO
GIAO dipole derivative integrals          ...  NO
SOC integrals                             ...  NO
EPR diamagnetic integrals (GIAO)          ...  NO
EPR gauge integrals                       ...  NO
Field gradient integrals                  ...  NO (   0 nuclei)
Spin-dipole/Fermi contact integrals       ...  NO (   0 nuclei)
Contact density integrals                 ...  NO (   0 nuclei)
Nucleus-orbit integrals                   ...  NO (   0 nuclei)
Geometric perturbations                   ...  NO (   6 nuclei)

Choice of electric origin   ... Center of mass
Position of electric origin ... ( -0.5680, -0.3295, -0.8752) 
Choice of magnetic origin   ... GIAO
Position of magnetic origin ... (  0.0000,  0.0000,  0.0000) 

Calculating integrals                     ... Electric Dipole (Length)     done (  0.0 sec)

Property integrals calculated in   0.0 sec

Maximum memory used throughout the entire PROPINT-calculation: 5.4 MB


-------------------------------------------------------------------------------
                          DFT DISPERSION CORRECTION                            
                                                                               
                                DFTD4 V3.4.0                                   
-------------------------------------------------------------------------------
-------------------------   ----------------
Dispersion correction           -0.000823678
-------------------------   ----------------

------------------   -----------------
gCP correction             0.006567429
------------------   -----------------

-------------------------   --------------------
FINAL SINGLE POINT ENERGY      -599.934374247699
-------------------------   --------------------



           ************************************************************
           *        Program running with 8 parallel MPI-processes     *
           *              working on a common directory               *
           ************************************************************
------------------------------------------------------------------------------
                         ORCA SCF GRADIENT CALCULATION
------------------------------------------------------------------------------

Nuc. rep. gradient        (SHARK) ... done (  0.0 sec)
HCore & Overlap gradient  (SHARK) ... done (  0.0 sec)
Split-RIJ-J gradient      (SHARK) ... done (  0.5 sec)
XC gradient                       ... done (  0.5 sec)
Dispersion correction             ... done (  0.1 sec)

-------------------
DISPERSION GRADIENT
-------------------

   1   C   :    0.000008084    0.000004673    0.000003738
   2   H   :    0.000001623   -0.000001242   -0.000003285
   3   H   :   -0.000000266    0.000002025   -0.000003287
   4   H   :    0.000002978    0.000001726   -0.000001342
   5   F   :   -0.000009676   -0.000005606    0.000043856
   6   Cl  :   -0.000002743   -0.000001576   -0.000039680

Difference to translation invariance:
           :   -0.0000000000   -0.0000000000   -0.0000000000

Difference to rotation invariance:
           :    0.0000000000    0.0000000000    0.0000000000

Norm of the Dispersion gradient    ...    0.0000614631
RMS gradient                       ...    0.0000144870
MAX gradient                       ...    0.0000438563
gCP correction                   ... done

------------------
CARTESIAN GRADIENT
------------------

   1   C   :   -0.004645731   -0.002697150   -0.012372933
   2   H   :   -0.000316879   -0.000077410    0.001752306
   3   H   :   -0.000227419   -0.000237957    0.001755955
   4   H   :    0.001331715    0.000778933   -0.004151622
   5   F   :   -0.000092677   -0.000058383    0.002085629
   6   Cl  :    0.003950991    0.002291966    0.010930665

Difference to translation invariance:
           :   -0.0000000000   -0.0000000000   -0.0000000000

Difference to rotation invariance:
           :    0.0000156650    0.0000383891   -0.0000183870

Norm of the Cartesian gradient     ...    0.0187786175
RMS gradient                       ...    0.0044261626
MAX gradient                       ...    0.0123729326

-------
TIMINGS
-------

Total SCF gradient time     ....        1.194 sec

Densities                   ....       0.000 sec  (  0.0%)
One electron gradient       ....       0.006 sec  (  0.5%)
RI-J Coulomb gradient       ....       0.489 sec  ( 41.0%)
XC gradient                 ....       0.491 sec  ( 41.1%)

Maximum memory used throughout the entire SCFGRAD-calculation: 25.1 MB
------------------------------------------------------------------------------
                         ORCA GEOMETRY RELAXATION STEP
------------------------------------------------------------------------------

Reading the OPT-File                    .... done
Getting information on internals        .... done
Copying old internal coords+grads       .... done
Making the new internal coordinates     .... (2022 redundants) done
Validating the new internal coordinates .... (2022 redundants) done
Calculating the B-matrix                .... done
Calculating the G,G- and P matrices     .... done
Transforming gradient to internals      .... done
Projecting the internal gradient        .... done
Number of atoms                         ....   6
Number of internal coordinates          ....  16
Current Energy                          ....  -599.934374248 Eh
Current gradient norm                   ....     0.018778618 Eh/bohr
Maximum allowed component of the step   ....  0.300
Current trust radius                    ....  0.300
Updating the Hessian (BFGS)             .... done
Forming the augmented Hessian           .... done
Diagonalizing the augmented Hessian     .... done
Last element of RFO vector              ....  0.991210453
Lowest eigenvalues of augmented Hessian:
 -0.001100029  0.036684954  0.072506590  0.096255083  0.201170417
Length of the computed step             ....  0.133467631
The final length of the internal step   ....  0.133467631
Converting the step to Cartesian space:
 Initial RMS(Int)=    0.0333669078
Transforming coordinates:
 Iter   0:  RMS(Cart)=    0.0194529079 RMS(Int)=    0.0333691067
done
Storing new coordinates                 .... done
The predicted energy change is          ....    -0.000559812
Previously predicted energy change      ....    -0.001361753
Actually observed energy change         ....    -0.001853800
Ratio of predicted to observed change   ....     1.361333441
New trust radius                        ....     0.300000000

                                .--------------------.
          ----------------------|Geometry convergence|-------------------------
          Item                value                   Tolerance       Converged
          ---------------------------------------------------------------------
          Energy change      -0.0018537998            0.0000050000      NO
          RMS gradient        0.0027075712            0.0001000000      NO
          MAX gradient        0.0085133283            0.0003000000      NO
          RMS step            0.0333669078            0.0020000000      NO
          MAX step            0.0850223483            0.0040000000      NO
          -------------------------------------------------------------------------
          ........................................................
          Max(Bonds)      0.0450      Max(Angles)    0.68
          Max(Dihed)        0.22      Max(Improp)    0.00
          ---------------------------------------------------------------------

The optimization has not yet converged - more geometry cycles are needed


    ---------------------------------------------------------------------------
                         Redundant Internal Coordinates
                            (Angstroem and degrees)

        Definition                    Value    dE/dq     Step     New-Value
    ----------------------------------------------------------------------------
     1. B(H   1,C   0)                1.0933 -0.000044  0.0010    1.0943   
     2. B(H   2,C   0)                1.0933 -0.000047  0.0010    1.0943   
     3. B(H   3,C   0)                1.1358  0.000203  0.0073    1.1430   
     4. B(F   4,H   3)                1.6227  0.002044 -0.0450    1.5777   
     5. B(Cl  5,H   3)                2.5069 -0.003619  0.0386    2.5455   
     6. B(Cl  5,C   0)                1.8192 -0.008513  0.0352    1.8544   
     7. A(H   1,C   0,H   3)          109.37 -0.002566    0.64    110.00   
     8. A(H   1,C   0,H   2)          109.76  0.000652   -0.28    109.48   
     9. A(H   1,C   0,Cl  5)          107.09  0.000900   -0.57    106.52   
    10. A(H   2,C   0,Cl  5)          107.09  0.000911   -0.57    106.51   
    11. A(H   3,C   0,Cl  5)          114.07  0.002799    0.09    114.15   
    12. A(H   2,C   0,H   3)          109.38 -0.002567    0.64    110.02   
[...]
Rotational constants in MHz :         29934.213631          2565.694748          2399.237090 

Dipole components along the rotational axes: 
x,y,z [a.u.] :    -2.512596     0.666044     0.000046 
x,y,z [Debye]:    -6.386512     1.692949     0.000117 

 

Dipole moment calculation done in   0.0 sec 

-----------
SCF HESSIAN
-----------

Occupied/Occupied contributions to the Hessian:
   => Occupied/Occupied contributions              ... done (  0.0 sec)
Perturbed density contributions to the Hessian:
   => Perturbed density contributions              ... done (  0.0 sec)
Explicit contributions to the Hessian:
   => Nuclear repulsion Hessian                    ... done (  0.0 sec)
   => HCore and overlap Hessian                    ... done (  0.2 sec)
   => RI-J Hessian                                 ... done (  0.7 sec)
   => XC-Hessian                                   ... done (  3.4 sec)
   => Van der Waals-Hessian                        ... done (  0.7 sec)
   => GCP-Hessian                                  ... done (  0.0 sec)
   => Explicit contributions done
Dipole derivatives                                 ... done (  0.0 sec)
Mass weighting the Hessian           ... done
Calculating normal modes             ... done
Scaling frequencies                  ... done

-----------------------
VIBRATIONAL FREQUENCIES
-----------------------

Scaling factor for frequencies =  1.000000000  (already applied!)

     0:       0.00 cm**-1
     1:       0.00 cm**-1
     2:       0.00 cm**-1
     3:       0.00 cm**-1
     4:       0.00 cm**-1
     5:       0.00 cm**-1
     6:      94.40 cm**-1
     7:     313.02 cm**-1
     8:     329.26 cm**-1
     9:     572.92 cm**-1
    10:     994.83 cm**-1
    11:    1062.74 cm**-1
    12:    1391.03 cm**-1
    13:    1452.41 cm**-1
    14:    1522.94 cm**-1
    15:    2082.69 cm**-1
    16:    3042.53 cm**-1
    17:    3114.58 cm**-1


------------
NORMAL MODES
------------

These modes are the Cartesian displacements weighted by the diagonal matrix
M(i,i)=1/sqrt(m[i]) where m[i] is the mass of the displaced atom
Thus, these vectors are normalized but *not* orthogonal

                  0          1          2          3          4          5    
      0       0.000000   0.000000   0.000000   0.000000   0.000000   0.000000
      1       0.000000   0.000000   0.000000   0.000000   0.000000   0.000000
      2       0.000000   0.000000   0.000000   0.000000   0.000000   0.000000
      3       0.000000   0.000000   0.000000   0.000000   0.000000   0.000000
      4       0.000000   0.000000   0.000000   0.000000   0.000000   0.000000
      5       0.000000   0.000000   0.000000   0.000000   0.000000   0.000000
      6       0.000000   0.000000   0.000000   0.000000   0.000000   0.000000
      7       0.000000   0.000000   0.000000   0.000000   0.000000   0.000000
      8       0.000000   0.000000   0.000000   0.000000   0.000000   0.000000
      9       0.000000   0.000000   0.000000   0.000000   0.000000   0.000000
     10       0.000000   0.000000   0.000000   0.000000   0.000000   0.000000
     11       0.000000   0.000000   0.000000   0.000000   0.000000   0.000000
     12       0.000000   0.000000   0.000000   0.000000   0.000000   0.000000
     13       0.000000   0.000000   0.000000   0.000000   0.000000   0.000000
     14       0.000000   0.000000   0.000000   0.000000   0.000000   0.000000
     15       0.000000   0.000000   0.000000   0.000000   0.000000   0.000000
     16       0.000000   0.000000   0.000000   0.000000   0.000000   0.000000
     17       0.000000   0.000000   0.000000   0.000000   0.000000   0.000000
                  6          7          8          9         10         11    
      0       0.333839   0.277684   0.052688  -0.265731   0.067810  -0.043576
      1       0.193746   0.154782  -0.096762  -0.153191   0.039676   0.074943
      2      -0.072143  -0.256110   0.002248  -0.531844  -0.024397   0.000134
      3       0.329966   0.219019  -0.529408  -0.211051  -0.070716   0.329129
      4       0.190157   0.150431  -0.032876  -0.141639   0.062714   0.073941
      5      -0.251438  -0.334519   0.308807  -0.152172   0.534555   0.597138
      6       0.325952   0.266257   0.287421  -0.229369   0.017832  -0.228599
      7       0.186180   0.155578   0.440775  -0.114300  -0.095056  -0.248227
      8      -0.248100  -0.362950  -0.301687  -0.150451   0.532483  -0.600101
      9       0.397763   0.373975   0.242490  -0.141698  -0.257509   0.110063
     10       0.233723   0.189538  -0.427031  -0.081089  -0.149874  -0.188725
     11       0.047724  -0.315539   0.001989  -0.604748  -0.562426   0.001171
     12      -0.107781  -0.164118  -0.019928   0.006767   0.007477  -0.001844
     13      -0.062522  -0.092677   0.037953   0.003812   0.004312   0.003152
     14      -0.372343   0.328989  -0.003551   0.009611  -0.006085  -0.000008
     15      -0.085302  -0.030561  -0.007185   0.102951  -0.018154   0.009764
     16      -0.049480  -0.016865   0.012988   0.059439  -0.010571  -0.016758
     17       0.236812  -0.060725   0.000882   0.200830  -0.002821   0.000010
                 12         13         14         15         16         17    
      0       0.050335   0.034655   0.033260  -0.054988  -0.058008  -0.047850
      1       0.029307   0.019645  -0.057361  -0.031867  -0.033730   0.082490
      2       0.077758  -0.051136   0.000316   0.071948   0.009829   0.000041
      3      -0.441725  -0.537962  -0.155115   0.021652   0.034952  -0.063838
      4       0.024374   0.064785  -0.004589  -0.083689   0.703468  -0.698481
      5      -0.400161   0.197881   0.300997  -0.002974  -0.031486   0.043904
      6      -0.199261  -0.210545   0.082068  -0.061659   0.625982   0.639081
      7      -0.395575  -0.497209   0.134963   0.060389  -0.319178  -0.293183
      8      -0.398016   0.194630  -0.304270  -0.003040  -0.031944  -0.044507
      9      -0.273579   0.367764  -0.440800   0.684698   0.030840  -0.012919
     10      -0.160954   0.217496   0.754319   0.397245   0.017845   0.022322
     11      -0.423316   0.388605  -0.002999  -0.590890  -0.047974   0.000090
     12       0.004417  -0.004139   0.004439  -0.000360  -0.000030   0.000147
     13       0.002577  -0.002428  -0.007601  -0.000224  -0.000016  -0.000257
     14      -0.001264  -0.001415   0.000050  -0.008355   0.000136  -0.000000
     15       0.006583   0.001303   0.000963   0.000492  -0.000000   0.000144
     16       0.003820   0.000756  -0.001647   0.000284   0.000002  -0.000249
     17       0.009064  -0.004126   0.000045  -0.002926  -0.000235   0.000001


-----------
IR SPECTRUM
-----------

 Mode   freq       eps      Int      T**2         TX        TY        TZ
       cm**-1   L/(mol*cm) km/mol    a.u.
----------------------------------------------------------------------------
  6:     94.40   0.002052   10.37  0.006784  ( 0.023949  0.013897  0.077574)
  7:    313.02   0.041078  207.59  0.040953  ( 0.069103  0.039792 -0.185995)
  8:    329.26   0.000075    0.38  0.000072  ( 0.002537 -0.007263  0.003510)
  9:    572.92   0.033391  168.75  0.018188  (-0.009883 -0.005680 -0.134379)
 10:    994.83   0.027726  140.12  0.008697  ( 0.016992  0.009740 -0.091179)
 11:   1062.74   0.000239    1.21  0.000070  ( 0.004166 -0.007262  0.000225)
 12:   1391.03   0.008286   41.87  0.001859  ( 0.027523  0.015806 -0.029181)
 13:   1452.41   0.012769   64.53  0.002744  (-0.022095 -0.012678  0.045767)
 14:   1522.94   0.002712   13.71  0.000556  (-0.011683  0.020477 -0.000082)
 15:   2082.69   0.273257  1380.93  0.040944  ( 0.069374  0.040216 -0.185779)
 16:   3042.53   0.007526   38.03  0.000772  (-0.018288 -0.010605 -0.018029)
 17:   3114.58   0.005897   29.80  0.000591  (-0.012160  0.021047  0.000085)

* The epsilon (eps) is given for a Dirac delta lineshape.
** The dipole moment derivative (T) already includes vibrational overlap.

The first frequency considered to be a vibration is 6
The total number of vibrations considered is 12


--------------------------
THERMOCHEMISTRY AT 298.15K
--------------------------

Temperature         ...   298.15 K
Pressure            ...     1.00 atm
Total Mass          ...    69.49 AMU
Quasi RRHO          ...     True
Cut-Off Frequency   ...     1.00 cm^-1

Throughout the following assumptions are being made:
  (1) The electronic state is orbitally nondegenerate
  (2) There are no thermally accessible electronically excited states
  (3) Hindered rotations indicated by low frequency modes are not
      treated as such but are treated as vibrations and this may
      cause some error
  (4) All equations used are the standard statistical mechanics
      equations for an ideal gas
  (5) All vibrations are strictly harmonic

freq.      94.40  E(vib)   ...       0.47 
freq.     313.02  E(vib)   ...       0.25 
freq.     329.26  E(vib)   ...       0.24 
freq.     572.92  E(vib)   ...       0.11 
freq.     994.83  E(vib)   ...       0.02 
freq.    1062.74  E(vib)   ...       0.02 
freq.    1391.03  E(vib)   ...       0.00 
freq.    1452.41  E(vib)   ...       0.00 
freq.    1522.94  E(vib)   ...       0.00 
freq.    2082.69  E(vib)   ...       0.00 
freq.    3042.53  E(vib)   ...       0.00 
freq.    3114.58  E(vib)   ...       0.00 

------------
INNER ENERGY
------------

The inner energy is: U= E(el) + E(ZPE) + E(vib) + E(rot) + E(trans)
    E(el)   - is the total energy from the electronic structure calculation
              = E(kin-el) + E(nuc-el) + E(el-el) + E(nuc-nuc)
    E(ZPE)  - the the zero temperature vibrational energy from the frequency calculation
    E(vib)  - the the finite temperature correction to E(ZPE) due to population
              of excited vibrational states
    E(rot)  - is the rotational thermal energy
    E(trans)- is the translational thermal energy

Summary of contributions to the inner energy U:
Electronic energy                ...   -599.93558267 Eh
Zero point energy                ...      0.03638995 Eh      22.83 kcal/mol
Thermal vibrational correction   ...      0.00179498 Eh       1.13 kcal/mol
Thermal rotational correction    ...      0.00141627 Eh       0.89 kcal/mol
Thermal translational correction ...      0.00141627 Eh       0.89 kcal/mol
-----------------------------------------------------------------------
Total thermal energy                   -599.89456520 Eh


Summary of corrections to the electronic energy:
(perhaps to be used in another calculation)
Total thermal correction                  0.00462753 Eh       2.90 kcal/mol
Non-thermal (ZPE) correction              0.03638995 Eh      22.83 kcal/mol
-----------------------------------------------------------------------
Total correction                          0.04101747 Eh      25.74 kcal/mol


--------
ENTHALPY
--------

The enthalpy is H = U + kB*T
                kB is Boltzmann's constant
Total thermal energy              ...   -599.89456520 Eh 
Thermal Enthalpy correction       ...      0.00094421 Eh       0.59 kcal/mol
-----------------------------------------------------------------------
Total Enthalpy                    ...   -599.89362099 Eh


Note: Only C1 symmetry has been detected, increase convergence thresholds 
      if your molecule has a higher symmetry. Symmetry factor of 1.0 is   
      used for the rotational entropy correction. 
 

Note: Rotational entropy computed according to Herzberg 
Infrared and Raman Spectra, Chapter V,1, Van Nostrand Reinhold, 1945 
Point Group:  C1, Symmetry Number:   1  
Rotational constants in cm-1:     0.998499     0.085582     0.080030 

Vibrational entropy computed according to the QRRHO of S. Grimme
Chem.Eur.J. 2012 18 9955 using a reference frequency of 100.0 cm-1


-------
ENTROPY
-------

The entropy contributions are T*S = T*(S(el)+S(vib)+S(rot)+S(trans))
     S(el)   - electronic entropy
     S(vib)  - vibrational entropy
     S(rot)  - rotational entropy
     S(trans)- translational entropy
The entropies will be listed as multiplied by the temperature to get
units of energy

Electronic entropy                ...      0.00000000 Eh      0.00 kcal/mol
Vibrational entropy               ...      0.00310307 Eh      1.95 kcal/mol
Rotational entropy                ...      0.01186424 Eh      7.44 kcal/mol
Translational entropy             ...      0.01835566 Eh     11.52 kcal/mol
-----------------------------------------------------------------------
Final entropy term                ...      0.03332297 Eh     20.91 kcal/mol

In case the symmetry of your molecule has not been determined correctly
or in case you have a reason to use a different symmetry number we print 
out the resulting rotational entropy values for sn=1,12:

 non-linear molecules -----------------------------------
|  sn= 1 | S(rot)=       0.01186424 Eh      7.44 kcal/mol|
|  sn= 2 | S(rot)=       0.01120979 Eh      7.03 kcal/mol|
|  sn= 3 | S(rot)=       0.01082695 Eh      6.79 kcal/mol|
|  sn= 4 | S(rot)=       0.01055533 Eh      6.62 kcal/mol|
|  sn= 5 | S(rot)=       0.01034464 Eh      6.49 kcal/mol|
|  sn= 6 | S(rot)=       0.01017250 Eh      6.38 kcal/mol|
|  sn= 7 | S(rot)=       0.01002695 Eh      6.29 kcal/mol|
|  sn= 8 | S(rot)=       0.00990087 Eh      6.21 kcal/mol|
|  sn= 9 | S(rot)=       0.00978967 Eh      6.14 kcal/mol|
|  sn=10 | S(rot)=       0.00969019 Eh      6.08 kcal/mol|
|  sn=11 | S(rot)=       0.00960020 Eh      6.02 kcal/mol|
|  sn=12 | S(rot)=       0.00951804 Eh      5.97 kcal/mol|
 linear molecules ---------------------------------------
|  Dinfh | S(rot)=       0.00771020 Eh      4.84 kcal/mol|
|  Cinfv | S(rot)=       0.00836465 Eh      5.25 kcal/mol|
 --------------------------------------------------------


-------------------
GIBBS FREE ENERGY
-------------------

The Gibbs free energy is G = H - T*S

Total enthalpy                    ...   -599.89362099 Eh 
Total entropy correction          ...     -0.03332297 Eh    -20.91 kcal/mol
-----------------------------------------------------------------------
Final Gibbs free energy         ...   -599.92694396 Eh

For completeness - the Gibbs free energy minus the electronic energy
G-E(el)                           ...      0.00863871 Eh      5.42 kcal/mol


Maximum memory used throughout the entire PROP-calculation: 25.2 MB

--------------------------------
SUGGESTED CITATIONS FOR THIS RUN
--------------------------------

Below you find a list of papers that are relevant to this ORCA run
We neither can nor want to force you to cite these papers, but we appreciate if you do
You receive ORCA, which is the product of decades of hard work by many enthusiastic individuals, for free
The only thing we kindly ask in return is that you cite our papers,
We deeply appreciate it, if you show your appreciation for ORCA by not just citing the generic ORCA reference.

Please note that relegating all ORCA citations to the supporting information does *not* help us.
SI sections are not indexed - citations you put there will not count into any citation statistics
But we need these citations in order to attract the funding resources that allow us to do what we are doing

Therefore, if you are a happy ORCA user, please consider citing a few of the papers listed below in the main body of your paper

In addition to the list printed below, the program has created the file product_optfreq.bibtex that contains the list in bibtex format
You can import this file easily into all common literature databanks and citation aid programs


List of essential papers. We consider these as the minimum necessary citations

  1. Grimme, S.; Hansen, A.; Ehlert, S.; Mewes, J.
     r2SCAN-3c: A 'Swiss army knife' composite electronic-structure method
     J. Chem. Phys. 2021 154 , 064103
     doi.org/10.1063/5.0040021
  2. Neese, F.
     Software update: the ORCA program system, version 6.0
     WIRES Comput. Molec. Sci. 2025 15(1), e70019
     doi.org/10.1002/wcms.7019

List of papers to cite with high priority. The work reported in these papers was absolutely
necessary for this run to complete.
Our perspective: the developers of density functionals and basis sets usually get cited in chemistry papers
Good! But without the algorithms to do something with them, the functionals or basis sets would not do anything.
Hence, in our opinion, the algorithm design and method developments papers are equally worthy of getting cited

  1. Neese, F.
     An improvement of the resolution of the identity approximation for the formation of the Coulomb matrix
     J. Comp. Chem. 2003 24(14), 1740-1747
     doi.org/10.1002/jcc.10318
  2. Bykov, D.; Petrenko, T.; Izsak, R.; Kossmann, S.; Becker, U.; Valeev, E.; Neese, F.
     Efficient implementation of the analytic second derivatives of Hartree-Fock and hybrid DFT energies: a detailed analysis of different approximations
     Molec. Phys. 2015 113 , 1961-1977
     doi.org/10.1080/00268976.2015.1025114
  3. Caldeweyher, E.; Bannwarth, C.; Grimme, S.
     Extension of the D3 dispersion coefficient model
     J. Chem. Phys. 2017 147 , 034112
     doi.org/10.1063/1.4993215
  4. Lehtola, S.; Steigemann, C.; Oliveira, M.; Marques, M.
     Recent developments in Libxc - A comprehensive library of functionals for density functional theory
     Software X 2018 7 , 
     doi.org/10.1016/j.softx.2017.11.002
  5. Caldeweyher, E.; Ehlert, S.; Hansen, A.; Neugebauer, H.; Spicher, S.; Bannwarth, C.; Grimme, S.
     A generally applicable atomic-charge dependent London dispersion correction
     J. Chem. Phys. 2019 150 , 154122
     doi.org/10.1063/1.5090222
  6. Caldeweyher, E.; Mewes, J.; Ehlert, S.; Grimme, S.
     Extension and evaluation of the D4 London-dispersion model for periodic systems
     Phys. Chem. Chem. Phys. 2020 22(16), 8499-8512
     doi.org/10.1039/D0CP00502A
  7. Neese, F.
     The SHARK Integral Generation and Digestion System
     J. Comp. Chem. 2022 44(3), 381
     doi.org/10.1002/jcc.26942
  8. Wittmann, L.; Gordiy, I.; Friede, M.; Helmich-Paris, B.; Grimme, S.; Hansen, A.; Bursch, M.
     Extension of the D3 and D4 London Dispersion Corrections to the full Actinides Series
     Phys. Chem. Chem. Phys. 2024 26(32), 21379-21394
     doi.org/10.1039/D4CP01514B

List of suggested additional citations. These are papers that are important in the 'surrounding' of 
of this run, or papers that preceded the highly important papers. If you like your results we are grateful for a citation.

  1. Neese, F.
     The ORCA program system
     WIRES Comput. Molec. Sci. 2012 2(1), 73-78
     doi.org/10.1002/wcms.81
  2. Neese, F.
     Software update: the ORCA program system, version 4.0
     WIRES Comput. Molec. Sci. 2018 8(1), 1-6
     doi.org/10.1002/wcms.1327
  3. Neese, F.; Wennmohs, F.; Becker, U.; Riplinger, C.
     The ORCA quantum chemistry program package
     J. Chem. Phys. 2020 152(22), 224108
     doi.org/10.1063/5.0004608
  4. Neese, F.
     Software update: The ORCA program system—Version 5.0
     WIRES Comput. Molec. Sci. 2022 12(1), e1606
     doi.org/10.1002/wcms.1606

List of optional additional citations

  1. Neese, F.
     Approximate second-order SCF convergence for spin unrestricted wavefunctions
     Chem. Phys. Lett. 2000 325(1-3), 93-98
     doi.org/10.1016/s0009-2614(00)00662-x

Timings for individual modules:

Sum of individual times          ...      122.389 sec (=   2.040 min)
Startup calculation              ...       17.642 sec (=   0.294 min)  14.4 %
SCF iterations                   ...       58.260 sec (=   0.971 min)  47.6 %
Property integrals               ...       15.339 sec (=   0.256 min)  12.5 %
SCF Response                     ...        3.519 sec (=   0.059 min)   2.9 %
Property calculations            ...        5.537 sec (=   0.092 min)   4.5 %
SCF Gradient evaluation          ...       22.066 sec (=   0.368 min)  18.0 %
Geometry relaxation              ...        0.026 sec (=   0.000 min)   0.0 %
                             ****ORCA TERMINATED NORMALLY****
TOTAL RUN TIME: 0 days 0 hours 2 minutes 13 seconds 5 msec
