
                                 *****************
                                 * O   R   C   A *
                                 *****************

                                            #,                                       
                                            ###                                      
                                            ####                                     
                                            #####                                    
                                            ######                                   
                                           ########,                                 
                                     ,,################,,,,,                         
                               ,,#################################,,                 
                          ,,##########################################,,             
                       ,#########################################, ''#####,          
                    ,#############################################,,   '####,        
                  ,##################################################,,,,####,       
                ,###########''''           ''''###############################       
              ,#####''   ,,,,##########,,,,          '''####'''          '####       
            ,##' ,,,,###########################,,,                        '##       
           ' ,,###''''                  '''############,,,                           
         ,,##''                                '''############,,,,        ,,,,,,###''
      ,#''                                            '''#######################'''  
     '                                                          ''''####''''         
             ,#######,   #######,   ,#######,      ##                                
            ,#'     '#,  ##    ##  ,#'     '#,    #''#        ,####,    ,#,          
            ##       ##  ##   ,#'  ##            #'  '#       #'       ,# #          
            ##       ##  #######   ##           ,######,      #####,      #          
            '#,     ,#'  ##    ##  '#,     ,#' ,#      #,     #,   #      #          
             '#######'   ##     ##  '#######'  #'      '#     '####' #    #          



                #########################################################
                #                        -***-                          #
                #          Department of theory and spectroscopy        #
                #                                                       #
                #                      Frank Neese                      #
                #                                                       #
                #     Directorship, Architecture, Infrastructure        #
                #                    SHARK, DRIVERS                     #
                #        Core code/Algorithms in most modules           #
                #                                                       #
                #        Max Planck Institute fuer Kohlenforschung      #
                #                Kaiser Wilhelm Platz 1                 #
                #                 D-45470 Muelheim/Ruhr                 #
                #                      Germany                          #
                #                                                       #
                #                  All rights reserved                  #
                #                        -***-                          #
                #########################################################


                         Program Version 6.1.0  -  RELEASE   -
                                (GIT: $679e74b$)
                          ($2025-06-10 18:02:51 +0200$)


 With contributions from (in alphabetic order):
[Max-Planck-Institut fuer Kohlenforschung]                               
  Daniel Aravena         : Magnetic Suceptibility                        
  Michael Atanasov       : Ab Initio Ligand Field Theory (pilot matlab implementation)
  Alexander A. Auer      : GIAO ZORA, VPT2 properties, NMR spectrum      
  Ute Becker             : All parallelization in ORCA, NUMFREQ, NUMCALC 
  Giovanni Bistoni       : ED, misc. LED, open-shell LED, HFLD           
  Dmytro Bykov           : pre 5.0 version of the SCF Hessian            
  Marcos Casanova-Páez   : Triplet and SCS-CIS(D). UHF-(DLPNO)-IP/EA/STEOM-CCSD. UHF-CVS-IP/STEOM-CCSD   
  Vijay G. Chilkuri      : MRCI spin determinant printing, contributions to CSF-ICE 
  Pauline Colinet        : FMM embedding                                 
  Dipayan Datta          : RHF DLPNO-CCSD density                        
  Achintya Kumar Dutta   : EOM-CC, STEOM-CC                              
  Nicolas Foglia         : Exact transition moments, OPA infrastructure, MCD improvements    
  Dmitry Ganyushin       : Spin-Orbit,Spin-Spin,Magnetic field MRCI      
  Miquel Garcia-Rates    : C-PCM and meta-GGA Hessian, CCSD/C-PCM, Gaussian charge scheme 
  Tiago L. C. Gouveia    : GS-ROHF, GS-ROCIS                             
  Yang Guo               : DLPNO-NEVPT2, F12-NEVPT2, CIM, IAO-localization        
  Andreas Hansen         : Spin unrestricted coupled pair/coupled cluster methods 
  Ingolf Harden          : AUTO-CI MPn and infrastructure                
  Benjamin Helmich-Paris : MC-RPA, TRAH-(SCF,CASSCF), AVAS, COSX integrals, SCF dyn. polar., MC-PDFT, srDFT 
  Lee Huntington         : MR-EOM, pCC                                   
  Robert Izsak           : Overlap fitted RIJCOSX, COSX-SCS-MP3, EOM     
  Riya Kayal             : Wick's Theorem for AUTO-CI, AUTO-CI UHF-CCSDT 
  Emily Kempfer          : AUTO-CI RHF CISDT and CCSDT, approximate NEVPT4
  Christian Kollmar      : KDIIS, OOCD, Brueckner-CCSD(T), CCSD density, CASPT2, CASPT2-K, improved NEVPT2 
  Axel Koslowski         : Symmetry handling                             
  Simone Kossmann        : meta-GGA functionals, TD-DFT gradient, OOMP2, (MP2 Hessian; deprecated post 5.0) 
  Lucas Lang             : DCDCAS, Hyperfine gauge corrections, ICE-SOC+SSC
  Marvin Lechner         : AUTO-CI (C++ implementation), FIC-MRCC        
  Spencer Leger          : CASSCF response                               
  Dagmar Lenk            : GEPOL surface, SMD, ORCA-2-JSON               
  Dimitrios Liakos       : Extrapolation schemes; Compound Job, Property file
  Dimitrios Manganas     : Further ROCIS development; embedding schemes. LFT, Crystal Embedding 
  Dimitrios Pantazis     : SARC Basis sets                               
  Anastasios Papadopoulos: AUTO-CI, single reference methods and gradients 
  Taras Petrenko         : pre 6.0 DFT Hessian and TD-DFT gradient,  ECA, NRVS 
  Petra Pikulova         : Analytic Raman intensities                    
  Peter Pinski           : DLPNO-MP2, DLPNO-MP2 Gradient                 
  Shashank Vittal Rao    : ES-AILFT, MagRelax                            
  Christoph Reimann      : Effective Core Potentials                     
  Marius Retegan         : Local ZFS, SOC                                
  Christoph Riplinger    : Optimizer, TS searches, QM/MM, DLPNO-CCSD(T), (RO)-DLPNO pert. Triples 
  Michael Roemelt        : Original ROCIS implementation, recursive CI coupling coefficients
  Masaaki Saitow         : Open-shell DLPNO-CCSD energy and density      
  Barbara Sandhoefer     : DKH picture change effects                    
  Yorick L. A. Schmerwitz: GMF and freeze-and-release deltaSCF, NEB S-IDPP initial path                    
  Kantharuban Sivalingam : CASSCF convergence/infrastructure, NEVPT2, NEVPT3, NEVPT4(SD), FIC-MRCI and CEPA variants
  Bernardo de Souza      : ESD, SOC TD-DFT                               
  Georgi L. Stoychev     : AutoAux, RI-MP2 NMR, DLPNO-MP2 response, X2C  
  Van Anh Tran           : RI-MP2 g-tensors                              
  Willem Van den Heuvel  : Paramagnetic NMR                              
  Zikuan Wang            : NOTCH, Electric field optimization            
  Frank Wennmohs         : Technical directorship and infrastructure     
  Hang Xu                : AUTO-CI-Response properties                   
                                                                         
[FACCTs GmbH]                                                            
  Markus Bursch, Nicolas Foglia, Miquel Garcia-Rates, Ingolf Harden, Hagen Neugebauer, Anastasios Papadopoulos, 
  Christoph Riplinger, Bernardo de Souza, Georgi L. Stoychev                                                    
                                                                 
  APM, various basis sets, CI-OPT, improved COSX, DLPNO-Multilevel,           
  DOCKER, DRACO, updates on ESD, Fragmentator, GOAT, IRC, LR-CPCM, L-BFGS, MBIS, meta-GGA TD-DFT gradient, ML-optimized integration grids, 
  MM, NACMEs, nearIR, NEB, NEB-TS, NL-DFT gradient (VV10), 2- and 3-layer-ONIOM, interface openCOSMO-RS, QMMM,   
  Crystal-QMMM, RESP, rigid body optimization, SF, symmetry and pop. for TD-DFT, various functionals, SOLVATOR                                   
                                                                         
[Other institutions]                                                     
  V. Asgeirsson          : NEB                                           
  Christoph Bannwarth    : sTDA-DFT, sTD-DFT, PBEh-3c, B97-3c, D3        
  Giovanni Bistoni       : ETS/NOCV, ADLD/ADEX, COVALED                  
  Martin Brehm           : Molecular dynamics                            
  Ronald Cardenas        : ETS/NOCV                                      
  Martina Colucci        : COVALED                                       
  Sebastian Ehlert       : rSCAN, r2SCAN, r2SCAN-3c, D4, dhf basis sets  
  Marvin Friede          : D4 for Fr, Ra, Ac-Lr                          
  Lars Goerigk           : TD-DFT with DH, B97 family of functionals     
  Stefan Grimme          : VdW corrections, initial TS optimization, DFT functionals, gCP, sTDA/sTD-DF 
  Waldemar Hujo          : DFT-NL                                        
  H. Jonsson             : NEB                                           
  Holger Kruse           : gCP                                           
  Marcel Mueller         : wB97X-3c, vDZP basis set                      
  Hagen Neugebauer       : wr2SCAN, Native XTB                           
  Gianluca Regni         : ADLD/ADEX                                     
  Tobias Risthaus        : pre 6.0 range-separated hybrid DFT and stability analysis
  Lukas Wittmann         : regularized MP2, r2SCAN double-hybrids, wr2SCAN        
                                                                         
We gratefully acknowledge several colleagues who have allowed us to      
interface, adapt or use parts of their codes:                            
  Ed Valeev, F. Pavosevic, A. Kumar             : LibInt (2-el integral package), F12 methods 
  Garnet Chan, S. Sharma, J. Yang, R. Olivares  : DMRG                   
  Ulf Ekstrom                                   : XCFun DFT Library      
  Mihaly Kallay                                 : mrcc  (arbitrary order and MRCC methods)
  Frank Weinhold                                : gennbo (NPA and NBO analysis)           
  Simon Mueller                                 : openCOSMO-RS                            
  Christopher J. Cramer and Donald G. Truhlar   : smd solvation model                     
  S Lehtola, MJT Oliveira, MAL Marques          : LibXC Library                           
  Liviu Ungur et al                             : ANISO software                          


 Your calculation uses the libint2 library for the computation of 2-el integrals
 For citations please refer to: http://libint.valeyev.net

 Your ORCA version has been built with support for libXC version: 7.0.0
 For citations please refer to: https://libxc.gitlab.io

 This ORCA versions uses:
   CBLAS   interface :  Fast vector & matrix operations
   LAPACKE interface :  Fast linear algebra routines
   SCALAPACK package :  Parallel linear algebra routines
   Shared memory     :  Shared parallel matrices
   BLAS/LAPACK       :  OpenBLAS 0.3.29  USE64BITINT DYNAMIC_ARCH NO_AFFINITY SkylakeX SINGLE_THREADED
        Core in use  :  SkylakeX
   Copyright (c) 2011-2014, The OpenBLAS Project


  ***********************************
  * Starting time: Thu Mar 12 13:02:51 2026
  * Host name:     midway3-login4.rcc.local
  * Process ID:    2885133
  * Working dir.:  /home/rzhu16/orca_TS_search/sn2_f_cl/DFT_test
  ***********************************

Your calculation utilizes the geometrical counterpoise correction gCP
Please cite in your paper:
H.Kruse, S. Grimme J.Chem.Phys., 136, (2012), 154101 
   

Your calculation utilizes the atom-pairwise dispersion correction
based on EEQ partial charges (D4)


================================================================================

----- Orbital basis set information -----
Your calculation utilizes the basis: def2-mTZVPP
   Stefan Grimme, Andreas Hansen, Sebastian Ehlert, and Jan-Michael Mewes 
   J. Chem. Phys. 154, 064103 (2021). DOI: 10.1063/5.0040021

----- AuxJ basis set information -----
Your calculation utilizes the basis: def2-mTZVPP/J
   Stefan Grimme, Andreas Hansen, Sebastian Ehlert, and Jan-Michael Mewes 
   J. Chem. Phys. 154, 000000 (2021). DOI: 10.1063/5.0040021

================================================================================
                                        WARNINGS
                       Please study these warnings very carefully!
================================================================================



WARNING: SCAN, rSCAN, or r2SCAN functional requested.
  ===> : libXC variant has now been activated.



WARNING: Geometry Optimization
  ===> : Switching off AutoStart
         For restart on a previous wavefunction, please use MOREAD

================================================================================
                                       INPUT FILE
================================================================================
NAME = reactant_optfreq.inp
|  1> ! r2SCAN-3c Opt Freq PAL8 TightSCF
|  2> 
|  3> %pal
|  4>    nprocs 8
|  5> end
|  6> 
|  7> %scf
|  8>    MaxIter 150
|  9> end
| 10> 
| 11> * xyz -1 1
| 12>   C      -0.099062     -0.056443     -0.026535
| 13>   H      -0.084927      1.005793      0.108120
| 14>   H       0.826647     -0.577387      0.108504
| 15>   H      -1.011421     -0.581592      0.124259
| 16>   F      -0.239811     -0.138474      2.009748
| 17>   Cl     -0.132276     -0.076159     -2.089285
| 18> *
| 19> 
| 20>                          ****END OF INPUT****
================================================================================

                       *****************************
                       * Geometry Optimization Run *
                       *****************************

Geometry optimization settings:
Update method            Update   .... BFGS
Choice of coordinates    CoordSys .... (2022) Redundant Internals
Initial Hessian          InHess   .... Almloef's Model
Max. no of cycles        MaxIter  .... 50

Convergence Tolerances:
Energy Change            TolE     ....  5.0000e-06 Eh
Max. Gradient            TolMAXG  ....  3.0000e-04 Eh/bohr
RMS Gradient             TolRMSG  ....  1.0000e-04 Eh/bohr
Max. Displacement        TolMAXD  ....  4.0000e-03 bohr
RMS Displacement         TolRMSD  ....  2.0000e-03 bohr
Strict Convergence                .... False

------------------------------------------------------------------------------
                        ORCA OPTIMIZATION COORDINATE SETUP
------------------------------------------------------------------------------

The optimization will be done in redundant internal coordinates (2022)
Making redundant internal coordinates   ...  (2022 redundants) done
Evaluating the initial hessian          ...  (Almloef) done
Evaluating the coordinates              ...  done
Calculating the B-matrix                .... done
Calculating the G-matrix                .... done
The number of degrees of freedom        ....   21

    -----------------------------------------------------------------
                    Redundant Internal Coordinates


    -----------------------------------------------------------------
         Definition                    Initial Value    Approx d2E/dq
    -----------------------------------------------------------------
      1. B(H   1,C   0)                  1.0708         0.386374   
      2. B(H   2,C   0)                  1.0708         0.386454   
      3. B(H   3,C   0)                  1.0634         0.396997   
      4. B(F   4,H   3)                  2.0849         0.010000   
      5. B(F   4,C   0)                  2.0428         0.047259   
      6. B(F   4,H   2)                  2.2237         0.010000   
      7. B(F   4,H   1)                  2.2248         0.010000   
      8. B(Cl  5,H   2)                  2.4497         0.010000   
      9. B(Cl  5,H   3)                  2.4348         0.010000   
     10. B(Cl  5,H   1)                  2.4498         0.010000   
     11. B(Cl  5,C   0)                  2.0631         0.118257   
     12. A(H   1,C   0,H   3)          118.9043         0.298661   
     13. A(H   2,C   0,H   3)          118.9186         0.298671   
     14. A(H   1,C   0,Cl  5)           97.7828         0.283926   
     15. A(H   2,C   0,Cl  5)           97.7794         0.283935   
     16. A(H   3,C   0,Cl  5)           97.0792         0.285126   
     17. A(H   1,C   0,F   4)           85.1467         0.236683   
     18. A(H   2,C   0,F   4)           85.0847         0.236690   
     19. A(H   3,C   0,F   4)           77.2741         0.237593   
     20. A(F   4,C   0,Cl  5)          174.3532         0.227150   
     21. A(H   1,C   0,H   2)          117.0866         0.297387   
    -----------------------------------------------------------------

Number of atoms                         .... 6
Number of degrees of freedom            .... 21


         *************************************************************
         *                GEOMETRY OPTIMIZATION CYCLE   1            *
         *************************************************************
---------------------------------
CARTESIAN COORDINATES (ANGSTROEM)
---------------------------------
  C     -0.099062   -0.056443   -0.026535
  H     -0.084927    1.005793    0.108120
  H      0.826647   -0.577387    0.108504
  H     -1.011421   -0.581592    0.124259
  F     -0.239811   -0.138474    2.009748
  Cl    -0.132276   -0.076159   -2.089285

----------------------------
CARTESIAN COORDINATES (A.U.)
----------------------------
  NO LB      ZA    FRAG     MASS         X           Y           Z
   0 C     6.0000    0    12.011   -0.187200   -0.106662   -0.050144
   1 H     1.0000    0     1.008   -0.160489    1.900673    0.204317
   2 H     1.0000    0     1.008    1.562136   -1.091103    0.205043
   3 H     1.0000    0     1.008   -1.911309   -1.099050    0.234815
   4 F     9.0000    0    18.998   -0.453177   -0.261678    3.797873
   5 Cl   17.0000    0    35.453   -0.249965   -0.143920   -3.948176

--------------------------------
INTERNAL COORDINATES (ANGSTROEM)
--------------------------------
 C      0   0   0     0.000000000000     0.00000000     0.00000000
 H      1   0   0     1.070830092473     0.00000000     0.00000000
 H      1   2   0     1.070773241792   117.08662581     0.00000000
 H      1   2   3     1.063446871037   118.90432659   154.52888815
 F      1   2   3     2.042789226046    85.14673719    81.95163104
 Cl     1   2   3     2.063111594886    97.78281755   257.09412421

---------------------------
INTERNAL COORDINATES (A.U.)
---------------------------
 C      0   0   0     0.000000000000     0.00000000     0.00000000
 H      1   0   0     2.023575610736     0.00000000     0.00000000
 H      1   2   0     2.023468178518   117.08662581     0.00000000
 H      1   2   3     2.009623344235   118.90432659   154.52888815
 F      1   2   3     3.860312186553    85.14673719    81.95163104
 Cl     1   2   3     3.898715898052    97.78281755   257.09412421

---------------------
BASIS SET INFORMATION
---------------------
There are 4 groups of distinct atoms

 Group   1 Type C   : 11s6p1d contracted to 5s3p1d pattern {62111/411/1}
 Group   2 Type H   : 4s1p contracted to 2s1p pattern {31/1}
 Group   3 Type F   : 11s6p2d contracted to 5s3p2d pattern {62111/411/11}
 Group   4 Type Cl  : 14s9p2d contracted to 5s4p2d pattern {73211/6111/11}

Atom   0C    basis set group =>   1
Atom   1H    basis set group =>   2
Atom   2H    basis set group =>   2
Atom   3H    basis set group =>   2
Atom   4F    basis set group =>   3
Atom   5Cl   basis set group =>   4
---------------------------------
AUXILIARY/J BASIS SET INFORMATION
---------------------------------
There are 4 groups of distinct atoms

 Group   1 Type C   : 8s3p3d contracted to 6s3p3d pattern {311111/111/111}
 Group   2 Type H   : 5s2p1d contracted to 3s1p1d pattern {311/2/1}
 Group   3 Type F   : 8s3p4d contracted to 6s3p4d pattern {311111/111/1111}
 Group   4 Type Cl  : 14s5p5d2f contracted to 8s4p3d1f pattern {71111111/2111/311/2}

Atom   0C    basis set group =>   1
Atom   1H    basis set group =>   2
Atom   2H    basis set group =>   2
Atom   3H    basis set group =>   2
Atom   4F    basis set group =>   3
Atom   5Cl   basis set group =>   4


           ************************************************************
           *        Program running with 8 parallel MPI-processes     *
           *              working on a common directory               *
           ************************************************************
------------------------------------------------------------------------------
                             ORCA STARTUP CALCULATIONS
                           -- RI-GTO INTEGRALS CHOSEN --
------------------------------------------------------------------------------
------------------------------------------------------------------------------
                   ___                                                        
                  /   \      - P O W E R E D   B Y -                         
                 /     \                                                     
                 |  |  |   _    _      __       _____    __    __             
                 |  |  |  | |  | |    /  \     |  _  \  |  |  /  |          
                  \  \/   | |  | |   /    \    | | | |  |  | /  /          
                 / \  \   | |__| |  /  /\  \   | |_| |  |  |/  /          
                |  |  |   |  __  | /  /__\  \  |    /   |      \           
                |  |  |   | |  | | |   __   |  |    \   |  |\   \          
                \     /   | |  | | |  |  |  |  | |\  \  |  | \   \       
                 \___/    |_|  |_| |__|  |__|  |_| \__\ |__|  \__/        
                                                                              
                      - O R C A' S   B I G   F R I E N D -                    
                                      &                                       
                       - I N T E G R A L  F E E D E R -                       
                                                                              
 v1 FN, 2020, v2 2021, v3 2022-2024                                           
------------------------------------------------------------------------------


----------------------
SHARK INTEGRAL PACKAGE
----------------------

Number of atoms                             ...      6
Number of basis functions                   ...     85
Number of shells                            ...     39
Maximum angular momentum                    ...      2
Integral batch strategy                     ... SHARK/LIBINT Hybrid
RI-J (if used) integral strategy            ... SPLIT-RIJ (Revised 2003 algorithm where possible)
Printlevel                                  ...      1
Contraction scheme used                     ... SEGMENTED contraction
Prescreening option                         ... SCHWARTZ
   Thresh                                   ... 2.500e-11
   Tcut                                     ... 2.500e-12
   Tpresel                                  ... 2.500e-12 
Coulomb Range Separation                    ... NOT USED
Exchange Range Separation                   ... NOT USED
Multipole approximations                    ... NOT USED
Finite Nucleus Model                        ... NOT USED
CABS basis                                  ... NOT available
Auxiliary Coulomb fitting basis             ... AVAILABLE
   # of basis functions in Aux-J            ...    140
   # of shells in Aux-J                     ...     56
   Maximum angular momentum in Aux-J        ...      3
Auxiliary J/K fitting basis                 ... NOT available
Auxiliary Correlation fitting basis         ... NOT available
Auxiliary 'external' fitting basis          ... NOT available

Checking pre-screening integrals            ... done (  0.0 sec) Dimension = 39
   => SHARK Basis and OBASIS are compatible. Storing Pre-screening
Shell pair information
Shell pair cut-off parameter TPreSel        ...   2.5e-12
Total number of shell pairs                 ...       780
Shell pairs after pre-screening             ...       732
Total number of primitive shell pairs       ...      3096
Primitive shell pairs kept                  ...      2273
          la=0 lb=0:    209 shell pairs
          la=1 lb=0:    259 shell pairs
          la=1 lb=1:     88 shell pairs
          la=2 lb=0:     99 shell pairs
          la=2 lb=1:     62 shell pairs
          la=2 lb=2:     15 shell pairs

Checking whether 4 symmetric matrices of dimension 85 fit in memory
:Max Core in MB      =   4096.00
 MB in use           =      2.92
 MB left             =   4093.08
 MB needed           =      0.11
 Data fit in memory  = YES
Calculating RI/J V-Matrix + Cholesky decomp.... done (  0.0 sec)
Calculating Nuclear repulsion               ... done (  0.0 sec) ENN=     87.281320916818 Eh

Diagonalization of the overlap matrix:
Smallest eigenvalue                        ... 6.526e-03
Time for diagonalization                   ...    0.001 sec
Threshold for overlap eigenvalues          ... 1.000e-07
Number of eigenvalues below threshold      ... 0
Time for construction of square roots      ...    0.001 sec
Total time needed                          ...    0.079 sec

-------------------
DFT GRID GENERATION
-------------------

General Integration Accuracy     IntAcc      ... 4.388
Radial Grid Type                 RadialGrid  ... OptM3 with GC (2021)
Angular Grid (max. ang.)         AngularGrid ... 4 (Lebedev-302)
Angular grid pruning method      GridPruning ... 4 (adaptive)
Weight generation scheme         WeightScheme... mBecke (2022)
Basis function cutoff            BFCut       ... 1.0000e-11
Integration weight cutoff        WCut        ... 1.0000e-14
Partially contracted basis set               ... off
Rotationally invariant grid construction     ... off
Angular grids for H and He will be reduced by one unit

Total number of grid points                  ...    29397
Total number of batches                      ...      461
Average number of points per batch           ...       63
Average number of grid points per atom       ...     4900
Grids setup in   0.5 sec
Initializing property integral containers    ... done (  0.0 sec)

SHARK setup successfully completed in   0.9 seconds

Maximum memory used throughout the entire STARTUP-calculation: 9.8 MB


           ************************************************************
           *        Program running with 8 parallel MPI-processes     *
           *              working on a common directory               *
           ************************************************************
-------------------------------------------------------------------------------
                                 ORCA GUESS
                   Start orbitals & Density for SCF / CASSCF
-------------------------------------------------------------------------------

------------
SCF SETTINGS
------------
Hamiltonian:
 Density Functional     Method          .... DFT(GTOs)
  Functional kind                       .... Exchange
  Functional name                       .... Re-regularized SCAN exchange by Furness et al
  Functional family                     .... MGGA
  Functional refs                              
    [ 0] J. W. Furness, A. D. Kaplan, J. Ning, J. P. Perdew, and J. Sun.,  J. Phys. Chem. Lett. 11, 8208-8215 (2020), doi: 10.1021/acs.jpclett.0c02405
    [ 1] J. W. Furness, A. D. Kaplan, J. Ning, J. P. Perdew, and J. Sun.,  J. Phys. Chem. Lett. 11, 9248-9248 (2020), doi: 10.1021/acs.jpclett.0c03077
  Functional external parameters        .... 6
    Parameter  0 _c1        =  6.670000e-01 : c1 parameter        
    Parameter  1 _c2        =  8.000000e-01 : c2 parameter        
    Parameter  2 _d         =  1.240000e+00 : d parameter         
    Parameter  3 _k1        =  6.500000e-02 : k1 parameter        
    Parameter  4 _eta       =  1.000000e-03 : eta parameter       
    Parameter  5 _dp2       =  3.610000e-01 : dp2 parameter       
  Functional kind                       .... Correlation
  Functional name                       .... Re-regularized SCAN correlation by Furness et al
  Functional family                     .... MGGA
  Functional refs                              
    [ 0] J. W. Furness, A. D. Kaplan, J. Ning, J. P. Perdew, and J. Sun.,  J. Phys. Chem. Lett. 11, 8208-8215 (2020), doi: 10.1021/acs.jpclett.0c02405
    [ 1] J. W. Furness, A. D. Kaplan, J. Ning, J. P. Perdew, and J. Sun.,  J. Phys. Chem. Lett. 11, 9248-9248 (2020), doi: 10.1021/acs.jpclett.0c03077
  Functional external parameters        .... 1
    Parameter  0 _eta       =  1.000000e-03 : Regularization parameter
 Gradients option       PostSCFGGA      .... off
 RI-approximation to the Coulomb term is turned on
   Number of AuxJ basis functions       .... 140


General Settings:
 Integral files         IntName         .... reactant_optfreq
 Hartree-Fock type      HFTyp           .... RHF
 Total Charge           Charge          ....   -1
 Multiplicity           Mult            ....    1
 Number of Electrons    NEL             ....   36
 Basis Dimension        Dim             ....   85
 Nuclear Repulsion      ENuc            ....     87.2813209168 Eh

Convergence Acceleration:
 AO-DIIS                CNVDIIS         .... on
   Start iteration      DIISMaxIt       ....    12
   Startup error        DIISStart       ....  0.200000
   # of expansion vecs  DIISMaxEq       ....     5
   Bias factor          DIISBfac        ....   1.050
   Max. coefficient     DIISMaxC        ....  10.000
 MO-DIIS                CNVKDIIS        .... off
 Trust-Rad. Augm. Hess. CNVTRAH         .... auto
   Auto Start mean grad. ratio tolernc. ....  1.125000
   Auto Start start iteration           ....    50
   Auto Start num. interpolation iter.  ....    10
   Max. Number of Micro iterations      ....    24
   Max. Number of Macro iterations      .... Maxiter - #DIIS iter
   Number of Davidson start vectors     ....     2
   Converg. threshold    (grad. norm)   ....   1.000e-05
   Grad. Scal. Fac. for Micro threshold ....   0.100
   Minimum threshold for Micro iter.    ....   1.000e-02
   NR start threshold (gradient norm)   ....   1.000e-04
   Initial trust radius                 ....   0.400
   Minimum AH scaling param. (alpha)    ....   1.000
   Maximum AH scaling param. (alpha)    .... 1000.000
   Quad. conv. algorithm                .... NR
   White noise on init. David. guess    .... on
   Maximum white noise                  ....   0.010
   Pseudo random numbers                .... off
   Inactive MOs                         .... canonical
   Orbital update algorithm             .... Taylor
   Preconditioner                       .... Diag
   Full preconditioner red. dimension   ....   250
   COSX micro iterations for RIJONX calc.... off
 SOSCF                 CNVSOSCF           .... on
   Start iteration     SOSCFMaxIt         ....   150
   Startup grad/error  SOSCFStart         ....  0.003300
   Hessian update      SOSCFHessUp        .... L-BFGS
   Autom. constraints  SOSCFAutoConstrain .... off
 Level Shifting         CNVShift        .... on
   Level shift para.    LevelShift      ....    0.2500
   Turn off err/grad.   ShiftErr        ....    0.0010
 Zerner damping         CNVZerner       .... off
 Static damping         CNVDamp         .... on
   Fraction old density DampFac         ....    0.7000
   Max. Damping (<1)    DampMax         ....    0.9800
   Min. Damping (>=0)   DampMin         ....    0.0000
   Turn off err/grad.   DampErr         ....    0.1000

SCF Procedure:
 Maximum # iterations   MaxIter         ....   150
 SCF integral mode      SCFMode         .... Direct
   Integral package                     .... SHARK and LIBINT hybrid scheme
 Reset frequency        DirectResetFreq ....    20
 Integral Threshold     Thresh          ....  2.500e-11 Eh
 Primitive CutOff       TCut            ....  2.500e-12 Eh

Convergence Tolerance:
 Convergence Check Mode ConvCheckMode   .... Total+1el-Energy
 Convergence forced     ConvForced      .... 0
 Energy Change          TolE            ....  1.000e-08 Eh
 1-El. energy change                    ....  1.000e-05 Eh
 Orbital Gradient       TolG            ....  1.000e-05
 Orbital Rotation angle TolX            ....  1.000e-05
 DIIS Error             TolErr          ....  5.000e-07

------------------------------
INITIAL GUESS: MODEL POTENTIAL
------------------------------
Loading Hartree-Fock densities                     ... done
Calculating cut-offs                               ... done
Initializing the effective Hamiltonian             ... done
Setting up the integral package (SHARK)            ... done
Starting the Coulomb interaction                   ... done (   0.1 sec)
Making the grid                                    ... done (   0.1 sec)
Mapping shells                                     ... done
Starting the XC term evaluation                    ... done (   0.0 sec)
  promolecular density results
     # of electrons  =     34.997821941
     EX              =    -43.262401618
     EC              =     -1.240704637
     EX+EC           =    -44.503106255
Transforming the Hamiltonian                       ... done (   0.1 sec)
Diagonalizing the Hamiltonian                      ... done (   0.0 sec)
Back transforming the eigenvectors                 ... done (   0.0 sec)
Now organizing SCF variables                       ... done
                      ------------------
                      INITIAL GUESS DONE (   0.3 sec)
                      ------------------
             **** ENERGY FILE WAS UPDATED (reactant_optfreq.en.tmp) ****
Finished Guess after   0.7 sec
Maximum memory used throughout the entire GUESS-calculation: 5.2 MB


           ************************************************************
           *        Program running with 8 parallel MPI-processes     *
           *              working on a common directory               *
           ************************************************************

-------------------------------------------------------------------------------------------
                                      ORCA LEAN-SCF
                              memory conserving SCF solver
-------------------------------------------------------------------------------------------

----------------------------------------D-I-I-S--------------------------------------------
Iteration    Energy (Eh)           Delta-E    RMSDP     MaxDP     DIISErr   Damp  Time(sec)
-------------------------------------------------------------------------------------------
               ***  Starting incremental Fock matrix formation  ***
    1    -599.7939257527269774     0.00e+00  1.32e-02  7.07e-02  3.58e-01  0.700   0.5
    2    -599.8679763754452097    -7.41e-02  8.68e-03  4.53e-02  1.00e-01  0.700   0.4
                               ***Turning on AO-DIIS***
    3    -599.8895921387752423    -2.16e-02  4.22e-03  2.62e-02  4.22e-02  0.700   0.4
    4    -599.9050700818849009    -1.55e-02  7.61e-03  4.43e-02  2.55e-02  0.000   0.7
    5    -599.9415477984052814    -3.65e-02  2.11e-03  1.57e-02  1.19e-02  0.000   0.4
    6    -599.9421078576206128    -5.60e-04  6.89e-04  4.63e-03  3.41e-03  0.000   0.4
                              *** Initializing SOSCF ***
---------------------------------------S-O-S-C-F--------------------------------------
Iteration    Energy (Eh)           Delta-E    RMSDP     MaxDP     MaxGrad    Time(sec)
--------------------------------------------------------------------------------------
    7    -599.9421609461587650    -5.31e-05  3.41e-04  2.47e-03  1.20e-03     0.4
               *** Restarting incremental Fock matrix formation ***
    8    -599.9421690272299656    -8.08e-06  2.15e-04  1.45e-03  2.58e-04     0.5
    9    -599.9421694344273419    -4.07e-07  7.90e-05  4.61e-04  4.55e-04     0.5
   10    -599.9421703604579079    -9.26e-07  7.91e-05  4.36e-04  1.42e-04     0.7
   11    -599.9421704068276995    -4.64e-08  3.27e-05  2.12e-04  1.52e-04     0.4
   12    -599.9421704914540214    -8.46e-08  2.81e-05  1.54e-04  7.68e-05     0.3
   13    -599.9421705298426559    -3.84e-08  1.10e-05  5.28e-05  3.54e-05     0.4
   14    -599.9421705415841188    -1.17e-08  5.18e-06  3.57e-05  1.27e-05     0.5
   15    -599.9421705425107803    -9.27e-10  2.62e-06  1.83e-05  5.14e-06     0.2
                 **** Energy Check signals convergence ****

               *****************************************************
               *                     SUCCESS                       *
               *           SCF CONVERGED AFTER  15 CYCLES          *
               *****************************************************

             **** ENERGY FILE WAS UPDATED (reactant_optfreq.en.tmp) ****

----------------
TOTAL SCF ENERGY
----------------

Total Energy       :       -599.94217054244780 Eh          -16325.25642 eV

Components:
Nuclear Repulsion  :         87.28132091681775 Eh            2375.04549 eV
Electronic Energy  :       -687.22349145926557 Eh          -18700.30191 eV
One Electron Energy:      -1010.80290015718333 Eh          -27505.34526 eV
Two Electron Energy:        323.57940869791776 Eh            8805.04335 eV

Virial components:
Potential Energy   :      -1198.47436027522963 Eh          -32612.14531 eV
Kinetic Energy     :        598.53218973278172 Eh           16286.88889 eV
Virial Ratio       :          2.00235573095959

DFT components:
N(Alpha)           :       18.000006477882 electrons
N(Beta)            :       18.000006477882 electrons
N(Total)           :       36.000012955765 electrons
E(X)               :      -44.120455497780 Eh       
E(C)               :       -1.260435431352 Eh       
E(XC)              :      -45.380890929132 Eh       

---------------
SCF CONVERGENCE
---------------

  Last Energy change         ...    9.2666e-10  Tolerance :   1.0000e-08
  Last MAX-Density change    ...    1.8307e-05  Tolerance :   1.0000e-07
  Last RMS-Density change    ...    2.6232e-06  Tolerance :   5.0000e-09
  Last DIIS Error            ...    1.1977e-03  Tolerance :   5.0000e-07
  Last Orbital Gradient      ...    5.1425e-06  Tolerance :   1.0000e-05
  Last Orbital Rotation      ...    1.3246e-05  Tolerance :   1.0000e-05


----------------
ORBITAL ENERGIES
----------------

  NO   OCC          E(Eh)            E(eV) 
   0   2.0000    -100.981598     -2747.8490 
   1   2.0000     -24.109054      -656.0407 
   2   2.0000      -9.897813      -269.3332 
   3   2.0000      -9.138060      -248.6593 
   4   2.0000      -6.881524      -187.2558 
   5   2.0000      -6.875531      -187.0927 
   6   2.0000      -6.875522      -187.0925 
   7   2.0000      -0.743838       -20.2409 
   8   2.0000      -0.566211       -15.4074 
   9   2.0000      -0.449255       -12.2248 
  10   2.0000      -0.226567        -6.1652 
  11   2.0000      -0.223964        -6.0944 
  12   2.0000      -0.146169        -3.9775 
  13   2.0000      -0.076328        -2.0770 
  14   2.0000      -0.076122        -2.0714 
  15   2.0000      -0.022422        -0.6101 
  16   2.0000      -0.017733        -0.4825 
  17   2.0000      -0.016415        -0.4467 
  18   0.0000       0.175194         4.7673 
  19   0.0000       0.274686         7.4746 
  20   0.0000       0.355585         9.6760 
  21   0.0000       0.356415         9.6985 
  22   0.0000       0.384491        10.4625 
  23   0.0000       0.390169        10.6170 
  24   0.0000       0.408706        11.1215 
  25   0.0000       0.470783        12.8107 
  26   0.0000       0.559516        15.2252 
  27   0.0000       0.559595        15.2274 
  28   0.0000       0.577203        15.7065 
*Only the first 10 virtual orbitals were printed.

                    ********************************
                    * MULLIKEN POPULATION ANALYSIS *
                    ********************************

-----------------------
MULLIKEN ATOMIC CHARGES
-----------------------
   0 C :   -0.179777
   1 H :    0.161125
   2 H :    0.161261
   3 H :    0.176885
   4 F :   -0.748579
   5 Cl:   -0.570915
Sum of atomic charges:   -1.0000000

--------------------------------
MULLIKEN REDUCED ORBITAL CHARGES
--------------------------------
  0 C s       :     3.316823  s :     3.316823
      pz      :     0.610762  p :     2.835245
      px      :     1.116672
      py      :     1.107812
      dz2     :     0.014307  d :     0.027708
      dxz     :     0.002054
      dyz     :     0.002013
      dx2y2   :     0.004871
      dxy     :     0.004462

  1 H s       :     0.819634  s :     0.819634
      pz      :     0.003978  p :     0.019241
      px      :     0.003466
      py      :     0.011797

  2 H s       :     0.819493  s :     0.819493
      pz      :     0.003984  p :     0.019246
      px      :     0.009710
      py      :     0.005552

  3 H s       :     0.803010  s :     0.803010
      pz      :     0.004734  p :     0.020105
      px      :     0.009832
      py      :     0.005540

  4 F s       :     3.979931  s :     3.979931
      pz      :     1.800251  p :     5.770389
      px      :     1.984595
      py      :     1.985543
      dz2     :    -0.000252  d :    -0.001740
      dxz     :    -0.000757
      dyz     :    -0.000703
      dx2y2   :    -0.000022
      dxy     :    -0.000006

  5 Cls       :     5.949402  s :     5.949402
      pz      :     3.609668  p :    11.594594
      px      :     3.992471
      py      :     3.992454
      dz2     :     0.013144  d :     0.026919
      dxz     :     0.006825
      dyz     :     0.006759
      dx2y2   :     0.000112
      dxy     :     0.000080



                     *******************************
                     * LOEWDIN POPULATION ANALYSIS *
                     *******************************

----------------------
LOEWDIN ATOMIC CHARGES
----------------------
   0 C :   -0.301627
   1 H :    0.153404
   2 H :    0.153466
   3 H :    0.161767
   4 F :   -0.765785
   5 Cl:   -0.401225

-------------------------------
LOEWDIN REDUCED ORBITAL CHARGES
-------------------------------
  0 C s       :     3.083811  s :     3.083811
      pz      :     0.779093  p :     3.151910
      px      :     1.188240
      py      :     1.184577
      dz2     :     0.032328  d :     0.065905
      dxz     :     0.003771
      dyz     :     0.003680
      dx2y2   :     0.013536
      dxy     :     0.012591

  1 H s       :     0.800887  s :     0.800887
      pz      :     0.008088  p :     0.045709
      px      :     0.007716
      py      :     0.029905

  2 H s       :     0.800810  s :     0.800810
      pz      :     0.008101  p :     0.045724
      px      :     0.024370
      py      :     0.013253

  3 H s       :     0.789929  s :     0.789929
      pz      :     0.009995  p :     0.048304
      px      :     0.024957
      py      :     0.013352

  4 F s       :     3.939665  s :     3.939665
      pz      :     1.808423  p :     5.780645
      px      :     1.985581
      py      :     1.986641
      dz2     :     0.025113  d :     0.045474
      dxz     :     0.010438
      dyz     :     0.009271
      dx2y2   :     0.000442
      dxy     :     0.000210

  5 Cls       :     5.811579  s :     5.811579
      pz      :     3.578129  p :    11.532997
      px      :     3.977432
      py      :     3.977436
      dz2     :     0.033418  d :     0.056650
      dxz     :     0.011567
      dyz     :     0.011324
      dx2y2   :     0.000201
      dxy     :     0.000140



                      *****************************
                      * MAYER POPULATION ANALYSIS *
                      *****************************

  NA   - Mulliken gross atomic population
  ZA   - Total nuclear charge
  QA   - Mulliken gross atomic charge
  VA   - Mayer's total valence
  BVA  - Mayer's bonded valence
  FA   - Mayer's free valence

  ATOM       NA         ZA         QA         VA         BVA        FA
  0 C      6.1798     6.0000    -0.1798     3.8083     3.8083     0.0000
  1 H      0.8389     1.0000     0.1611     0.9541     0.9541    -0.0000
  2 H      0.8387     1.0000     0.1613     0.9541     0.9541     0.0000
  3 H      0.8231     1.0000     0.1769     0.9535     0.9535     0.0000
  4 F      9.7486     9.0000    -0.7486     0.3467     0.3467     0.0000
  5 Cl    17.5709    17.0000    -0.5709     0.6711     0.6711    -0.0000

  Mayer bond orders larger than 0.100000
B(  0-C ,  1-H ) :   0.9673 B(  0-C ,  2-H ) :   0.9673 B(  0-C ,  3-H ) :   0.9662 
B(  0-C ,  4-F ) :   0.3018 B(  0-C ,  5-Cl) :   0.6057 

-------
TIMINGS
-------

Total SCF time: 0 days 0 hours 0 min 7 sec 

Total time                  ....       7.716 sec
Sum of individual times     ....       7.240 sec  ( 93.8%)

SCF preparation             ....       0.513 sec  (  6.7%)
Fock matrix formation       ....       5.428 sec  ( 70.3%)
  Startup                   ....       0.036 sec  (  0.7% of F)
  Split-RI-J                ....       0.875 sec  ( 16.1% of F)
  XC integration            ....       3.813 sec  ( 70.3% of F)
    XC Preparation          ....       0.000 sec  (  0.0% of XC)
    Basis function eval.    ....       0.461 sec  ( 12.1% of XC)
    Density eval.           ....       0.567 sec  ( 14.9% of XC)
    XC-Functional eval.     ....       0.357 sec  (  9.4% of XC)
    XC-Potential eval.      ....       0.343 sec  (  9.0% of XC)
Diagonalization             ....       0.000 sec  (  0.0%)
Density matrix formation    ....       0.203 sec  (  2.6%)
Total Energy calculation    ....       0.035 sec  (  0.4%)
Population analysis         ....       0.081 sec  (  1.0%)
Orbital Transformation      ....       0.087 sec  (  1.1%)
Orbital Orthonormalization  ....       0.000 sec  (  0.0%)
DIIS solution               ....       0.523 sec  (  6.8%)
SOSCF solution              ....       0.370 sec  (  4.8%)
Finished LeanSCF after   7.8 sec

Maximum memory used throughout the entire LEANSCF-calculation: 4.8 MB


           ************************************************************
           *        Program running with 8 parallel MPI-processes     *
           *              working on a common directory               *
           ************************************************************

------------------------------------------------------------------------------
                         ORCA PROPERTY INTEGRAL CALCULATIONS
------------------------------------------------------------------------------

GBWName                                   ... reactant_optfreq.gbw
Number of atoms                           ...      6
Number of basis functions                 ...     85
Max core memory                           ...   4096 MB

Dipole integrals                          ... YES
Quadrupole integrals                      ...  NO
Linear momentum integrals                 ...  NO
Angular momentum integrals                ...  NO
Higher moments length integrals           ...  NO
Higher moments velocity integrals         ...  NO
Kinetic energy integrals                  ...  NO
GIAO right hand sides                     ...  NO
GIAO dipole derivative integrals          ...  NO
SOC integrals                             ...  NO
EPR diamagnetic integrals (GIAO)          ...  NO
EPR gauge integrals                       ...  NO
Field gradient integrals                  ...  NO (   0 nuclei)
Spin-dipole/Fermi contact integrals       ...  NO (   0 nuclei)
Contact density integrals                 ...  NO (   0 nuclei)
Nucleus-orbit integrals                   ...  NO (   0 nuclei)
Geometric perturbations                   ...  NO (   6 nuclei)

Choice of electric origin   ... Center of mass
Position of electric origin ... ( -0.2912, -0.1676, -0.9754) 
Choice of magnetic origin   ... GIAO
Position of magnetic origin ... (  0.0000,  0.0000,  0.0000) 

Calculating integrals                     ... Electric Dipole (Length)     done (  0.0 sec)

Property integrals calculated in   0.0 sec

Maximum memory used throughout the entire PROPINT-calculation: 5.4 MB


-------------------------------------------------------------------------------
                          DFT DISPERSION CORRECTION                            
                                                                               
                                DFTD4 V3.4.0                                   
-------------------------------------------------------------------------------
The R2SCAN3C composite method is recognized
Using three-body term ABC
Active option DFTDOPT                   ...         5   

-------------------------   ----------------
Dispersion correction           -0.000840404
-------------------------   ----------------

------------------   -----------------
gCP correction             0.006010696
------------------   -----------------

-------------------------   --------------------
FINAL SINGLE POINT ENERGY      -599.937000250696
-------------------------   --------------------



           ************************************************************
           *        Program running with 8 parallel MPI-processes     *
           *              working on a common directory               *
           ************************************************************
------------------------------------------------------------------------------
                         ORCA SCF GRADIENT CALCULATION
------------------------------------------------------------------------------

Nuc. rep. gradient        (SHARK) ... done (  0.0 sec)
HCore & Overlap gradient  (SHARK) ... done (  0.0 sec)
Split-RIJ-J gradient      (SHARK) ... done (  0.5 sec)
XC gradient                       ... done (  0.5 sec)
Dispersion correction             ... done (  0.1 sec)

-------------------
DISPERSION GRADIENT
-------------------

   1   C   :    0.000000432    0.000000253   -0.000000157
   2   H   :   -0.000000224   -0.000004289    0.000003775
   3   H   :   -0.000003826    0.000001960    0.000003781
   4   H   :    0.000003947    0.000002270    0.000004715
   5   F   :   -0.000000879   -0.000000510    0.000023544
   6   Cl  :    0.000000550    0.000000317   -0.000035657

Difference to translation invariance:
           :    0.0000000000   -0.0000000000   -0.0000000000

Difference to rotation invariance:
           :    0.0000000000   -0.0000000000   -0.0000000000

Norm of the Dispersion gradient    ...    0.0000439987
RMS gradient                       ...    0.0000103706
MAX gradient                       ...    0.0000356572
gCP correction                   ... done

------------------
CARTESIAN GRADIENT
------------------

   1   C   :   -0.001423194   -0.000835076   -0.010794414
   2   H   :    0.001363709   -0.004113339   -0.002029012
   3   H   :   -0.002868476    0.003265008   -0.002018512
   4   H   :    0.006523606    0.003772766   -0.000701756
   5   F   :   -0.002326604   -0.001349701   -0.004244077
   6   Cl  :   -0.001269041   -0.000739658    0.019787769

Difference to translation invariance:
           :   -0.0000000000   -0.0000000000   -0.0000000000

Difference to rotation invariance:
           :   -0.0000198608   -0.0000435616    0.0000072173

Norm of the Cartesian gradient     ...    0.0253247937
RMS gradient                       ...    0.0059691111
MAX gradient                       ...    0.0197877694

-------
TIMINGS
-------

Total SCF gradient time     ....        1.389 sec

Densities                   ....       0.000 sec  (  0.0%)
One electron gradient       ....       0.005 sec  (  0.4%)
RI-J Coulomb gradient       ....       0.488 sec  ( 35.1%)
XC gradient                 ....       0.493 sec  ( 35.5%)

Maximum memory used throughout the entire SCFGRAD-calculation: 25.1 MB
------------------------------------------------------------------------------
                         ORCA GEOMETRY RELAXATION STEP
------------------------------------------------------------------------------

Reading the OPT-File                    .... done
Getting information on internals        .... done
Copying old internal coords+grads       .... done
Making the new internal coordinates     .... (2022 redundants) done
Validating the new internal coordinates .... (2022 redundants) done
Calculating the B-matrix                .... done
Calculating the G,G- and P matrices     .... done
Transforming gradient to internals      .... done
Projecting the internal gradient        .... done
Number of atoms                         ....   6
Number of internal coordinates          ....  21
Current Energy                          ....  -599.937000251 Eh
Current gradient norm                   ....     0.025324794 Eh/bohr
Maximum allowed component of the step   ....  0.300
Current trust radius                    ....  0.300
Evaluating the initial hessian          ....  (Almloef) done
Projecting the Hessian                  .... done
Forming the augmented Hessian           .... done
Diagonalizing the augmented Hessian     .... done
Last element of RFO vector              ....  0.966006350
Lowest eigenvalues of augmented Hessian:
 -0.003140017  0.020796442  0.039863030  0.060042888  0.067204039
Length of the computed step             ....  0.267615571
The final length of the internal step   ....  0.267615571
Converting the step to Cartesian space:
 Initial RMS(Int)=    0.0583985054
Transforming coordinates:
 Iter   0:  RMS(Cart)=    0.0342441543 RMS(Int)=    0.0585536309
done
Storing new coordinates                 .... done

                                .--------------------.
          ----------------------|Geometry convergence|-------------------------
          Item                value                   Tolerance       Converged
          ---------------------------------------------------------------------
          RMS gradient        0.0029308646            0.0001000000      NO
          MAX gradient        0.0065479158            0.0003000000      NO
          RMS step            0.0583985054            0.0020000000      NO
          MAX step            0.1319549601            0.0040000000      NO
          -------------------------------------------------------------------------
          ........................................................
          Max(Bonds)      0.0698      Max(Angles)    1.17
          Max(Dihed)        0.00      Max(Improp)    0.00
          ---------------------------------------------------------------------

The optimization has not yet converged - more geometry cycles are needed


    ---------------------------------------------------------------------------
                         Redundant Internal Coordinates
                            (Angstroem and degrees)

        Definition                    Value    dE/dq     Step     New-Value
    ----------------------------------------------------------------------------
     1. B(H   1,C   0)                1.0708 -0.001805  0.0045    1.0753   
     2. B(H   2,C   0)                1.0708 -0.001798  0.0045    1.0753   
     3. B(H   3,C   0)                1.0634 -0.002680  0.0084    1.0718   
     4. B(F   4,H   3)                2.0849 -0.004637  0.0403    2.1252   
     5. B(F   4,C   0)                2.0428  0.001180  0.0257    2.0685   
     6. B(F   4,H   2)                2.2237 -0.000679  0.0161    2.2398   
     7. B(F   4,H   1)                2.2248 -0.000658  0.0160    2.2408   
     8. B(Cl  5,H   2)                2.4497 -0.004085  0.0611    2.5108   
     9. B(Cl  5,H   3)                2.4348 -0.006494  0.0698    2.5046   
    10. B(Cl  5,H   1)                2.4498 -0.004076  0.0611    2.5109   
    11. B(Cl  5,C   0)                2.0631 -0.006548  0.0674    2.1305   
    12. A(H   1,C   0,H   3)          118.90  0.000470   -0.19    118.72   
    13. A(H   2,C   0,H   3)          118.92  0.000512   -0.19    118.73   
    14. A(H   1,C   0,Cl  5)           97.78  0.001670   -0.13     97.65   
    15. A(H   2,C   0,Cl  5)           97.78  0.001663   -0.13     97.65   
    16. A(H   3,C   0,Cl  5)           97.08  0.000507    0.29     97.37   
    17. A(H   1,C   0,F   4)           85.15 -0.000521   -0.49     84.66   
    18. A(H   2,C   0,F   4)           85.08 -0.000534   -0.48     84.60   
    19. A(H   3,C   0,F   4)           77.27 -0.002536    0.88     78.15   
    20. A(F   4,C   0,Cl  5)          174.35 -0.002029    1.17    175.52   
    21. A(H   1,C   0,H   2)          117.09 -0.002678    0.36    117.45   
    ----------------------------------------------------------------------------

Geometry step timings:
Preparation and reading OPT file:      0.000 s ( 2.057 %)
Internal coordinates            :      0.000 s ( 1.874 %)
B/P matrices and projection     :      0.000 s ( 7.130 %)
Hessian update/contruction      :      0.001 s (53.885 %)
Making the step                 :      0.000 s ( 9.415 %)
Converting the step to Cartesian:      0.000 s ( 2.468 %)
Storing new data                :      0.000 s ( 4.982 %)
Checking convergence            :      0.000 s ( 3.473 %)
Final printing                  :      0.000 s (14.305 %)
Total time                      :      0.002 s

Time for energy+gradient        :     13.448 s
Time for complete geometry iter :     14.163 s

         *************************************************************
         *                GEOMETRY OPTIMIZATION CYCLE   2            *
         *************************************************************
---------------------------------
CARTESIAN COORDINATES (ANGSTROEM)
---------------------------------
  C     -0.103081   -0.058762   -0.020341
  H     -0.092881    1.007668    0.117328
  H      0.824260   -0.585269    0.117670
  H     -1.023067   -0.588355    0.127529
  F     -0.225236   -0.130007    2.043272
  Cl    -0.120845   -0.069537   -2.150647

----------------------------
CARTESIAN COORDINATES (A.U.)
----------------------------
  NO LB      ZA    FRAG     MASS         X           Y           Z
   0 C     6.0000    0    12.011   -0.194796   -0.111044   -0.038439
   1 H     1.0000    0     1.008   -0.175520    1.904216    0.221717
   2 H     1.0000    0     1.008    1.557627   -1.105998    0.222364
   3 H     1.0000    0     1.008   -1.933316   -1.111829    0.240995
   4 F     9.0000    0    18.998   -0.425634   -0.245678    3.861225
   5 Cl   17.0000    0    35.453   -0.228365   -0.131405   -4.064133

--------------------------------
INTERNAL COORDINATES (ANGSTROEM)
--------------------------------
 C      0   0   0     0.000000000000     0.00000000     0.00000000
 H      1   0   0     1.075327446936     0.00000000     0.00000000
 H      1   2   0     1.075276306278   117.45059569     0.00000000
 H      1   2   3     1.071777449369   118.71911650   154.44912483
 F      1   2   3     2.068452794650    84.66341931    81.08942317
 Cl     1   2   3     2.130407101057    97.64954323   257.22896134

---------------------------
INTERNAL COORDINATES (A.U.)
---------------------------
 C      0   0   0     0.000000000000     0.00000000     0.00000000
 H      1   0   0     2.032074378997     0.00000000     0.00000000
 H      1   2   0     2.031977737160   117.45059569     0.00000000
 H      1   2   3     2.025365855821   118.71911650   154.44912483
 F      1   2   3     3.908809302833    84.66341931    81.08942317
 Cl     1   2   3     4.025885974759    97.64954323   257.22896134



           ************************************************************
           *        Program running with 8 parallel MPI-processes     *
           *              working on a common directory               *
           ************************************************************
------------------------------------------------------------------------------
                   ___                                                        
                  /   \      - P O W E R E D   B Y -                         
                 /     \                                                     
                 |  |  |   _    _      __       _____    __    __             
                 |  |  |  | |  | |    /  \     |  _  \  |  |  /  |          
                  \  \/   | |  | |   /    \    | | | |  |  | /  /          
                 / \  \   | |__| |  /  /\  \   | |_| |  |  |/  /          
                |  |  |   |  __  | /  /__\  \  |    /   |      \           
                |  |  |   | |  | | |   __   |  |    \   |  |\   \          
                \     /   | |  | | |  |  |  |  | |\  \  |  | \   \       
                 \___/    |_|  |_| |__|  |__|  |_| \__\ |__|  \__/        
                                                                              
                      - O R C A' S   B I G   F R I E N D -                    
                                      &                                       
                       - I N T E G R A L  F E E D E R -                       
                                                                              
 v1 FN, 2020, v2 2021, v3 2022-2024                                           
------------------------------------------------------------------------------


----------------------
SHARK INTEGRAL PACKAGE
----------------------

Number of atoms                             ...      6
Number of basis functions                   ...     85
Number of shells                            ...     39
Maximum angular momentum                    ...      2
Integral batch strategy                     ... SHARK/LIBINT Hybrid
RI-J (if used) integral strategy            ... SPLIT-RIJ (Revised 2003 algorithm where possible)
Printlevel                                  ...      1
Contraction scheme used                     ... SEGMENTED contraction
Prescreening option                         ... SCHWARTZ
   Thresh                                   ... 2.500e-11
   Tcut                                     ... 2.500e-12
   Tpresel                                  ... 2.500e-12 
Coulomb Range Separation                    ... NOT USED
Exchange Range Separation                   ... NOT USED
Multipole approximations                    ... NOT USED
Finite Nucleus Model                        ... NOT USED
CABS basis                                  ... NOT available
Auxiliary Coulomb fitting basis             ... AVAILABLE
   # of basis functions in Aux-J            ...    140
   # of shells in Aux-J                     ...     56
   Maximum angular momentum in Aux-J        ...      3
Auxiliary J/K fitting basis                 ... NOT available
Auxiliary Correlation fitting basis         ... NOT available
Auxiliary 'external' fitting basis          ... NOT available

Checking pre-screening integrals            ... done (  0.0 sec) Dimension = 39
   => SHARK Basis and OBASIS are compatible. Storing Pre-screening
Shell pair information
Shell pair cut-off parameter TPreSel        ...   2.5e-12
Total number of shell pairs                 ...       780
Shell pairs after pre-screening             ...       731
Total number of primitive shell pairs       ...      3096
Primitive shell pairs kept                  ...      2261
          la=0 lb=0:    208 shell pairs
          la=1 lb=0:    259 shell pairs
          la=1 lb=1:     88 shell pairs
          la=2 lb=0:     99 shell pairs
          la=2 lb=1:     62 shell pairs
          la=2 lb=2:     15 shell pairs

Checking whether 4 symmetric matrices of dimension 85 fit in memory
:Max Core in MB      =   4096.00
 MB in use           =      2.98
 MB left             =   4093.02
 MB needed           =      0.11
 Data fit in memory  = YES
Calculating RI/J V-Matrix + Cholesky decomp.... done (  0.1 sec)
Calculating Nuclear repulsion               ... done (  0.0 sec) ENN=     85.426798257086 Eh

Diagonalization of the overlap matrix:
Smallest eigenvalue                        ... 6.621e-03
Time for diagonalization                   ...    0.008 sec
Threshold for overlap eigenvalues          ... 1.000e-07
Number of eigenvalues below threshold      ... 0
Time for construction of square roots      ...    0.002 sec
Total time needed                          ...    0.011 sec

-------------------
DFT GRID GENERATION
-------------------

General Integration Accuracy     IntAcc      ... 4.388
Radial Grid Type                 RadialGrid  ... OptM3 with GC (2021)
Angular Grid (max. ang.)         AngularGrid ... 4 (Lebedev-302)
Angular grid pruning method      GridPruning ... 4 (adaptive)
Weight generation scheme         WeightScheme... mBecke (2022)
Basis function cutoff            BFCut       ... 1.0000e-11
Integration weight cutoff        WCut        ... 1.0000e-14
Partially contracted basis set               ... off
Rotationally invariant grid construction     ... off
Angular grids for H and He will be reduced by one unit

Total number of grid points                  ...    29406
Total number of batches                      ...      461
Average number of points per batch           ...       63
Average number of grid points per atom       ...     4901
Grids setup in   0.5 sec
Initializing property integral containers    ... done (  0.1 sec)

SHARK setup successfully completed in   1.0 seconds

Maximum memory used throughout the entire STARTUP-calculation: 9.9 MB


           ************************************************************
           *        Program running with 8 parallel MPI-processes     *
           *              working on a common directory               *
           ************************************************************
Occupation numbers will be reassigned to an Aufbau configuration
             **** ENERGY FILE WAS UPDATED (reactant_optfreq.en.tmp) ****
Finished Guess after   0.3 sec
Maximum memory used throughout the entire GUESS-calculation: 5.3 MB


           ************************************************************
           *        Program running with 8 parallel MPI-processes     *
           *              working on a common directory               *
           ************************************************************
----------------------------------------D-I-I-S--------------------------------------------
Iteration    Energy (Eh)           Delta-E    RMSDP     MaxDP     DIISErr   Damp  Time(sec)
-------------------------------------------------------------------------------------------
               ***  Starting incremental Fock matrix formation  ***
    1    -599.9431343561674339     0.00e+00  4.67e-04  2.57e-03  9.71e-03  0.700   0.4
    2    -599.9432826914720636    -1.48e-04  4.91e-04  2.83e-03  7.26e-03  0.700   0.5
                               ***Turning on AO-DIIS***
    3    -599.9433970755371774    -1.14e-04  4.19e-04  2.56e-03  5.13e-03  0.700   0.4
    4    -599.9434773186876555    -8.02e-05  1.09e-03  6.95e-03  3.80e-03  0.000   0.4
                              *** Initializing SOSCF ***
---------------------------------------S-O-S-C-F--------------------------------------
Iteration    Energy (Eh)           Delta-E    RMSDP     MaxDP     MaxGrad    Time(sec)
--------------------------------------------------------------------------------------
    5    -599.9436658646640126    -1.89e-04  8.21e-05  4.33e-04  4.67e-04     0.6
               *** Restarting incremental Fock matrix formation ***
    6    -599.9436663988251439    -5.34e-07  8.45e-05  3.72e-04  1.39e-04     0.4
    7    -599.9436659212602763     4.78e-07  5.11e-05  2.53e-04  2.92e-04     0.4
    8    -599.9436666035963981    -6.82e-07  2.37e-05  8.79e-05  4.93e-05     0.4
    9    -599.9436665401116215     6.35e-08  1.40e-05  6.29e-05  1.16e-04     0.5
   10    -599.9436666294832321    -8.94e-08  4.26e-06  2.64e-05  7.94e-06     0.4
   11    -599.9436666295666782    -8.34e-11  2.29e-06  1.50e-05  8.22e-06     0.5
                 **** Energy Check signals convergence ****

               *****************************************************
               *                     SUCCESS                       *
               *           SCF CONVERGED AFTER  11 CYCLES          *
               *****************************************************

             **** ENERGY FILE WAS UPDATED (reactant_optfreq.en.tmp) ****

----------------
TOTAL SCF ENERGY
----------------

Total Energy       :       -599.94366663015774 Eh          -16325.29713 eV

Components:
Nuclear Repulsion  :         85.42679825708571 Eh            2324.58136 eV
Electronic Energy  :       -685.37046488724343 Eh          -18649.87849 eV
One Electron Energy:      -1007.06407390496236 Eh          -27403.60662 eV
Two Electron Energy:        321.69360901771893 Eh            8753.72813 eV

Virial components:
Potential Energy   :      -1198.38968896256983 Eh          -32609.84129 eV
Kinetic Energy     :        598.44602233241221 Eh           16284.54416 eV
Virial Ratio       :          2.00250255535480

DFT components:
N(Alpha)           :       18.000006937749 electrons
N(Beta)            :       18.000006937749 electrons
N(Total)           :       36.000013875498 electrons
E(X)               :      -44.097920648359 Eh       
E(C)               :       -1.257792641067 Eh       
E(XC)              :      -45.355713289426 Eh       

---------------
SCF CONVERGENCE
---------------

  Last Energy change         ...    8.3446e-11  Tolerance :   1.0000e-08
  Last MAX-Density change    ...    1.5040e-05  Tolerance :   1.0000e-07
  Last RMS-Density change    ...    2.2898e-06  Tolerance :   5.0000e-09
  Last DIIS Error            ...    4.6671e-04  Tolerance :   5.0000e-07
  Last Orbital Gradient      ...    8.2239e-06  Tolerance :   1.0000e-05
  Last Orbital Rotation      ...    9.7766e-06  Tolerance :   1.0000e-05


Total SCF time: 0 days 0 hours 0 min 5 sec 
Finished LeanSCF after   5.8 sec

Maximum memory used throughout the entire LEANSCF-calculation: 4.8 MB


           ************************************************************
           *        Program running with 8 parallel MPI-processes     *
           *              working on a common directory               *
           ************************************************************

------------------------------------------------------------------------------
                         ORCA PROPERTY INTEGRAL CALCULATIONS
------------------------------------------------------------------------------

GBWName                                   ... reactant_optfreq.gbw
Number of atoms                           ...      6
Number of basis functions                 ...     85
Max core memory                           ...   4096 MB

Dipole integrals                          ... YES
Quadrupole integrals                      ...  NO
Linear momentum integrals                 ...  NO
Angular momentum integrals                ...  NO
Higher moments length integrals           ...  NO
Higher moments velocity integrals         ...  NO
Kinetic energy integrals                  ...  NO
GIAO right hand sides                     ...  NO
GIAO dipole derivative integrals          ...  NO
SOC integrals                             ...  NO
EPR diamagnetic integrals (GIAO)          ...  NO
EPR gauge integrals                       ...  NO
Field gradient integrals                  ...  NO (   0 nuclei)
Spin-dipole/Fermi contact integrals       ...  NO (   0 nuclei)
Contact density integrals                 ...  NO (   0 nuclei)
Nucleus-orbit integrals                   ...  NO (   0 nuclei)
Geometric perturbations                   ...  NO (   6 nuclei)

Choice of electric origin   ... Center of mass
Position of electric origin ... ( -0.2746, -0.1580, -1.0146) 
Choice of magnetic origin   ... GIAO
Position of magnetic origin ... (  0.0000,  0.0000,  0.0000) 

Calculating integrals                     ... Electric Dipole (Length)     done (  0.0 sec)

Property integrals calculated in   0.0 sec

Maximum memory used throughout the entire PROPINT-calculation: 5.4 MB


-------------------------------------------------------------------------------
                          DFT DISPERSION CORRECTION                            
                                                                               
                                DFTD4 V3.4.0                                   
-------------------------------------------------------------------------------
-------------------------   ----------------
Dispersion correction           -0.000836352
-------------------------   ----------------

------------------   -----------------
gCP correction             0.005358195
------------------   -----------------

-------------------------   --------------------
FINAL SINGLE POINT ENERGY      -599.939144787113
-------------------------   --------------------



           ************************************************************
           *        Program running with 8 parallel MPI-processes     *
           *              working on a common directory               *
           ************************************************************
------------------------------------------------------------------------------
                         ORCA SCF GRADIENT CALCULATION
------------------------------------------------------------------------------

Nuc. rep. gradient        (SHARK) ... done (  0.0 sec)
HCore & Overlap gradient  (SHARK) ... done (  0.0 sec)
Split-RIJ-J gradient      (SHARK) ... done (  0.3 sec)
XC gradient                       ... done (  0.4 sec)
Dispersion correction             ... done (  0.1 sec)

-------------------
DISPERSION GRADIENT
-------------------

   1   C   :   -0.000000642   -0.000000377   -0.000010635
   2   H   :   -0.000000196   -0.000005925    0.000003981
   3   H   :   -0.000005224    0.000002805    0.000003987
   4   H   :    0.000005234    0.000003012    0.000004806
   5   F   :    0.000000041    0.000000026    0.000008825
   6   Cl  :    0.000000787    0.000000459   -0.000010964

Difference to translation invariance:
           :   -0.0000000000    0.0000000000    0.0000000000

Difference to rotation invariance:
           :   -0.0000000000    0.0000000000   -0.0000000000

Norm of the Dispersion gradient    ...    0.0000217754
RMS gradient                       ...    0.0000051325
MAX gradient                       ...    0.0000109637
gCP correction                   ... done

------------------
CARTESIAN GRADIENT
------------------

   1   C   :    0.000487995    0.000278798   -0.012897893
   2   H   :    0.001042362   -0.000845149    0.000415901
   3   H   :   -0.000203088    0.001338695    0.000426722
   4   H   :    0.001664532    0.000969351    0.002076586
   5   F   :   -0.002049943   -0.001189895    0.001416828
   6   Cl  :   -0.000941858   -0.000551800    0.008561856

Difference to translation invariance:
           :   -0.0000000000   -0.0000000000   -0.0000000000

Difference to rotation invariance:
           :   -0.0000110385   -0.0000502762    0.0000056054

Norm of the Cartesian gradient     ...    0.0161494802
RMS gradient                       ...    0.0038064690
MAX gradient                       ...    0.0128978927

-------
TIMINGS
-------

Total SCF gradient time     ....        0.919 sec

Densities                   ....       0.000 sec  (  0.0%)
One electron gradient       ....       0.013 sec  (  1.4%)
RI-J Coulomb gradient       ....       0.294 sec  ( 32.0%)
XC gradient                 ....       0.407 sec  ( 44.3%)

Maximum memory used throughout the entire SCFGRAD-calculation: 25.1 MB
------------------------------------------------------------------------------
                         ORCA GEOMETRY RELAXATION STEP
------------------------------------------------------------------------------

Reading the OPT-File                    .... done
Getting information on internals        .... done
Copying old internal coords+grads       .... done
Making the new internal coordinates     .... (2022 redundants) done
Validating the new internal coordinates .... (2022 redundants) done
Calculating the B-matrix                .... done
Calculating the G,G- and P matrices     .... done
Transforming gradient to internals      .... done
Projecting the internal gradient        .... done
Number of atoms                         ....   6
Number of internal coordinates          ....  21
Current Energy                          ....  -599.939144787 Eh
Current gradient norm                   ....     0.016149480 Eh/bohr
Maximum allowed component of the step   ....  0.300
Current trust radius                    ....  0.300
Updating the Hessian (BFGS)             .... done
Forming the augmented Hessian           .... done
Diagonalizing the augmented Hessian     .... done
Last element of RFO vector              ....  0.977637672
Lowest eigenvalues of augmented Hessian:
 -0.001387890  0.021338368  0.027358304  0.060042856  0.066369586
Length of the computed step             ....  0.215106700
The final length of the internal step   ....  0.215106700
Converting the step to Cartesian space:
 Initial RMS(Int)=    0.0469401303
Transforming coordinates:
 Iter   0:  RMS(Cart)=    0.0285935148 RMS(Int)=    0.0470593595
done
Storing new coordinates                 .... done
The predicted energy change is          ....    -0.000726054
Previously predicted energy change      ....    -0.001682450
Actually observed energy change         ....    -0.002144536
Ratio of predicted to observed change   ....     1.274651090
New trust radius                        ....     0.300000000

                                .--------------------.
          ----------------------|Geometry convergence|-------------------------
          Item                value                   Tolerance       Converged
          ---------------------------------------------------------------------
          Energy change      -0.0021445364            0.0000050000      NO
          RMS gradient        0.0018463144            0.0001000000      NO
          MAX gradient        0.0046707951            0.0003000000      NO
          RMS step            0.0469401303            0.0020000000      NO
          MAX step            0.1167647229            0.0040000000      NO
          -------------------------------------------------------------------------
          ........................................................
          Max(Bonds)      0.0618      Max(Angles)    1.87
          Max(Dihed)        0.00      Max(Improp)    0.00
          ---------------------------------------------------------------------

The optimization has not yet converged - more geometry cycles are needed


    ---------------------------------------------------------------------------
                         Redundant Internal Coordinates
                            (Angstroem and degrees)

        Definition                    Value    dE/dq     Step     New-Value
[...]
Rotational constants in MHz :        156714.216951          1747.734426          1747.596333 

Dipole components along the rotational axes: 
x,y,z [a.u.] :     2.252406    -0.020696    -0.000140 
x,y,z [Debye]:     5.725160    -0.052604    -0.000357 

 

Dipole moment calculation done in   0.0 sec 

-----------
SCF HESSIAN
-----------

Occupied/Occupied contributions to the Hessian:
   => Occupied/Occupied contributions              ... done (  0.0 sec)
Perturbed density contributions to the Hessian:
   => Perturbed density contributions              ... done (  0.0 sec)
Explicit contributions to the Hessian:
   => Nuclear repulsion Hessian                    ... done (  0.0 sec)
   => HCore and overlap Hessian                    ... done (  0.2 sec)
   => RI-J Hessian                                 ... done (  0.4 sec)
   => XC-Hessian                                   ... done (  2.6 sec)
   => Van der Waals-Hessian                        ... done (  0.8 sec)
   => GCP-Hessian                                  ... done (  0.1 sec)
   => Explicit contributions done
Dipole derivatives                                 ... done (  0.0 sec)
Mass weighting the Hessian           ... done
Calculating normal modes             ... done
Scaling frequencies                  ... done

-----------------------
VIBRATIONAL FREQUENCIES
-----------------------

Scaling factor for frequencies =  1.000000000  (already applied!)

     0:       0.00 cm**-1
     1:       0.00 cm**-1
     2:       0.00 cm**-1
     3:       0.00 cm**-1
     4:       0.00 cm**-1
     5:       0.00 cm**-1
     6:     103.24 cm**-1
     7:     104.59 cm**-1
     8:     123.45 cm**-1
     9:     910.91 cm**-1
    10:    1126.41 cm**-1
    11:    1131.50 cm**-1
    12:    1404.47 cm**-1
    13:    1464.65 cm**-1
    14:    1466.25 cm**-1
    15:    3056.44 cm**-1
    16:    3170.65 cm**-1
    17:    3171.42 cm**-1


------------
NORMAL MODES
------------

These modes are the Cartesian displacements weighted by the diagonal matrix
M(i,i)=1/sqrt(m[i]) where m[i] is the mass of the displaced atom
Thus, these vectors are normalized but *not* orthogonal

                  0          1          2          3          4          5    
      0       0.000000   0.000000   0.000000   0.000000   0.000000   0.000000
      1       0.000000   0.000000   0.000000   0.000000   0.000000   0.000000
      2       0.000000   0.000000   0.000000   0.000000   0.000000   0.000000
      3       0.000000   0.000000   0.000000   0.000000   0.000000   0.000000
      4       0.000000   0.000000   0.000000   0.000000   0.000000   0.000000
      5       0.000000   0.000000   0.000000   0.000000   0.000000   0.000000
      6       0.000000   0.000000   0.000000   0.000000   0.000000   0.000000
      7       0.000000   0.000000   0.000000   0.000000   0.000000   0.000000
      8       0.000000   0.000000   0.000000   0.000000   0.000000   0.000000
      9       0.000000   0.000000   0.000000   0.000000   0.000000   0.000000
     10       0.000000   0.000000   0.000000   0.000000   0.000000   0.000000
     11       0.000000   0.000000   0.000000   0.000000   0.000000   0.000000
     12       0.000000   0.000000   0.000000   0.000000   0.000000   0.000000
     13       0.000000   0.000000   0.000000   0.000000   0.000000   0.000000
     14       0.000000   0.000000   0.000000   0.000000   0.000000   0.000000
     15       0.000000   0.000000   0.000000   0.000000   0.000000   0.000000
     16       0.000000   0.000000   0.000000   0.000000   0.000000   0.000000
     17       0.000000   0.000000   0.000000   0.000000   0.000000   0.000000
                  6          7          8          9         10         11    
      0      -0.293736  -0.149677  -0.075663  -0.000087   0.067227   0.109517
      1      -0.150212   0.290664  -0.055038   0.000237  -0.110528   0.066621
      2       0.034200  -0.005106  -0.402710   0.670317   0.000085   0.000885
      3      -0.400880  -0.272394  -0.103344   0.001360  -0.120206  -0.192775
      4      -0.212658   0.412942  -0.079112  -0.088519   0.105111  -0.064339
      5      -0.144084   0.338363  -0.460075   0.317716   0.652766  -0.400335
      6      -0.404606  -0.183753  -0.107859  -0.075841  -0.037949  -0.150683
      7      -0.193027   0.462734  -0.076669   0.046107   0.149717  -0.141950
      8      -0.177731  -0.330256  -0.440264   0.317460  -0.671557  -0.368445
      9      -0.412579  -0.168519  -0.113021   0.078463  -0.118030  -0.103241
     10      -0.216614   0.335965  -0.078479   0.045604   0.199445  -0.065638
     11       0.419974  -0.022671  -0.268591   0.304390   0.018195   0.765285
     12       0.159870   0.082427   0.057111   0.000344  -0.027391  -0.044895
     13       0.081650  -0.159554   0.039249   0.000002   0.045024  -0.027300
     14       0.032137  -0.004655  -0.388079  -0.482002   0.000001  -0.000563
     15       0.048477   0.024299   0.004248  -0.000268  -0.000245  -0.000345
     16       0.024830  -0.047423   0.004274  -0.000172   0.000403  -0.000210
     17      -0.031598   0.004639   0.377625   0.004480  -0.000013   0.000101
                 12         13         14         15         16         17    
      0      -0.001906  -0.031765   0.058873   0.000915   0.035321  -0.089798
      1      -0.000988   0.058428   0.032038   0.000888   0.089787   0.035235
      2       0.089512   0.000032   0.002430   0.040254  -0.000720   0.000356
      3       0.019663   0.359906  -0.659538   0.001615   0.006611  -0.022571
      4      -0.196726   0.118479   0.060320   0.543460  -0.727870  -0.278315
      5      -0.543856   0.253602   0.120127  -0.168791   0.233091   0.089363
      6      -0.160161  -0.296390  -0.264966   0.474281   0.105555   0.663963
      7       0.115299  -0.280700  -0.587669  -0.273586  -0.034249  -0.387333
      8      -0.543806  -0.247080   0.132727  -0.170099  -0.034894  -0.245766
      9       0.164773   0.376343   0.111728  -0.486740  -0.524668   0.406736
     10       0.094418  -0.646752   0.085134  -0.280297  -0.285873   0.254611
     11      -0.534384  -0.006865  -0.299161  -0.174149  -0.189701   0.152328
     12      -0.000057  -0.002913   0.005171   0.000021  -0.000372   0.000991
     13      -0.000045   0.005347   0.002804   0.000010  -0.000996  -0.000408
     14       0.028520   0.000006   0.000894   0.001459   0.000038  -0.000034
     15      -0.000014  -0.000184   0.000392  -0.000013  -0.000038   0.000091
     16      -0.000010   0.000341   0.000216  -0.000010  -0.000089  -0.000032
     17       0.000510  -0.000004   0.000014   0.000167  -0.000018   0.000013


-----------
IR SPECTRUM
-----------

 Mode   freq       eps      Int      T**2         TX        TY        TZ
       cm**-1   L/(mol*cm) km/mol    a.u.
----------------------------------------------------------------------------
  6:    103.24   0.001699    8.59  0.005136  (-0.061528 -0.031358  0.019163)
  7:    104.59   0.001589    8.03  0.004740  (-0.031573  0.061117 -0.002778)
  8:    123.45   0.004195   21.20  0.010604  (-0.005900 -0.004559 -0.102704)
  9:    910.91   0.050782  256.63  0.017397  (-0.001271 -0.000645  0.131891)
 10:   1126.41   0.000529    2.67  0.000147  ( 0.006273 -0.010355 -0.000065)
 11:   1131.50   0.000585    2.96  0.000161  ( 0.010755  0.006558 -0.001640)
 12:   1404.47   0.000161    0.81  0.000036  ( 0.000848  0.000554 -0.005896)
 13:   1464.65   0.002026   10.24  0.000432  ( 0.009890 -0.018274  0.000085)
 14:   1466.25   0.002007   10.14  0.000427  (-0.018114 -0.009889  0.001084)
 15:   3056.44   0.003318   16.77  0.000339  ( 0.000633  0.000568  0.018387)
 16:   3170.65   0.002450   12.38  0.000241  ( 0.005981  0.014328  0.000243)
 17:   3171.42   0.002372   11.99  0.000233  (-0.014333  0.005275 -0.000394)

* The epsilon (eps) is given for a Dirac delta lineshape.
** The dipole moment derivative (T) already includes vibrational overlap.

The first frequency considered to be a vibration is 6
The total number of vibrations considered is 12


--------------------------
THERMOCHEMISTRY AT 298.15K
--------------------------

Temperature         ...   298.15 K
Pressure            ...     1.00 atm
Total Mass          ...    69.49 AMU
Quasi RRHO          ...     True
Cut-Off Frequency   ...     1.00 cm^-1

Throughout the following assumptions are being made:
  (1) The electronic state is orbitally nondegenerate
  (2) There are no thermally accessible electronically excited states
  (3) Hindered rotations indicated by low frequency modes are not
      treated as such but are treated as vibrations and this may
      cause some error
  (4) All equations used are the standard statistical mechanics
      equations for an ideal gas
  (5) All vibrations are strictly harmonic

freq.     103.24  E(vib)   ...       0.46 
freq.     104.59  E(vib)   ...       0.46 
freq.     123.45  E(vib)   ...       0.43 
freq.     910.91  E(vib)   ...       0.03 
freq.    1126.41  E(vib)   ...       0.01 
freq.    1131.50  E(vib)   ...       0.01 
freq.    1404.47  E(vib)   ...       0.00 
freq.    1464.65  E(vib)   ...       0.00 
freq.    1466.25  E(vib)   ...       0.00 
freq.    3056.44  E(vib)   ...       0.00 
freq.    3170.65  E(vib)   ...       0.00 
freq.    3171.42  E(vib)   ...       0.00 

------------
INNER ENERGY
------------

The inner energy is: U= E(el) + E(ZPE) + E(vib) + E(rot) + E(trans)
    E(el)   - is the total energy from the electronic structure calculation
              = E(kin-el) + E(nuc-el) + E(el-el) + E(nuc-nuc)
    E(ZPE)  - the the zero temperature vibrational energy from the frequency calculation
    E(vib)  - the the finite temperature correction to E(ZPE) due to population
              of excited vibrational states
    E(rot)  - is the rotational thermal energy
    E(trans)- is the translational thermal energy

Summary of contributions to the inner energy U:
Electronic energy                ...   -599.98096450 Eh
Zero point energy                ...      0.03926190 Eh      24.64 kcal/mol
Thermal vibrational correction   ...      0.00226003 Eh       1.42 kcal/mol
Thermal rotational correction    ...      0.00141627 Eh       0.89 kcal/mol
Thermal translational correction ...      0.00141627 Eh       0.89 kcal/mol
-----------------------------------------------------------------------
Total thermal energy                   -599.93661003 Eh


Summary of corrections to the electronic energy:
(perhaps to be used in another calculation)
Total thermal correction                  0.00509257 Eh       3.20 kcal/mol
Non-thermal (ZPE) correction              0.03926190 Eh      24.64 kcal/mol
-----------------------------------------------------------------------
Total correction                          0.04435447 Eh      27.83 kcal/mol


--------
ENTHALPY
--------

The enthalpy is H = U + kB*T
                kB is Boltzmann's constant
Total thermal energy              ...   -599.93661003 Eh 
Thermal Enthalpy correction       ...      0.00094421 Eh       0.59 kcal/mol
-----------------------------------------------------------------------
Total Enthalpy                    ...   -599.93566582 Eh


Note: Only C1 symmetry has been detected, increase convergence thresholds 
      if your molecule has a higher symmetry. Symmetry factor of 1.0 is   
      used for the rotational entropy correction. 
 

Note: Rotational entropy computed according to Herzberg 
Infrared and Raman Spectra, Chapter V,1, Van Nostrand Reinhold, 1945 
Point Group:  C1, Symmetry Number:   1  
Rotational constants in cm-1:     5.227428     0.058298     0.058294 

Vibrational entropy computed according to the QRRHO of S. Grimme
Chem.Eur.J. 2012 18 9955 using a reference frequency of 100.0 cm-1


-------
ENTROPY
-------

The entropy contributions are T*S = T*(S(el)+S(vib)+S(rot)+S(trans))
     S(el)   - electronic entropy
     S(vib)  - vibrational entropy
     S(rot)  - rotational entropy
     S(trans)- translational entropy
The entropies will be listed as multiplied by the temperature to get
units of energy

Electronic entropy                ...      0.00000000 Eh      0.00 kcal/mol
Vibrational entropy               ...      0.00449166 Eh      2.82 kcal/mol
Rotational entropy                ...      0.01141358 Eh      7.16 kcal/mol
Translational entropy             ...      0.01835566 Eh     11.52 kcal/mol
-----------------------------------------------------------------------
Final entropy term                ...      0.03426090 Eh     21.50 kcal/mol

In case the symmetry of your molecule has not been determined correctly
or in case you have a reason to use a different symmetry number we print 
out the resulting rotational entropy values for sn=1,12:

 non-linear molecules -----------------------------------
|  sn= 1 | S(rot)=       0.01141358 Eh      7.16 kcal/mol|
|  sn= 2 | S(rot)=       0.01075913 Eh      6.75 kcal/mol|
|  sn= 3 | S(rot)=       0.01037630 Eh      6.51 kcal/mol|
|  sn= 4 | S(rot)=       0.01010467 Eh      6.34 kcal/mol|
|  sn= 5 | S(rot)=       0.00989398 Eh      6.21 kcal/mol|
|  sn= 6 | S(rot)=       0.00972184 Eh      6.10 kcal/mol|
|  sn= 7 | S(rot)=       0.00957629 Eh      6.01 kcal/mol|
|  sn= 8 | S(rot)=       0.00945021 Eh      5.93 kcal/mol|
|  sn= 9 | S(rot)=       0.00933901 Eh      5.86 kcal/mol|
|  sn=10 | S(rot)=       0.00923953 Eh      5.80 kcal/mol|
|  sn=11 | S(rot)=       0.00914954 Eh      5.74 kcal/mol|
|  sn=12 | S(rot)=       0.00906738 Eh      5.69 kcal/mol|
 linear molecules ---------------------------------------
|  Dinfh | S(rot)=       0.00800942 Eh      5.03 kcal/mol|
|  Cinfv | S(rot)=       0.00866387 Eh      5.44 kcal/mol|
 --------------------------------------------------------


-------------------
GIBBS FREE ENERGY
-------------------

The Gibbs free energy is G = H - T*S

Total enthalpy                    ...   -599.93566582 Eh 
Total entropy correction          ...     -0.03426090 Eh    -21.50 kcal/mol
-----------------------------------------------------------------------
Final Gibbs free energy         ...   -599.96992672 Eh

For completeness - the Gibbs free energy minus the electronic energy
G-E(el)                           ...      0.01103778 Eh      6.93 kcal/mol


Maximum memory used throughout the entire PROP-calculation: 25.2 MB

--------------------------------
SUGGESTED CITATIONS FOR THIS RUN
--------------------------------

Below you find a list of papers that are relevant to this ORCA run
We neither can nor want to force you to cite these papers, but we appreciate if you do
You receive ORCA, which is the product of decades of hard work by many enthusiastic individuals, for free
The only thing we kindly ask in return is that you cite our papers,
We deeply appreciate it, if you show your appreciation for ORCA by not just citing the generic ORCA reference.

Please note that relegating all ORCA citations to the supporting information does *not* help us.
SI sections are not indexed - citations you put there will not count into any citation statistics
But we need these citations in order to attract the funding resources that allow us to do what we are doing

Therefore, if you are a happy ORCA user, please consider citing a few of the papers listed below in the main body of your paper

In addition to the list printed below, the program has created the file reactant_optfreq.bibtex that contains the list in bibtex format
You can import this file easily into all common literature databanks and citation aid programs


List of essential papers. We consider these as the minimum necessary citations

  1. Grimme, S.; Hansen, A.; Ehlert, S.; Mewes, J.
     r2SCAN-3c: A 'Swiss army knife' composite electronic-structure method
     J. Chem. Phys. 2021 154 , 064103
     doi.org/10.1063/5.0040021
  2. Neese, F.
     Software update: the ORCA program system, version 6.0
     WIRES Comput. Molec. Sci. 2025 15(1), e70019
     doi.org/10.1002/wcms.7019

List of papers to cite with high priority. The work reported in these papers was absolutely
necessary for this run to complete.
Our perspective: the developers of density functionals and basis sets usually get cited in chemistry papers
Good! But without the algorithms to do something with them, the functionals or basis sets would not do anything.
Hence, in our opinion, the algorithm design and method developments papers are equally worthy of getting cited

  1. Neese, F.
     An improvement of the resolution of the identity approximation for the formation of the Coulomb matrix
     J. Comp. Chem. 2003 24(14), 1740-1747
     doi.org/10.1002/jcc.10318
  2. Bykov, D.; Petrenko, T.; Izsak, R.; Kossmann, S.; Becker, U.; Valeev, E.; Neese, F.
     Efficient implementation of the analytic second derivatives of Hartree-Fock and hybrid DFT energies: a detailed analysis of different approximations
     Molec. Phys. 2015 113 , 1961-1977
     doi.org/10.1080/00268976.2015.1025114
  3. Caldeweyher, E.; Bannwarth, C.; Grimme, S.
     Extension of the D3 dispersion coefficient model
     J. Chem. Phys. 2017 147 , 034112
     doi.org/10.1063/1.4993215
  4. Lehtola, S.; Steigemann, C.; Oliveira, M.; Marques, M.
     Recent developments in Libxc - A comprehensive library of functionals for density functional theory
     Software X 2018 7 , 
     doi.org/10.1016/j.softx.2017.11.002
  5. Caldeweyher, E.; Ehlert, S.; Hansen, A.; Neugebauer, H.; Spicher, S.; Bannwarth, C.; Grimme, S.
     A generally applicable atomic-charge dependent London dispersion correction
     J. Chem. Phys. 2019 150 , 154122
     doi.org/10.1063/1.5090222
  6. Caldeweyher, E.; Mewes, J.; Ehlert, S.; Grimme, S.
     Extension and evaluation of the D4 London-dispersion model for periodic systems
     Phys. Chem. Chem. Phys. 2020 22(16), 8499-8512
     doi.org/10.1039/D0CP00502A
  7. Neese, F.
     The SHARK Integral Generation and Digestion System
     J. Comp. Chem. 2022 44(3), 381
     doi.org/10.1002/jcc.26942
  8. Wittmann, L.; Gordiy, I.; Friede, M.; Helmich-Paris, B.; Grimme, S.; Hansen, A.; Bursch, M.
     Extension of the D3 and D4 London Dispersion Corrections to the full Actinides Series
     Phys. Chem. Chem. Phys. 2024 26(32), 21379-21394
     doi.org/10.1039/D4CP01514B

List of suggested additional citations. These are papers that are important in the 'surrounding' of 
of this run, or papers that preceded the highly important papers. If you like your results we are grateful for a citation.

  1. Neese, F.
     The ORCA program system
     WIRES Comput. Molec. Sci. 2012 2(1), 73-78
     doi.org/10.1002/wcms.81
  2. Neese, F.
     Software update: the ORCA program system, version 4.0
     WIRES Comput. Molec. Sci. 2018 8(1), 1-6
     doi.org/10.1002/wcms.1327
  3. Neese, F.; Wennmohs, F.; Becker, U.; Riplinger, C.
     The ORCA quantum chemistry program package
     J. Chem. Phys. 2020 152(22), 224108
     doi.org/10.1063/5.0004608
  4. Neese, F.
     Software update: The ORCA program system—Version 5.0
     WIRES Comput. Molec. Sci. 2022 12(1), e1606
     doi.org/10.1002/wcms.1606

List of optional additional citations

  1. Neese, F.
     Approximate second-order SCF convergence for spin unrestricted wavefunctions
     Chem. Phys. Lett. 2000 325(1-3), 93-98
     doi.org/10.1016/s0009-2614(00)00662-x

Timings for individual modules:

Sum of individual times          ...      245.544 sec (=   4.092 min)
Startup calculation              ...       34.424 sec (=   0.574 min)  14.0 %
SCF iterations                   ...      130.855 sec (=   2.181 min)  53.3 %
Property integrals               ...       25.745 sec (=   0.429 min)  10.5 %
SCF Response                     ...        3.600 sec (=   0.060 min)   1.5 %
Property calculations            ...        5.089 sec (=   0.085 min)   2.1 %
SCF Gradient evaluation          ...       45.734 sec (=   0.762 min)  18.6 %
Geometry relaxation              ...        0.097 sec (=   0.002 min)   0.0 %
                             ****ORCA TERMINATED NORMALLY****
TOTAL RUN TIME: 0 days 0 hours 4 minutes 25 seconds 763 msec
