
                                 *****************
                                 * O   R   C   A *
                                 *****************

                                            #,                                       
                                            ###                                      
                                            ####                                     
                                            #####                                    
                                            ######                                   
                                           ########,                                 
                                     ,,################,,,,,                         
                               ,,#################################,,                 
                          ,,##########################################,,             
                       ,#########################################, ''#####,          
                    ,#############################################,,   '####,        
                  ,##################################################,,,,####,       
                ,###########''''           ''''###############################       
              ,#####''   ,,,,##########,,,,          '''####'''          '####       
            ,##' ,,,,###########################,,,                        '##       
           ' ,,###''''                  '''############,,,                           
         ,,##''                                '''############,,,,        ,,,,,,###''
      ,#''                                            '''#######################'''  
     '                                                          ''''####''''         
             ,#######,   #######,   ,#######,      ##                                
            ,#'     '#,  ##    ##  ,#'     '#,    #''#        ,####,    ,#,          
            ##       ##  ##   ,#'  ##            #'  '#       #'       ,# #          
            ##       ##  #######   ##           ,######,      #####,      #          
            '#,     ,#'  ##    ##  '#,     ,#' ,#      #,     #,   #      #          
             '#######'   ##     ##  '#######'  #'      '#     '####' #    #          



                #########################################################
                #                        -***-                          #
                #          Department of theory and spectroscopy        #
                #                                                       #
                #                      Frank Neese                      #
                #                                                       #
                #     Directorship, Architecture, Infrastructure        #
                #                    SHARK, DRIVERS                     #
                #        Core code/Algorithms in most modules           #
                #                                                       #
                #        Max Planck Institute fuer Kohlenforschung      #
                #                Kaiser Wilhelm Platz 1                 #
                #                 D-45470 Muelheim/Ruhr                 #
                #                      Germany                          #
                #                                                       #
                #                  All rights reserved                  #
                #                        -***-                          #
                #########################################################


                         Program Version 6.1.0  -  RELEASE   -
                                (GIT: $679e74b$)
                          ($2025-06-10 18:02:51 +0200$)


 With contributions from (in alphabetic order):
[Max-Planck-Institut fuer Kohlenforschung]                               
  Daniel Aravena         : Magnetic Suceptibility                        
  Michael Atanasov       : Ab Initio Ligand Field Theory (pilot matlab implementation)
  Alexander A. Auer      : GIAO ZORA, VPT2 properties, NMR spectrum      
  Ute Becker             : All parallelization in ORCA, NUMFREQ, NUMCALC 
  Giovanni Bistoni       : ED, misc. LED, open-shell LED, HFLD           
  Dmytro Bykov           : pre 5.0 version of the SCF Hessian            
  Marcos Casanova-Páez   : Triplet and SCS-CIS(D). UHF-(DLPNO)-IP/EA/STEOM-CCSD. UHF-CVS-IP/STEOM-CCSD   
  Vijay G. Chilkuri      : MRCI spin determinant printing, contributions to CSF-ICE 
  Pauline Colinet        : FMM embedding                                 
  Dipayan Datta          : RHF DLPNO-CCSD density                        
  Achintya Kumar Dutta   : EOM-CC, STEOM-CC                              
  Nicolas Foglia         : Exact transition moments, OPA infrastructure, MCD improvements    
  Dmitry Ganyushin       : Spin-Orbit,Spin-Spin,Magnetic field MRCI      
  Miquel Garcia-Rates    : C-PCM and meta-GGA Hessian, CCSD/C-PCM, Gaussian charge scheme 
  Tiago L. C. Gouveia    : GS-ROHF, GS-ROCIS                             
  Yang Guo               : DLPNO-NEVPT2, F12-NEVPT2, CIM, IAO-localization        
  Andreas Hansen         : Spin unrestricted coupled pair/coupled cluster methods 
  Ingolf Harden          : AUTO-CI MPn and infrastructure                
  Benjamin Helmich-Paris : MC-RPA, TRAH-(SCF,CASSCF), AVAS, COSX integrals, SCF dyn. polar., MC-PDFT, srDFT 
  Lee Huntington         : MR-EOM, pCC                                   
  Robert Izsak           : Overlap fitted RIJCOSX, COSX-SCS-MP3, EOM     
  Riya Kayal             : Wick's Theorem for AUTO-CI, AUTO-CI UHF-CCSDT 
  Emily Kempfer          : AUTO-CI RHF CISDT and CCSDT, approximate NEVPT4
  Christian Kollmar      : KDIIS, OOCD, Brueckner-CCSD(T), CCSD density, CASPT2, CASPT2-K, improved NEVPT2 
  Axel Koslowski         : Symmetry handling                             
  Simone Kossmann        : meta-GGA functionals, TD-DFT gradient, OOMP2, (MP2 Hessian; deprecated post 5.0) 
  Lucas Lang             : DCDCAS, Hyperfine gauge corrections, ICE-SOC+SSC
  Marvin Lechner         : AUTO-CI (C++ implementation), FIC-MRCC        
  Spencer Leger          : CASSCF response                               
  Dagmar Lenk            : GEPOL surface, SMD, ORCA-2-JSON               
  Dimitrios Liakos       : Extrapolation schemes; Compound Job, Property file
  Dimitrios Manganas     : Further ROCIS development; embedding schemes. LFT, Crystal Embedding 
  Dimitrios Pantazis     : SARC Basis sets                               
  Anastasios Papadopoulos: AUTO-CI, single reference methods and gradients 
  Taras Petrenko         : pre 6.0 DFT Hessian and TD-DFT gradient,  ECA, NRVS 
  Petra Pikulova         : Analytic Raman intensities                    
  Peter Pinski           : DLPNO-MP2, DLPNO-MP2 Gradient                 
  Shashank Vittal Rao    : ES-AILFT, MagRelax                            
  Christoph Reimann      : Effective Core Potentials                     
  Marius Retegan         : Local ZFS, SOC                                
  Christoph Riplinger    : Optimizer, TS searches, QM/MM, DLPNO-CCSD(T), (RO)-DLPNO pert. Triples 
  Michael Roemelt        : Original ROCIS implementation, recursive CI coupling coefficients
  Masaaki Saitow         : Open-shell DLPNO-CCSD energy and density      
  Barbara Sandhoefer     : DKH picture change effects                    
  Yorick L. A. Schmerwitz: GMF and freeze-and-release deltaSCF, NEB S-IDPP initial path                    
  Kantharuban Sivalingam : CASSCF convergence/infrastructure, NEVPT2, NEVPT3, NEVPT4(SD), FIC-MRCI and CEPA variants
  Bernardo de Souza      : ESD, SOC TD-DFT                               
  Georgi L. Stoychev     : AutoAux, RI-MP2 NMR, DLPNO-MP2 response, X2C  
  Van Anh Tran           : RI-MP2 g-tensors                              
  Willem Van den Heuvel  : Paramagnetic NMR                              
  Zikuan Wang            : NOTCH, Electric field optimization            
  Frank Wennmohs         : Technical directorship and infrastructure     
  Hang Xu                : AUTO-CI-Response properties                   
                                                                         
[FACCTs GmbH]                                                            
  Markus Bursch, Nicolas Foglia, Miquel Garcia-Rates, Ingolf Harden, Hagen Neugebauer, Anastasios Papadopoulos, 
  Christoph Riplinger, Bernardo de Souza, Georgi L. Stoychev                                                    
                                                                 
  APM, various basis sets, CI-OPT, improved COSX, DLPNO-Multilevel,           
  DOCKER, DRACO, updates on ESD, Fragmentator, GOAT, IRC, LR-CPCM, L-BFGS, MBIS, meta-GGA TD-DFT gradient, ML-optimized integration grids, 
  MM, NACMEs, nearIR, NEB, NEB-TS, NL-DFT gradient (VV10), 2- and 3-layer-ONIOM, interface openCOSMO-RS, QMMM,   
  Crystal-QMMM, RESP, rigid body optimization, SF, symmetry and pop. for TD-DFT, various functionals, SOLVATOR                                   
                                                                         
[Other institutions]                                                     
  V. Asgeirsson          : NEB                                           
  Christoph Bannwarth    : sTDA-DFT, sTD-DFT, PBEh-3c, B97-3c, D3        
  Giovanni Bistoni       : ETS/NOCV, ADLD/ADEX, COVALED                  
  Martin Brehm           : Molecular dynamics                            
  Ronald Cardenas        : ETS/NOCV                                      
  Martina Colucci        : COVALED                                       
  Sebastian Ehlert       : rSCAN, r2SCAN, r2SCAN-3c, D4, dhf basis sets  
  Marvin Friede          : D4 for Fr, Ra, Ac-Lr                          
  Lars Goerigk           : TD-DFT with DH, B97 family of functionals     
  Stefan Grimme          : VdW corrections, initial TS optimization, DFT functionals, gCP, sTDA/sTD-DF 
  Waldemar Hujo          : DFT-NL                                        
  H. Jonsson             : NEB                                           
  Holger Kruse           : gCP                                           
  Marcel Mueller         : wB97X-3c, vDZP basis set                      
  Hagen Neugebauer       : wr2SCAN, Native XTB                           
  Gianluca Regni         : ADLD/ADEX                                     
  Tobias Risthaus        : pre 6.0 range-separated hybrid DFT and stability analysis
  Lukas Wittmann         : regularized MP2, r2SCAN double-hybrids, wr2SCAN        
                                                                         
We gratefully acknowledge several colleagues who have allowed us to      
interface, adapt or use parts of their codes:                            
  Ed Valeev, F. Pavosevic, A. Kumar             : LibInt (2-el integral package), F12 methods 
  Garnet Chan, S. Sharma, J. Yang, R. Olivares  : DMRG                   
  Ulf Ekstrom                                   : XCFun DFT Library      
  Mihaly Kallay                                 : mrcc  (arbitrary order and MRCC methods)
  Frank Weinhold                                : gennbo (NPA and NBO analysis)           
  Simon Mueller                                 : openCOSMO-RS                            
  Christopher J. Cramer and Donald G. Truhlar   : smd solvation model                     
  S Lehtola, MJT Oliveira, MAL Marques          : LibXC Library                           
  Liviu Ungur et al                             : ANISO software                          


 Your calculation uses the libint2 library for the computation of 2-el integrals
 For citations please refer to: http://libint.valeyev.net

 Your ORCA version has been built with support for libXC version: 7.0.0
 For citations please refer to: https://libxc.gitlab.io

 This ORCA versions uses:
   CBLAS   interface :  Fast vector & matrix operations
   LAPACKE interface :  Fast linear algebra routines
   SCALAPACK package :  Parallel linear algebra routines
   Shared memory     :  Shared parallel matrices
   BLAS/LAPACK       :  OpenBLAS 0.3.29  USE64BITINT DYNAMIC_ARCH NO_AFFINITY SkylakeX SINGLE_THREADED
        Core in use  :  SkylakeX
   Copyright (c) 2011-2014, The OpenBLAS Project


  ***********************************
  * Starting time: Thu Mar 12 13:00:46 2026
  * Host name:     midway3-login4.rcc.local
  * Process ID:    2868026
  * Working dir.:  /home/rzhu16/orca_TS_search/sn2_f_cl/DFT_test
  ***********************************

Your calculation utilizes the geometrical counterpoise correction gCP
Please cite in your paper:
H.Kruse, S. Grimme J.Chem.Phys., 136, (2012), 154101 
   

Your calculation utilizes the atom-pairwise dispersion correction
based on EEQ partial charges (D4)


================================================================================

----- Orbital basis set information -----
Your calculation utilizes the basis: def2-mTZVPP
   Stefan Grimme, Andreas Hansen, Sebastian Ehlert, and Jan-Michael Mewes 
   J. Chem. Phys. 154, 064103 (2021). DOI: 10.1063/5.0040021

----- AuxJ basis set information -----
Your calculation utilizes the basis: def2-mTZVPP/J
   Stefan Grimme, Andreas Hansen, Sebastian Ehlert, and Jan-Michael Mewes 
   J. Chem. Phys. 154, 000000 (2021). DOI: 10.1063/5.0040021

================================================================================
                                        WARNINGS
                       Please study these warnings very carefully!
================================================================================



WARNING: SCAN, rSCAN, or r2SCAN functional requested.
  ===> : libXC variant has now been activated.



WARNING: Geometry Optimization
  ===> : Switching off AutoStart
         For restart on a previous wavefunction, please use MOREAD

================================================================================
                                       INPUT FILE
================================================================================
NAME = ts_optfreq.inp
|  1> ! r2SCAN-3c OptTS Freq PAL8 SOSCF TightSCF
|  2> 
|  3> %pal
|  4>    nprocs 8
|  5> end
|  6> 
|  7> %scf
|  8>    MaxIter 150
|  9> end
| 10> 
| 11> %geom
| 12>   Calc_Hess true
| 13>   Recalc_Hess 5
| 14> end
| 15> 
| 16> * xyz -1 1
| 17>   C           0.10598431669346      0.06127900541319     -0.28514833126477
| 18>   H           0.16718343908677      1.12489598694895     -0.08532763266013
| 19>   H           1.05806969171987     -0.41688437823201     -0.08552881463198
| 20>   H          -0.66750538958849     -0.38574725114313      0.33610116148744
| 21>   F          -0.43202445171532     -0.24992340605901      2.20945480124451
| 22>   Cl         -0.23170760619629     -0.13361995692800     -2.04323118417507
| 23> *
| 24> 
| 25>                          ****END OF INPUT****
================================================================================

                       *****************************
                       * Geometry Optimization Run *
                       *****************************

Geometry optimization settings:
Update method            Update   .... Bofill
Choice of coordinates    CoordSys .... (2022) Redundant Internals
Initial Hessian          InHess   .... Almloef's Model
Max. no of cycles        MaxIter  .... 50

Convergence Tolerances:
Energy Change            TolE     ....  5.0000e-06 Eh
Max. Gradient            TolMAXG  ....  3.0000e-04 Eh/bohr
RMS Gradient             TolRMSG  ....  1.0000e-04 Eh/bohr
Max. Displacement        TolMAXD  ....  4.0000e-03 bohr
RMS Displacement         TolRMSD  ....  2.0000e-03 bohr
Strict Convergence                .... False

------------------------------------------------------------------------------
                        ORCA OPTIMIZATION COORDINATE SETUP
------------------------------------------------------------------------------

The optimization will be done in redundant internal coordinates (2022)
Making redundant internal coordinates   ...  (2022 redundants) done
Following TS mode number                ...     0
Evaluating the initial hessian          ...  (Is done on the fly) done
Evaluating the coordinates              ...  done
Calculating the B-matrix                .... done
Calculating the G-matrix                .... done
The number of degrees of freedom        ....   16

    -----------------------------------------------------------------
                    Redundant Internal Coordinates


    -----------------------------------------------------------------
         Definition                    Initial Value    d2E/dq (diagonal element)
    -----------------------------------------------------------------
      1. B(H   1,C   0)                  1.0840         0.000000   
      2. B(H   2,C   0)                  1.0840         0.000000   
      3. B(H   3,C   0)                  1.0881         0.000000   
      4. B(F   4,H   3)                  1.8930         0.000000   
      5. B(Cl  5,H   3)                  2.4320         0.000000   
      6. B(Cl  5,C   0)                  1.8008         0.000000   
      7. A(H   1,C   0,H   3)          109.7546         0.000000   
      8. A(H   1,C   0,H   2)          110.4453         0.000000   
      9. A(H   1,C   0,Cl  5)          107.2630         0.000000   
     10. A(H   2,C   0,Cl  5)          107.2630         0.000000   
     11. A(H   3,C   0,Cl  5)          112.3102         0.000000   
     12. A(H   2,C   0,H   3)          109.7546         0.000000   
     13. A(C   0,H   3,F   4)          116.5580         0.000000   
     14. D(F   4,H   3,C   0,H   2)     60.7782         0.000000   
     15. D(F   4,H   3,C   0,Cl  5)   -180.0000         0.000000   
     16. D(F   4,H   3,C   0,H   1)    -60.7782         0.000000   
    -----------------------------------------------------------------

Number of atoms                         .... 6
Number of degrees of freedom            .... 16


         *************************************************************
         *                GEOMETRY OPTIMIZATION CYCLE   1            *
         *************************************************************
---------------------------------
CARTESIAN COORDINATES (ANGSTROEM)
---------------------------------
  C      0.105984    0.061279   -0.285148
  H      0.167183    1.124896   -0.085328
  H      1.058070   -0.416884   -0.085529
  H     -0.667505   -0.385747    0.336101
  F     -0.432024   -0.249923    2.209455
  Cl    -0.231708   -0.133620   -2.043231

----------------------------
CARTESIAN COORDINATES (A.U.)
----------------------------
  NO LB      ZA    FRAG     MASS         X           Y           Z
   0 C     6.0000    0    12.011    0.200281    0.115801   -0.538852
   1 H     1.0000    0     1.008    0.315931    2.125745   -0.161246
   2 H     1.0000    0     1.008    1.999462   -0.787797   -0.161626
   3 H     1.0000    0     1.008   -1.261402   -0.728957    0.635139
   4 F     9.0000    0    18.998   -0.816408   -0.472287    4.175264
   5 Cl   17.0000    0    35.453   -0.437864   -0.252505   -3.861147

--------------------------------
INTERNAL COORDINATES (ANGSTROEM)
--------------------------------
 C      0   0   0     0.000000000000     0.00000000     0.00000000
 H      1   0   0     1.083953286624     0.00000000     0.00000000
 H      1   2   0     1.083953289685   110.44534420     0.00000000
 H      1   2   3     1.088149682727   109.75460259   121.14148289
 F      4   1   2     1.892974708913   116.55798312   299.22179851
 Cl     1   2   3     1.800798922146   107.26296603   243.41675474

---------------------------
INTERNAL COORDINATES (A.U.)
---------------------------
 C      0   0   0     0.000000000000     0.00000000     0.00000000
 H      1   0   0     2.048374853684     0.00000000     0.00000000
 H      1   2   0     2.048374859468   110.44534420     0.00000000
 H      1   2   3     2.056304893068   109.75460259   121.14148289
 F      4   1   2     3.577203778286   116.55798312   299.22179851
 Cl     1   2   3     3.403016785117   107.26296603   243.41675474

---------------------
BASIS SET INFORMATION
---------------------
There are 4 groups of distinct atoms

 Group   1 Type C   : 11s6p1d contracted to 5s3p1d pattern {62111/411/1}
 Group   2 Type H   : 4s1p contracted to 2s1p pattern {31/1}
 Group   3 Type F   : 11s6p2d contracted to 5s3p2d pattern {62111/411/11}
 Group   4 Type Cl  : 14s9p2d contracted to 5s4p2d pattern {73211/6111/11}

Atom   0C    basis set group =>   1
Atom   1H    basis set group =>   2
Atom   2H    basis set group =>   2
Atom   3H    basis set group =>   2
Atom   4F    basis set group =>   3
Atom   5Cl   basis set group =>   4
---------------------------------
AUXILIARY/J BASIS SET INFORMATION
---------------------------------
There are 4 groups of distinct atoms

 Group   1 Type C   : 8s3p3d contracted to 6s3p3d pattern {311111/111/111}
 Group   2 Type H   : 5s2p1d contracted to 3s1p1d pattern {311/2/1}
 Group   3 Type F   : 8s3p4d contracted to 6s3p4d pattern {311111/111/1111}
 Group   4 Type Cl  : 14s5p5d2f contracted to 8s4p3d1f pattern {71111111/2111/311/2}

Atom   0C    basis set group =>   1
Atom   1H    basis set group =>   2
Atom   2H    basis set group =>   2
Atom   3H    basis set group =>   2
Atom   4F    basis set group =>   3
Atom   5Cl   basis set group =>   4


           ************************************************************
           *        Program running with 8 parallel MPI-processes     *
           *              working on a common directory               *
           ************************************************************
------------------------------------------------------------------------------
                             ORCA STARTUP CALCULATIONS
                           -- RI-GTO INTEGRALS CHOSEN --
------------------------------------------------------------------------------
------------------------------------------------------------------------------
                   ___                                                        
                  /   \      - P O W E R E D   B Y -                         
                 /     \                                                     
                 |  |  |   _    _      __       _____    __    __             
                 |  |  |  | |  | |    /  \     |  _  \  |  |  /  |          
                  \  \/   | |  | |   /    \    | | | |  |  | /  /          
                 / \  \   | |__| |  /  /\  \   | |_| |  |  |/  /          
                |  |  |   |  __  | /  /__\  \  |    /   |      \           
                |  |  |   | |  | | |   __   |  |    \   |  |\   \          
                \     /   | |  | | |  |  |  |  | |\  \  |  | \   \       
                 \___/    |_|  |_| |__|  |__|  |_| \__\ |__|  \__/        
                                                                              
                      - O R C A' S   B I G   F R I E N D -                    
                                      &                                       
                       - I N T E G R A L  F E E D E R -                       
                                                                              
 v1 FN, 2020, v2 2021, v3 2022-2024                                           
------------------------------------------------------------------------------


----------------------
SHARK INTEGRAL PACKAGE
----------------------

Number of atoms                             ...      6
Number of basis functions                   ...     85
Number of shells                            ...     39
Maximum angular momentum                    ...      2
Integral batch strategy                     ... SHARK/LIBINT Hybrid
RI-J (if used) integral strategy            ... SPLIT-RIJ (Revised 2003 algorithm where possible)
Printlevel                                  ...      1
Contraction scheme used                     ... SEGMENTED contraction
Prescreening option                         ... SCHWARTZ
   Thresh                                   ... 2.500e-11
   Tcut                                     ... 2.500e-12
   Tpresel                                  ... 2.500e-12 
Coulomb Range Separation                    ... NOT USED
Exchange Range Separation                   ... NOT USED
Multipole approximations                    ... NOT USED
Finite Nucleus Model                        ... NOT USED
CABS basis                                  ... NOT available
Auxiliary Coulomb fitting basis             ... AVAILABLE
   # of basis functions in Aux-J            ...    140
   # of shells in Aux-J                     ...     56
   Maximum angular momentum in Aux-J        ...      3
Auxiliary J/K fitting basis                 ... NOT available
Auxiliary Correlation fitting basis         ... NOT available
Auxiliary 'external' fitting basis          ... NOT available

Checking pre-screening integrals            ... done (  0.0 sec) Dimension = 39
   => SHARK Basis and OBASIS are compatible. Storing Pre-screening
Shell pair information
Shell pair cut-off parameter TPreSel        ...   2.5e-12
Total number of shell pairs                 ...       780
Shell pairs after pre-screening             ...       731
Total number of primitive shell pairs       ...      3096
Primitive shell pairs kept                  ...      2268
          la=0 lb=0:    209 shell pairs
          la=1 lb=0:    258 shell pairs
          la=1 lb=1:     88 shell pairs
          la=2 lb=0:     99 shell pairs
          la=2 lb=1:     62 shell pairs
          la=2 lb=2:     15 shell pairs

Checking whether 4 symmetric matrices of dimension 85 fit in memory
:Max Core in MB      =   4096.00
 MB in use           =      2.92
 MB left             =   4093.08
 MB needed           =      0.11
 Data fit in memory  = YES
Calculating RI/J V-Matrix + Cholesky decomp.... done (  0.1 sec)
Calculating Nuclear repulsion               ... done (  0.0 sec) ENN=     87.076411252121 Eh

Diagonalization of the overlap matrix:
Smallest eigenvalue                        ... 6.537e-03
Time for diagonalization                   ...    0.001 sec
Threshold for overlap eigenvalues          ... 1.000e-07
Number of eigenvalues below threshold      ... 0
Time for construction of square roots      ...    0.002 sec
Total time needed                          ...    0.006 sec

-------------------
DFT GRID GENERATION
-------------------

General Integration Accuracy     IntAcc      ... 4.388
Radial Grid Type                 RadialGrid  ... OptM3 with GC (2021)
Angular Grid (max. ang.)         AngularGrid ... 4 (Lebedev-302)
Angular grid pruning method      GridPruning ... 4 (adaptive)
Weight generation scheme         WeightScheme... mBecke (2022)
Basis function cutoff            BFCut       ... 1.0000e-11
Integration weight cutoff        WCut        ... 1.0000e-14
Partially contracted basis set               ... off
Rotationally invariant grid construction     ... off
Angular grids for H and He will be reduced by one unit

Total number of grid points                  ...    29401
Total number of batches                      ...      462
Average number of points per batch           ...       63
Average number of grid points per atom       ...     4900
Grids setup in   0.6 sec
Initializing property integral containers    ... done (  0.0 sec)

SHARK setup successfully completed in   1.0 seconds

Maximum memory used throughout the entire STARTUP-calculation: 9.8 MB


           ************************************************************
           *        Program running with 8 parallel MPI-processes     *
           *              working on a common directory               *
           ************************************************************
-------------------------------------------------------------------------------
                                 ORCA GUESS
                   Start orbitals & Density for SCF / CASSCF
-------------------------------------------------------------------------------

------------
SCF SETTINGS
------------
Hamiltonian:
 Density Functional     Method          .... DFT(GTOs)
  Functional kind                       .... Exchange
  Functional name                       .... Re-regularized SCAN exchange by Furness et al
  Functional family                     .... MGGA
  Functional refs                              
    [ 0] J. W. Furness, A. D. Kaplan, J. Ning, J. P. Perdew, and J. Sun.,  J. Phys. Chem. Lett. 11, 8208-8215 (2020), doi: 10.1021/acs.jpclett.0c02405
    [ 1] J. W. Furness, A. D. Kaplan, J. Ning, J. P. Perdew, and J. Sun.,  J. Phys. Chem. Lett. 11, 9248-9248 (2020), doi: 10.1021/acs.jpclett.0c03077
  Functional external parameters        .... 6
    Parameter  0 _c1        =  6.670000e-01 : c1 parameter        
    Parameter  1 _c2        =  8.000000e-01 : c2 parameter        
    Parameter  2 _d         =  1.240000e+00 : d parameter         
    Parameter  3 _k1        =  6.500000e-02 : k1 parameter        
    Parameter  4 _eta       =  1.000000e-03 : eta parameter       
    Parameter  5 _dp2       =  3.610000e-01 : dp2 parameter       
  Functional kind                       .... Correlation
  Functional name                       .... Re-regularized SCAN correlation by Furness et al
  Functional family                     .... MGGA
  Functional refs                              
    [ 0] J. W. Furness, A. D. Kaplan, J. Ning, J. P. Perdew, and J. Sun.,  J. Phys. Chem. Lett. 11, 8208-8215 (2020), doi: 10.1021/acs.jpclett.0c02405
    [ 1] J. W. Furness, A. D. Kaplan, J. Ning, J. P. Perdew, and J. Sun.,  J. Phys. Chem. Lett. 11, 9248-9248 (2020), doi: 10.1021/acs.jpclett.0c03077
  Functional external parameters        .... 1
    Parameter  0 _eta       =  1.000000e-03 : Regularization parameter
 Gradients option       PostSCFGGA      .... off
 RI-approximation to the Coulomb term is turned on
   Number of AuxJ basis functions       .... 140


General Settings:
 Integral files         IntName         .... ts_optfreq
 Hartree-Fock type      HFTyp           .... RHF
 Total Charge           Charge          ....   -1
 Multiplicity           Mult            ....    1
 Number of Electrons    NEL             ....   36
 Basis Dimension        Dim             ....   85
 Nuclear Repulsion      ENuc            ....     87.0764112521 Eh

Convergence Acceleration:
 AO-DIIS                CNVDIIS         .... on
   Start iteration      DIISMaxIt       ....    12
   Startup error        DIISStart       ....  0.200000
   # of expansion vecs  DIISMaxEq       ....     5
   Bias factor          DIISBfac        ....   1.050
   Max. coefficient     DIISMaxC        ....  10.000
 MO-DIIS                CNVKDIIS        .... off
 Trust-Rad. Augm. Hess. CNVTRAH         .... auto
   Auto Start mean grad. ratio tolernc. ....  1.125000
   Auto Start start iteration           ....    50
   Auto Start num. interpolation iter.  ....    10
   Max. Number of Micro iterations      ....    24
   Max. Number of Macro iterations      .... Maxiter - #DIIS iter
   Number of Davidson start vectors     ....     2
   Converg. threshold    (grad. norm)   ....   1.000e-05
   Grad. Scal. Fac. for Micro threshold ....   0.100
   Minimum threshold for Micro iter.    ....   1.000e-02
   NR start threshold (gradient norm)   ....   1.000e-04
   Initial trust radius                 ....   0.400
   Minimum AH scaling param. (alpha)    ....   1.000
   Maximum AH scaling param. (alpha)    .... 1000.000
   Quad. conv. algorithm                .... NR
   White noise on init. David. guess    .... on
   Maximum white noise                  ....   0.010
   Pseudo random numbers                .... off
   Inactive MOs                         .... canonical
   Orbital update algorithm             .... Taylor
   Preconditioner                       .... Diag
   Full preconditioner red. dimension   ....   250
   COSX micro iterations for RIJONX calc.... off
 SOSCF                 CNVSOSCF           .... on
   Start iteration     SOSCFMaxIt         ....   150
   Startup grad/error  SOSCFStart         ....  0.003300
   Hessian update      SOSCFHessUp        .... L-BFGS
   Autom. constraints  SOSCFAutoConstrain .... off
 Level Shifting         CNVShift        .... on
   Level shift para.    LevelShift      ....    0.2500
   Turn off err/grad.   ShiftErr        ....    0.0010
 Zerner damping         CNVZerner       .... off
 Static damping         CNVDamp         .... on
   Fraction old density DampFac         ....    0.7000
   Max. Damping (<1)    DampMax         ....    0.9800
   Min. Damping (>=0)   DampMin         ....    0.0000
   Turn off err/grad.   DampErr         ....    0.1000

SCF Procedure:
 Maximum # iterations   MaxIter         ....   150
 SCF integral mode      SCFMode         .... Direct
   Integral package                     .... SHARK and LIBINT hybrid scheme
 Reset frequency        DirectResetFreq ....    20
 Integral Threshold     Thresh          ....  2.500e-11 Eh
 Primitive CutOff       TCut            ....  2.500e-12 Eh

Convergence Tolerance:
 Convergence Check Mode ConvCheckMode   .... Total+1el-Energy
 Convergence forced     ConvForced      .... 0
 Energy Change          TolE            ....  1.000e-08 Eh
 1-El. energy change                    ....  1.000e-05 Eh
 Orbital Gradient       TolG            ....  1.000e-05
 Orbital Rotation angle TolX            ....  1.000e-05
 DIIS Error             TolErr          ....  5.000e-07

------------------------------
INITIAL GUESS: MODEL POTENTIAL
------------------------------
Loading Hartree-Fock densities                     ... done
Calculating cut-offs                               ... done
Initializing the effective Hamiltonian             ... done
Setting up the integral package (SHARK)            ... done
Starting the Coulomb interaction                   ... done (   0.0 sec)
Making the grid                                    ... done (   0.2 sec)
Mapping shells                                     ... done
Starting the XC term evaluation                    ... done (   0.0 sec)
  promolecular density results
     # of electrons  =     34.998250189
     EX              =    -43.285813310
     EC              =     -1.243674937
     EX+EC           =    -44.529488247
Transforming the Hamiltonian                       ... done (   0.1 sec)
Diagonalizing the Hamiltonian                      ... done (   0.0 sec)
Back transforming the eigenvectors                 ... done (   0.0 sec)
Now organizing SCF variables                       ... done
                      ------------------
                      INITIAL GUESS DONE (   0.3 sec)
                      ------------------
             **** ENERGY FILE WAS UPDATED (ts_optfreq.en.tmp) ****
Finished Guess after   0.5 sec
Maximum memory used throughout the entire GUESS-calculation: 5.2 MB


           ************************************************************
           *        Program running with 8 parallel MPI-processes     *
           *              working on a common directory               *
           ************************************************************

-------------------------------------------------------------------------------------------
                                      ORCA LEAN-SCF
                              memory conserving SCF solver
-------------------------------------------------------------------------------------------

----------------------------------------D-I-I-S--------------------------------------------
Iteration    Energy (Eh)           Delta-E    RMSDP     MaxDP     DIISErr   Damp  Time(sec)
-------------------------------------------------------------------------------------------
               ***  Starting incremental Fock matrix formation  ***
    1    -599.7653140125621576     0.00e+00  1.43e-02  7.73e-02  3.92e-01  0.700   0.3
Warning: op=0 Small HOMO/LUMO gap (   0.092) - skipping pre-diagonalization
         Will do a full diagonalization
    2    -599.8504042612659077    -8.51e-02  9.62e-03  3.59e-02  1.22e-01  0.700   0.4
                               ***Turning on AO-DIIS***
    3    -599.8773546758532120    -2.70e-02  4.08e-03  2.18e-02  3.14e-02  0.700   0.4
    4    -599.8946669584249776    -1.73e-02  6.55e-03  4.12e-02  1.99e-02  0.000   0.4
    5    -599.9355989197359804    -4.09e-02  2.24e-03  1.16e-02  8.54e-03  0.000   0.4
                              *** Initializing SOSCF ***
---------------------------------------S-O-S-C-F--------------------------------------
Iteration    Energy (Eh)           Delta-E    RMSDP     MaxDP     MaxGrad    Time(sec)
--------------------------------------------------------------------------------------
    6    -599.9361009289543745    -5.02e-04  9.02e-04  4.36e-03  2.69e-03     0.5
               *** Restarting incremental Fock matrix formation ***
    7    -599.9361786200602182    -7.77e-05  1.29e-03  6.89e-03  1.34e-03     0.4
    8    -599.9361866205701972    -8.00e-06  3.71e-04  2.08e-03  2.03e-03     0.4
    9    -599.9362033068093751    -1.67e-05  3.80e-04  1.95e-03  8.69e-04     0.5
   10    -599.9362084937123427    -5.19e-06  1.05e-04  7.67e-04  1.47e-04     0.4
   11    -599.9362089291840903    -4.35e-07  4.06e-05  1.90e-04  1.01e-04     0.4
   12    -599.9362089827723139    -5.36e-08  2.36e-05  1.06e-04  6.60e-05     0.4
   13    -599.9362090129696981    -3.02e-08  7.58e-06  4.96e-05  1.62e-05     0.3
   14    -599.9362090155885880    -2.62e-09  5.26e-06  2.44e-05  1.01e-05     0.4
                 **** Energy Check signals convergence ****

               *****************************************************
               *                     SUCCESS                       *
               *           SCF CONVERGED AFTER  14 CYCLES          *
               *****************************************************

             **** ENERGY FILE WAS UPDATED (ts_optfreq.en.tmp) ****

----------------
TOTAL SCF ENERGY
----------------

Total Energy       :       -599.93620901676957 Eh          -16325.09420 eV

Components:
Nuclear Repulsion  :         87.07641125212093 Eh            2369.46961 eV
Electronic Energy  :       -687.01262026889049 Eh          -18694.56381 eV
One Electron Energy:      -1009.87402030972555 Eh          -27480.06915 eV
Two Electron Energy:        322.86140004083512 Eh            8785.50534 eV

Virial components:
Potential Energy   :      -1198.49592248052249 Eh          -32612.73205 eV
Kinetic Energy     :        598.55971346375281 Eh           16287.63785 eV
Virial Ratio       :          2.00229967958427

DFT components:
N(Alpha)           :       17.999994179556 electrons
N(Beta)            :       17.999994179556 electrons
N(Total)           :       35.999988359112 electrons
E(X)               :      -44.143412388563 Eh       
E(C)               :       -1.262905768510 Eh       
E(XC)              :      -45.406318157073 Eh       

---------------
SCF CONVERGENCE
---------------

  Last Energy change         ...    2.6189e-09  Tolerance :   1.0000e-08
  Last MAX-Density change    ...    2.4390e-05  Tolerance :   1.0000e-07
  Last RMS-Density change    ...    5.2625e-06  Tolerance :   5.0000e-09
  Last DIIS Error            ...    2.6947e-03  Tolerance :   5.0000e-07
  Last Orbital Gradient      ...    1.0078e-05  Tolerance :   1.0000e-05
  Last Orbital Rotation      ...    3.5158e-05  Tolerance :   1.0000e-05


----------------
ORBITAL ENERGIES
----------------

  NO   OCC          E(Eh)            E(eV) 
   0   2.0000    -101.040684     -2749.4568 
   1   2.0000     -24.049104      -654.4094 
   2   2.0000      -9.893521      -269.2164 
   3   2.0000      -9.197478      -250.2761 
   4   2.0000      -6.942927      -188.9266 
   5   2.0000      -6.933846      -188.6796 
   6   2.0000      -6.933805      -188.6784 
   7   2.0000      -0.682344       -18.5675 
   8   2.0000      -0.644216       -17.5300 
   9   2.0000      -0.457687       -12.4543 
  10   2.0000      -0.236224        -6.4280 
  11   2.0000      -0.223680        -6.0866 
  12   2.0000      -0.215672        -5.8687 
  13   2.0000      -0.110455        -3.0056 
  14   2.0000      -0.108089        -2.9413 
  15   2.0000       0.031245         0.8502 
  16   2.0000       0.033144         0.9019 
  17   2.0000       0.033974         0.9245 
  18   0.0000       0.184971         5.0333 
  19   0.0000       0.263600         7.1729 
  20   0.0000       0.340893         9.2762 
  21   0.0000       0.348524         9.4838 
  22   0.0000       0.371970        10.1218 
  23   0.0000       0.376188        10.2366 
  24   0.0000       0.414947        11.2913 
  25   0.0000       0.447784        12.1848 
  26   0.0000       0.526161        14.3176 
  27   0.0000       0.529635        14.4121 
  28   0.0000       0.561773        15.2866 
*Only the first 10 virtual orbitals were printed.

                    ********************************
                    * MULLIKEN POPULATION ANALYSIS *
                    ********************************

-----------------------
MULLIKEN ATOMIC CHARGES
-----------------------
   0 C :   -0.325947
   1 H :    0.139236
   2 H :    0.139236
   3 H :    0.244431
   4 F :   -0.856978
   5 Cl:   -0.339978
Sum of atomic charges:   -1.0000000

--------------------------------
MULLIKEN REDUCED ORBITAL CHARGES
--------------------------------
  0 C s       :     3.294279  s :     3.294279
      pz      :     0.726830  p :     3.000813
      px      :     1.162376
      py      :     1.111607
      dz2     :     0.011931  d :     0.030855
      dxz     :     0.005852
      dyz     :     0.004442
      dx2y2   :     0.005426
      dxy     :     0.003203

  1 H s       :     0.842142  s :     0.842142
      pz      :     0.003631  p :     0.018622
      px      :     0.003922
      py      :     0.011069

  2 H s       :     0.842142  s :     0.842142
      pz      :     0.003630  p :     0.018622
      px      :     0.009664
      py      :     0.005328

  3 H s       :     0.732925  s :     0.732925
      pz      :     0.011197  p :     0.022644
      px      :     0.006967
      py      :     0.004479

  4 F s       :     3.989898  s :     3.989898
      pz      :     1.918108  p :     5.868548
      px      :     1.969613
      py      :     1.980827
      dz2     :    -0.001158  d :    -0.001468
      dxz     :    -0.000157
      dyz     :    -0.000103
      dx2y2   :    -0.000029
      dxy     :    -0.000020

  5 Cls       :     5.928764  s :     5.928764
      pz      :     3.419068  p :    11.359932
      px      :     3.962112
      py      :     3.978752
      dz2     :     0.020353  d :     0.051282
      dxz     :     0.014767
      dyz     :     0.014150
      dx2y2   :     0.001347
      dxy     :     0.000665



                     *******************************
                     * LOEWDIN POPULATION ANALYSIS *
                     *******************************

----------------------
LOEWDIN ATOMIC CHARGES
----------------------
   0 C :   -0.456783
   1 H :    0.143054
   2 H :    0.143053
   3 H :    0.195667
   4 F :   -0.878196
   5 Cl:   -0.146794

-------------------------------
LOEWDIN REDUCED ORBITAL CHARGES
-------------------------------
  0 C s       :     3.064783  s :     3.064783
      pz      :     0.924942  p :     3.318962
      px      :     1.208003
      py      :     1.186017
      dz2     :     0.027391  d :     0.073039
      dxz     :     0.013973
      dyz     :     0.010161
      dx2y2   :     0.013579
      dxy     :     0.007935

  1 H s       :     0.812643  s :     0.812643
      pz      :     0.007271  p :     0.044303
      px      :     0.009201
      py      :     0.027831

  2 H s       :     0.812644  s :     0.812644
      pz      :     0.007268  p :     0.044303
      px      :     0.024389
      py      :     0.012646

  3 H s       :     0.742085  s :     0.742085
      pz      :     0.030985  p :     0.062248
      px      :     0.019690
      py      :     0.011572

  4 F s       :     3.976091  s :     3.976091
      pz      :     1.921947  p :     5.885513
      px      :     1.977763
      py      :     1.985803
      dz2     :     0.013607  d :     0.016592
      dxz     :     0.001576
      dyz     :     0.001206
      dx2y2   :     0.000136
      dxy     :     0.000067

  5 Cls       :     5.709909  s :     5.709909
      pz      :     3.433183  p :    11.329374
      px      :     3.941180
      py      :     3.955010
      dz2     :     0.050767  d :     0.107511
      dxz     :     0.028264
      dyz     :     0.025015
      dx2y2   :     0.002221
      dxy     :     0.001243



                      *****************************
                      * MAYER POPULATION ANALYSIS *
                      *****************************

  NA   - Mulliken gross atomic population
  ZA   - Total nuclear charge
  QA   - Mulliken gross atomic charge
  VA   - Mayer's total valence
  BVA  - Mayer's bonded valence
  FA   - Mayer's free valence

  ATOM       NA         ZA         QA         VA         BVA        FA
  0 C      6.3259     6.0000    -0.3259     3.8526     3.8526     0.0000
  1 H      0.8608     1.0000     0.1392     0.9582     0.9582    -0.0000
  2 H      0.8608     1.0000     0.1392     0.9582     0.9582     0.0000
  3 H      0.7556     1.0000     0.2444     0.9529     0.9529     0.0000
  4 F      9.8570     9.0000    -0.8570     0.2199     0.2199     0.0000
  5 Cl    17.3400    17.0000    -0.3400     0.8965     0.8965     0.0000

  Mayer bond orders larger than 0.100000
B(  0-C ,  1-H ) :   0.9671 B(  0-C ,  2-H ) :   0.9671 B(  0-C ,  3-H ) :   0.9074 
B(  0-C ,  4-F ) :   0.1563 B(  0-C ,  5-Cl) :   0.8547 

-------
TIMINGS
-------

Total SCF time: 0 days 0 hours 0 min 6 sec 

Total time                  ....       6.320 sec
Sum of individual times     ....       5.899 sec  ( 93.3%)

SCF preparation             ....       0.145 sec  (  2.3%)
Fock matrix formation       ....       3.891 sec  ( 61.6%)
  Startup                   ....       0.010 sec  (  0.3% of F)
  Split-RI-J                ....       0.588 sec  ( 15.1% of F)
  XC integration            ....       3.191 sec  ( 82.0% of F)
    XC Preparation          ....       0.000 sec  (  0.0% of XC)
    Basis function eval.    ....       0.397 sec  ( 12.4% of XC)
    Density eval.           ....       0.794 sec  ( 24.9% of XC)
    XC-Functional eval.     ....       0.422 sec  ( 13.2% of XC)
    XC-Potential eval.      ....       0.257 sec  (  8.1% of XC)
Diagonalization             ....       0.000 sec  (  0.0%)
Density matrix formation    ....       0.175 sec  (  2.8%)
Total Energy calculation    ....       0.211 sec  (  3.3%)
Population analysis         ....       0.095 sec  (  1.5%)
Orbital Transformation      ....       0.168 sec  (  2.7%)
Orbital Orthonormalization  ....       0.000 sec  (  0.0%)
DIIS solution               ....       0.476 sec  (  7.5%)
SOSCF solution              ....       0.737 sec  ( 11.7%)
Finished LeanSCF after   6.3 sec

Maximum memory used throughout the entire LEANSCF-calculation: 4.8 MB


           ************************************************************
           *        Program running with 8 parallel MPI-processes     *
           *              working on a common directory               *
           ************************************************************

------------------------------------------------------------------------------
                         ORCA PROPERTY INTEGRAL CALCULATIONS
------------------------------------------------------------------------------

GBWName                                   ... ts_optfreq.gbw
Number of atoms                           ...      6
Number of basis functions                 ...     85
Max core memory                           ...   4096 MB

Dipole integrals                          ... YES
Quadrupole integrals                      ...  NO
Linear momentum integrals                 ...  NO
Angular momentum integrals                ...  NO
Higher moments length integrals           ...  NO
Higher moments velocity integrals         ...  NO
Kinetic energy integrals                  ...  NO
GIAO right hand sides                     ...  NO
GIAO dipole derivative integrals          ...  NO
SOC integrals                             ...  NO
EPR diamagnetic integrals (GIAO)          ...  NO
EPR gauge integrals                       ...  NO
Field gradient integrals                  ...  NO (   0 nuclei)
Spin-dipole/Fermi contact integrals       ...  NO (   0 nuclei)
Contact density integrals                 ...  NO (   0 nuclei)
Nucleus-orbit integrals                   ...  NO (   0 nuclei)
Geometric perturbations                   ...  NO (   6 nuclei)

Choice of electric origin   ... Center of mass
Position of electric origin ... ( -0.3967, -0.2291, -0.9171) 
Choice of magnetic origin   ... GIAO
Position of magnetic origin ... (  0.0000,  0.0000,  0.0000) 

Calculating integrals                     ... Electric Dipole (Length)     done (  0.0 sec)

Property integrals calculated in   0.0 sec

Maximum memory used throughout the entire PROPINT-calculation: 5.4 MB


-------------------------------------------------------------------------------
                          DFT DISPERSION CORRECTION                            
                                                                               
                                DFTD4 V3.4.0                                   
-------------------------------------------------------------------------------
The R2SCAN3C composite method is recognized
Using three-body term ABC
Active option DFTDOPT                   ...         5   

-------------------------   ----------------
Dispersion correction           -0.000823849
-------------------------   ----------------

------------------   -----------------
gCP correction             0.006416077
------------------   -----------------

-------------------------   --------------------
FINAL SINGLE POINT ENERGY      -599.930616788888
-------------------------   --------------------



           ************************************************************
           *        Program running with 8 parallel MPI-processes     *
           *              working on a common directory               *
           ************************************************************
------------------------------------------------------------------------------
                         ORCA SCF GRADIENT CALCULATION
------------------------------------------------------------------------------

Nuc. rep. gradient        (SHARK) ... done (  0.0 sec)
HCore & Overlap gradient  (SHARK) ... done (  0.0 sec)
Split-RIJ-J gradient      (SHARK) ... done (  0.3 sec)
XC gradient                       ... done (  0.2 sec)
Dispersion correction             ... done (  0.0 sec)

-------------------
DISPERSION GRADIENT
-------------------

   1   C   :    0.000004736    0.000002737    0.000001295
   2   H   :    0.000000296   -0.000002313   -0.000001408
   3   H   :   -0.000001856    0.000001412   -0.000001408
   4   H   :    0.000003013    0.000001741    0.000004044
   5   F   :   -0.000005501   -0.000003183    0.000036188
   6   Cl  :   -0.000000688   -0.000000393   -0.000038711

Difference to translation invariance:
           :   -0.0000000000   -0.0000000000    0.0000000000

Difference to rotation invariance:
           :    0.0000000000   -0.0000000000   -0.0000000000

Norm of the Dispersion gradient    ...    0.0000540740
RMS gradient                       ...    0.0000127454
MAX gradient                       ...    0.0000387105
gCP correction                   ... done

------------------
CARTESIAN GRADIENT
------------------

   1   C   :   -0.003718442   -0.002145005   -0.016930092
   2   H   :    0.000294394   -0.002790005   -0.001970053
   3   H   :   -0.002267627    0.001647964   -0.001977768
   4   H   :    0.000988838    0.000566454   -0.006609680
   5   F   :    0.000503955    0.000298041   -0.001302519
   6   Cl  :    0.004198881    0.002422550    0.028790112

Difference to translation invariance:
           :   -0.0000000000   -0.0000000000   -0.0000000000

Difference to rotation invariance:
           :   -0.0000163032    0.0000153751    0.0000028221

Norm of the Cartesian gradient     ...    0.0350424468
RMS gradient                       ...    0.0082595839
MAX gradient                       ...    0.0287901123

-------
TIMINGS
-------

Total SCF gradient time     ....        0.600 sec

Densities                   ....       0.000 sec  (  0.0%)
One electron gradient       ....       0.007 sec  (  1.2%)
RI-J Coulomb gradient       ....       0.288 sec  ( 48.0%)
XC gradient                 ....       0.195 sec  ( 32.5%)

Maximum memory used throughout the entire SCFGRAD-calculation: 25.1 MB


           ************************************************************
           *        Program running with 8 parallel MPI-processes     *
           *              working on a common directory               *
           ************************************************************

------------------------------------------------------------------------------
                         ORCA PROPERTY INTEGRAL CALCULATIONS
------------------------------------------------------------------------------

GBWName                                   ... ts_optfreq.gbw
Number of atoms                           ...      6
Number of basis functions                 ...     85
Max core memory                           ...   4096 MB

Dipole integrals                          ...  NO
Quadrupole integrals                      ...  NO
Linear momentum integrals                 ...  NO
Angular momentum integrals                ...  NO
Higher moments length integrals           ...  NO
Higher moments velocity integrals         ...  NO
Kinetic energy integrals                  ...  NO
GIAO right hand sides                     ...  NO
GIAO dipole derivative integrals          ...  NO
SOC integrals                             ...  NO
EPR diamagnetic integrals (GIAO)          ...  NO
EPR gauge integrals                       ...  NO
Field gradient integrals                  ...  NO (   0 nuclei)
Spin-dipole/Fermi contact integrals       ...  NO (   0 nuclei)
Contact density integrals                 ...  NO (   0 nuclei)
Nucleus-orbit integrals                   ...  NO (   0 nuclei)
Geometric perturbations                   ... YES (   6 nuclei)

Choice of electric origin   ... Center of mass
Position of electric origin ... ( -0.3967, -0.2291, -0.9171) 
Choice of magnetic origin   ... GIAO
Position of magnetic origin ... (  0.0000,  0.0000,  0.0000) 

Calculating integrals                     ... Geometrical perturbation right hand sides

-----------------------
GEOMETRIC PERTURBATIONS (6 nuclei)
-----------------------

MaxCore                            ...   4096 MB
Number of batches                  ...      1

BATCH   0: Atoms    0 -    5 ( 18 perturbations)
   => H(core) and overlap derivative integrals     ... done (     0.1 sec)
   => Making and storing internal U-coefficients   ... done (     0.0 sec)
   => RI-J derivative integrals                    ... done (     0.6 sec)
   => RI-J response operators                      ... done (     0.1 sec)
   => XC derivative integrals                      ... done (     5.0 sec)
   => XC response operators                        ... done (     1.3 sec)
   => Completing and storing right hand sides      ... done (     0.0 sec)
   => Total time for right hand sides =   7.4 sec

  geometrical perturbations done (  7.4 sec)

Property integrals calculated in   7.4 sec

Maximum memory used throughout the entire PROPINT-calculation: 14.1 MB


           ************************************************************
           *        Program running with 8 parallel MPI-processes     *
           *              working on a common directory               *
           ************************************************************
------------------------------------------------------------------------------
                            ORCA SCF RESPONSE CALCULATION
------------------------------------------------------------------------------

GBWName                                 ... ts_optfreq.gbw
Number of atoms                         ...      6
Number of basis functions               ...     85
Max core memory                         ...   4096 MB

Electric field perturbation             ...  NO
Quadrupolar field perturbation          ...  NO
Magnetic field perturbation (no GIAO)   ...  NO
Magnetic field perturbation (with GIAO) ...  NO
Linear momentum (velocity) perturbation ...  NO
Spin-orbit coupling perturbation        ...  NO
Choice of electric origin               ... Center of mass
Position of electric origin             ...    -0.396709    -0.229108    -0.917091
Choice of magnetic origin               ... GIAO
Position of magnetic origin             ...     0.000000     0.000000     0.000000
Nuclear geometric perturbations         ... YES (  18 perturbations)
Nucleus-orbit perturbations             ...  NO (   0 perturbations)
Spin-dipole/Fermi contact perturbations ...  NO (   0 perturbations)

Total number of real perturbations      ...     18
Total number of imaginary perturbations ...      0
Total number of triplet perturbations   ...      0
Total number of SOC perturbations       ...      0

Using XC Grid                  ... (ts_optfreq.grid_cpscf.tmp) 
Recalculating density on grid  ... (ts_optfreq.grho_cpscf0.tmp) done
Calculating the xc-kernel      ... (ts_optfreq.fxc_cpscf0.tmp) done

                                **********************
                                * REAL PERTURBATIONS *
                                **********************



-------------------
SHARK CP-SCF DRIVER
-------------------

Dimension of the orbital basis          ...     85
Dimension of the CPSCF-problem          ...   1206
Number of operators                     ...      1
Max. number of iterations               ...    128
Convergence Tolerance                   ... 1.0e-04
Number of perturbations                 ...     18
Perturbation type                       ... REAL

----------------------------
POPLE LINEAR EQUATION SOLVER
----------------------------

  ITERATION   0:   ||err||_max =   2.0051e-01 (   0.8 sec   0/ 18 done)
  ITERATION   1:   ||err||_max =   2.8770e-02 (   0.7 sec   0/ 18 done)
  ITERATION   2:   ||err||_max =   1.0739e-02 (   0.6 sec   0/ 18 done)
  ITERATION   3:   ||err||_max =   3.2793e-03 (   0.8 sec   0/ 18 done)
  ITERATION   4:   ||err||_max =   6.3347e-04 (   0.3 sec   2/ 18 done)
  ITERATION   5:   ||err||_max =   1.5172e-04 (   0.5 sec  14/ 18 done)
  ITERATION   6:   ||err||_max =   3.3275e-05 (   0.3 sec  18/ 18 done)

CP-SCF equations solved in   4.1 sec
Response densities calculated in   0.1 sec

Maximum memory used throughout the entire SCFRESP-calculation: 6.6 MB


           ************************************************************
           *        Program running with 8 parallel MPI-processes     *
           *              working on a common directory               *
           ************************************************************

------------------------------------------------------------------------------
                              ORCA PROPERTY CALCULATIONS
------------------------------------------------------------------------------

GBWName                                 ... ts_optfreq.gbw
Number of atoms                         ...      6
Number of basis functions               ...     85
Max core memory                         ...   4096 MB

Electric properties:
Dipole moment                           ...  NO
Quadrupole moment                       ...  NO
Static polarizability (Dipole/Dipole)   ...  NO
Static polarizability (Dipole/Quad.)    ...  NO
Static polarizability (Quad./Quad.)     ...  NO
Static polarizability (Velocity)        ...  NO
Static hyperpolarizability              ...  NO

Atomic electric properties:
Dipole moment                           ...  NO
Quadrupole moment                       ...  NO
Static polarizability                   ...  NO

Choice of electric origin               ... Center of mass
Position of electric origin             ...    -0.396709    -0.229108    -0.917091

General magnetic properties:
Magnetizability                         ...  NO

EPR properties:
g-Tensor (aka g-matrix)                 ...  NO
Zero-Field splitting spin-orbit         ...  NO
Zero-field splitting spin-spin          ...  NO
Hyperfine couplings                     ...  NO (   0 nuclei)
Quadrupole couplings                    ...  NO (   0 nuclei)
Contact density                         ...  NO (   0 nuclei)

NMR properties:
Chemical shifts                         ...  NO (   0 nuclei)
Spin-rotation constants                 ...  NO (   0 nuclei)
Spin-spin couplings                     ...  NO (   0 nuclei,    0 pairs)

Choice of magnetic origin               ... GIAO
Position of magnetic origin             ...     0.000000     0.000000     0.000000

Properties with geometric perturbations:
SCF Hessian                             ... YES
IR spectrum                             ... YES
VCD spectrum                            ...  NO
X-ray spectroscopy properties:
SCF XES/XAS/RIXS spectra                ...  NO

SCF SOC stabilization energy            ...  NO
Diagonal Born-Oppenheimer correction    ...  NO

-----------
SCF HESSIAN
-----------

Occupied/Occupied contributions to the Hessian:
   => Occupied/Occupied contributions              ... done (  0.0 sec)
Perturbed density contributions to the Hessian:
   => Perturbed density contributions              ... done (  0.0 sec)
Explicit contributions to the Hessian:
   => Nuclear repulsion Hessian                    ... done (  0.0 sec)
   => HCore and overlap Hessian                    ... done (  0.3 sec)
   => RI-J Hessian                                 ... done (  0.8 sec)
   => XC-Hessian                                   ... done (  3.3 sec)
   => Van der Waals-Hessian                        ... done (  0.6 sec)
   => GCP-Hessian                                  ... done (  0.0 sec)
   => Explicit contributions done
Dipole derivatives                                 ... done (  0.0 sec)
Mass weighting the Hessian           ... done
Calculating normal modes             ... done
Scaling frequencies                  ... done

-----------------------
VIBRATIONAL FREQUENCIES
-----------------------

Scaling factor for frequencies =  1.000000000  (already applied!)

     0:       0.00 cm**-1
     1:       0.00 cm**-1
     2:       0.00 cm**-1
     3:       0.00 cm**-1
     4:       0.00 cm**-1
     5:       0.00 cm**-1
     6:    -185.42 cm**-1  ***imaginary mode***
     7:     -48.66 cm**-1  ***imaginary mode***
     8:     217.64 cm**-1
     9:     665.78 cm**-1
    10:     864.29 cm**-1
    11:    1023.03 cm**-1
    12:    1278.93 cm**-1
    13:    1438.41 cm**-1
    14:    1455.93 cm**-1
    15:    3079.21 cm**-1
    16:    3203.62 cm**-1
    17:    3225.50 cm**-1


------------
NORMAL MODES
------------

These modes are the Cartesian displacements weighted by the diagonal matrix
M(i,i)=1/sqrt(m[i]) where m[i] is the mass of the displaced atom
Thus, these vectors are normalized but *not* orthogonal

                  0          1          2          3          4          5    
      0       0.000000   0.000000   0.000000   0.000000   0.000000   0.000000
      1       0.000000   0.000000   0.000000   0.000000   0.000000   0.000000
      2       0.000000   0.000000   0.000000   0.000000   0.000000   0.000000
      3       0.000000   0.000000   0.000000   0.000000   0.000000   0.000000
      4       0.000000   0.000000   0.000000   0.000000   0.000000   0.000000
      5       0.000000   0.000000   0.000000   0.000000   0.000000   0.000000
      6       0.000000   0.000000   0.000000   0.000000   0.000000   0.000000
      7       0.000000   0.000000   0.000000   0.000000   0.000000   0.000000
      8       0.000000   0.000000   0.000000   0.000000   0.000000   0.000000
      9       0.000000   0.000000   0.000000   0.000000   0.000000   0.000000
     10       0.000000   0.000000   0.000000   0.000000   0.000000   0.000000
     11       0.000000   0.000000   0.000000   0.000000   0.000000   0.000000
     12       0.000000   0.000000   0.000000   0.000000   0.000000   0.000000
     13       0.000000   0.000000   0.000000   0.000000   0.000000   0.000000
     14       0.000000   0.000000   0.000000   0.000000   0.000000   0.000000
     15       0.000000   0.000000   0.000000   0.000000   0.000000   0.000000
     16       0.000000   0.000000   0.000000   0.000000   0.000000   0.000000
     17       0.000000   0.000000   0.000000   0.000000   0.000000   0.000000
                  6          7          8          9         10         11    
      0       0.292029   0.096594  -0.032938  -0.169278  -0.111391  -0.053930
      1       0.170249  -0.164710  -0.018614  -0.097643  -0.064569   0.093107
      2      -0.083074  -0.000353   0.286405  -0.688251   0.021418   0.000012
      3       0.365589  -0.398375  -0.049549  -0.116861   0.118722   0.232143
      4       0.204325  -0.181811  -0.019540  -0.154821  -0.006019  -0.040577
      5      -0.250236   0.221922   0.289219  -0.336216  -0.313820   0.640517
      6       0.354674   0.359159  -0.043093  -0.192893   0.054466  -0.080733
      7       0.211344   0.256191  -0.034341  -0.024017   0.106586  -0.221100
      8      -0.246922  -0.223130   0.290312  -0.335844  -0.312376  -0.641263
      9       0.474336   0.344938  -0.064086   0.014810   0.282837   0.118265
     10       0.279658  -0.593266  -0.035632   0.008999   0.163561  -0.203855
     11       0.280489   0.000830   0.221169  -0.339267   0.806787   0.000991
     12      -0.118017  -0.037025   0.068406   0.011228   0.006693  -0.000250
     13      -0.068777   0.063111   0.039459   0.006448   0.003885   0.000429
     14      -0.019065  -0.000215  -0.771601   0.007562  -0.002244  -0.000007
     15      -0.069659  -0.021577  -0.021041   0.059718   0.021186   0.010737
     16      -0.040593   0.036736  -0.012293   0.034454   0.012284  -0.018537
     17       0.044521   0.000245   0.293678   0.257872  -0.011188  -0.000007
                 12         13         14         15         16         17    
      0      -0.010723   0.058515   0.032596  -0.007007   0.080992   0.048266
      1      -0.006175   0.033650  -0.056600  -0.004218   0.047062  -0.083079
      2       0.082883   0.007332   0.000044   0.043009  -0.015034  -0.000104
      3       0.080541  -0.668053  -0.294091  -0.022203  -0.009566   0.046440
      4       0.100036   0.087092  -0.073198  -0.484580  -0.506669   0.691453
      5      -0.594119  -0.158268   0.310097  -0.077770  -0.090977   0.118608
      6       0.126663  -0.257678   0.211042  -0.432583  -0.440719  -0.623056
      7       0.019666  -0.621505   0.219761   0.223622   0.243312   0.305793
      8      -0.593853  -0.159116  -0.310414  -0.078075  -0.090294  -0.118694
      9      -0.246406   0.113973  -0.393768   0.543842  -0.508284   0.010539
     10      -0.143084   0.066782   0.680779   0.314171  -0.293606  -0.022962
     11      -0.415820   0.144944  -0.000441  -0.345000   0.346082   0.001342
     12      -0.001117   0.000142   0.001752  -0.000812   0.000377  -0.000176
     13      -0.000630   0.000094  -0.003027  -0.000462   0.000216   0.000311
     14       0.001733   0.000544  -0.000009  -0.000030  -0.000012  -0.000003
     15       0.005346   0.003180   0.001575   0.000277  -0.000387  -0.000163
     16       0.003095   0.001845  -0.002726   0.000163  -0.000224   0.000279
     17       0.016590   0.002127   0.000012  -0.000315   0.000414   0.000001


-----------
IR SPECTRUM
-----------

 Mode   freq       eps      Int      T**2         TX        TY        TZ
       cm**-1   L/(mol*cm) km/mol    a.u.
----------------------------------------------------------------------------
  8:    217.64   0.016348   82.62  0.023442  (-0.014309 -0.008270  0.152212)
  9:    665.78   0.042657  215.57  0.019994  (-0.006171 -0.003513 -0.141223)
 10:    864.29   0.012219   61.75  0.004412  (-0.005065 -0.002913  0.066164)
 11:   1023.03   0.000031    0.15  0.000009  ( 0.001544 -0.002629  0.000098)
 12:   1278.93   0.000992    5.01  0.000242  ( 0.013478  0.007762 -0.000410)
 13:   1438.41   0.004509   22.79  0.000978  (-0.016527 -0.009580  0.024765)
 14:   1455.93   0.002836   14.33  0.000608  (-0.012280  0.021381 -0.000019)
 15:   3079.21   0.007387   37.33  0.000749  ( 0.013742  0.007892 -0.022305)
 16:   3203.62   0.015104   76.33  0.001471  (-0.000578 -0.000349  0.038352)
 17:   3225.50   0.001428    7.22  0.000138  ( 0.005809 -0.010217  0.000104)

* The epsilon (eps) is given for a Dirac delta lineshape.
** The dipole moment derivative (T) already includes vibrational overlap.

The first frequency considered to be a vibration is 8
The total number of vibrations considered is 10


--------------------------
THERMOCHEMISTRY AT 298.15K
--------------------------

Temperature         ...   298.15 K
Pressure            ...     1.00 atm
Total Mass          ...    69.49 AMU
Quasi RRHO          ...     True
Cut-Off Frequency   ...     1.00 cm^-1

Throughout the following assumptions are being made:
  (1) The electronic state is orbitally nondegenerate
  (2) There are no thermally accessible electronically excited states
  (3) Hindered rotations indicated by low frequency modes are not
      treated as such but are treated as vibrations and this may
      cause some error
  (4) All equations used are the standard statistical mechanics
      equations for an ideal gas
  (5) All vibrations are strictly harmonic

freq.     217.64  E(vib)   ...       0.33 
freq.     665.78  E(vib)   ...       0.08 
freq.     864.29  E(vib)   ...       0.04 
freq.    1023.03  E(vib)   ...       0.02 
freq.    1278.93  E(vib)   ...       0.01 
freq.    1438.41  E(vib)   ...       0.00 
freq.    1455.93  E(vib)   ...       0.00 
freq.    3079.21  E(vib)   ...       0.00 
freq.    3203.62  E(vib)   ...       0.00 
freq.    3225.50  E(vib)   ...       0.00 

------------
INNER ENERGY
------------

The inner energy is: U= E(el) + E(ZPE) + E(vib) + E(rot) + E(trans)
    E(el)   - is the total energy from the electronic structure calculation
              = E(kin-el) + E(nuc-el) + E(el-el) + E(nuc-nuc)
    E(ZPE)  - the the zero temperature vibrational energy from the frequency calculation
    E(vib)  - the the finite temperature correction to E(ZPE) due to population
              of excited vibrational states
    E(rot)  - is the rotational thermal energy
    E(trans)- is the translational thermal energy

Summary of contributions to the inner energy U:
Electronic energy                ...   -599.93061679 Eh
Zero point energy                ...      0.03748122 Eh      23.52 kcal/mol
Thermal vibrational correction   ...      0.00078075 Eh       0.49 kcal/mol
Thermal rotational correction    ...      0.00141627 Eh       0.89 kcal/mol
Thermal translational correction ...      0.00141627 Eh       0.89 kcal/mol
-----------------------------------------------------------------------
Total thermal energy                   -599.88952228 Eh


Summary of corrections to the electronic energy:
(perhaps to be used in another calculation)
Total thermal correction                  0.00361329 Eh       2.27 kcal/mol
Non-thermal (ZPE) correction              0.03748122 Eh      23.52 kcal/mol
-----------------------------------------------------------------------
Total correction                          0.04109451 Eh      25.79 kcal/mol


--------
ENTHALPY
--------

The enthalpy is H = U + kB*T
                kB is Boltzmann's constant
Total thermal energy              ...   -599.88952228 Eh 
Thermal Enthalpy correction       ...      0.00094421 Eh       0.59 kcal/mol
-----------------------------------------------------------------------
Total Enthalpy                    ...   -599.88857807 Eh


Note: Rotational entropy computed according to Herzberg 
Infrared and Raman Spectra, Chapter V,1, Van Nostrand Reinhold, 1945 
Point Group:  Cs, Symmetry Number:   1  
Rotational constants in cm-1:     2.778116     0.074069     0.073146 

Vibrational entropy computed according to the QRRHO of S. Grimme
Chem.Eur.J. 2012 18 9955 using a reference frequency of 100.0 cm-1


-------
ENTROPY
-------

The entropy contributions are T*S = T*(S(el)+S(vib)+S(rot)+S(trans))
     S(el)   - electronic entropy
     S(vib)  - vibrational entropy
     S(rot)  - rotational entropy
     S(trans)- translational entropy
The entropies will be listed as multiplied by the temperature to get
units of energy

Electronic entropy                ...      0.00000000 Eh      0.00 kcal/mol
Vibrational entropy               ...      0.00125359 Eh      0.79 kcal/mol
Rotational entropy                ...      0.01149183 Eh      7.21 kcal/mol
Translational entropy             ...      0.01835566 Eh     11.52 kcal/mol
-----------------------------------------------------------------------
Final entropy term                ...      0.03110108 Eh     19.52 kcal/mol

In case the symmetry of your molecule has not been determined correctly
or in case you have a reason to use a different symmetry number we print 
out the resulting rotational entropy values for sn=1,12:

 non-linear molecules -----------------------------------
|  sn= 1 | S(rot)=       0.01149183 Eh      7.21 kcal/mol|
|  sn= 2 | S(rot)=       0.01083738 Eh      6.80 kcal/mol|
|  sn= 3 | S(rot)=       0.01045454 Eh      6.56 kcal/mol|
|  sn= 4 | S(rot)=       0.01018292 Eh      6.39 kcal/mol|
|  sn= 5 | S(rot)=       0.00997223 Eh      6.26 kcal/mol|
|  sn= 6 | S(rot)=       0.00980009 Eh      6.15 kcal/mol|
|  sn= 7 | S(rot)=       0.00965454 Eh      6.06 kcal/mol|
|  sn= 8 | S(rot)=       0.00952846 Eh      5.98 kcal/mol|
|  sn= 9 | S(rot)=       0.00941725 Eh      5.91 kcal/mol|
|  sn=10 | S(rot)=       0.00931778 Eh      5.85 kcal/mol|
|  sn=11 | S(rot)=       0.00922779 Eh      5.79 kcal/mol|
|  sn=12 | S(rot)=       0.00914563 Eh      5.74 kcal/mol|
 linear molecules ---------------------------------------
|  Dinfh | S(rot)=       0.00779512 Eh      4.89 kcal/mol|
|  Cinfv | S(rot)=       0.00844957 Eh      5.30 kcal/mol|
 --------------------------------------------------------


-------------------
GIBBS FREE ENERGY
-------------------

The Gibbs free energy is G = H - T*S

Total enthalpy                    ...   -599.88857807 Eh 
Total entropy correction          ...     -0.03110108 Eh    -19.52 kcal/mol
-----------------------------------------------------------------------
Final Gibbs free energy         ...   -599.91967915 Eh

For completeness - the Gibbs free energy minus the electronic energy
G-E(el)                           ...      0.01093764 Eh      6.86 kcal/mol


Maximum memory used throughout the entire PROP-calculation: 25.2 MB
Actual Hessian File stored as ts_optfreq.001.hess
------------------------------------------------------------------------------
                         ORCA GEOMETRY RELAXATION STEP
------------------------------------------------------------------------------

Reading the OPT-File                    .... done
Getting information on internals        .... done
Copying old internal coords+grads       .... done
Making the new internal coordinates     .... (2022 redundants) done
Validating the new internal coordinates .... (2022 redundants) done
Calculating the B-matrix                .... done
Calculating the G,G- and P matrices     .... done
Transforming gradient to internals      .... done
Projecting the internal gradient        .... done
Number of atoms                         ....   6
Number of internal coordinates          ....  16
Current Energy                          ....  -599.930616789 Eh
Current gradient norm                   ....     0.035042447 Eh/bohr
Maximum allowed component of the step   ....  0.300
Current trust radius                    ....  0.300
Evaluating the initial hessian          ....  (read) 
(Reading Exact Hessian)...  
InHessName: ts_optfreq.hess	The file <ts_optfreq.hess> is opened as a .hess file
done
done
Projecting the Hessian                  .... done
Diagonalizing the Hessian               .... done
Dimension of the hessian                ....  16
Lowest eigenvalues of the Hessian:
 -0.019852537  0.000213131  0.025732645  0.048441047  0.068480441
Hessian has   1 negative eigenvalues
Taking P-RFO step
Searching for lambda that maximizes along the lowest mode
TS mode is mode number   0 with eigenvalue  -0.01985254 and components:
   1.   -0.01447310
   2.   -0.01439255
   3.   -0.05839451
   4.    0.47944342
   5.    0.08619141
   6.    0.07032697
   7.   -0.01670841
   8.    0.01508113
   9.   -0.01389359
  10.   -0.01371802
  11.    0.04594118
  12.   -0.01597986
  13.   -0.86640983
  14.    0.00059419
  15.    0.00208097
  16.    0.00285820

Lambda that maximizes along the TS mode:       0.00000113
Searching for lambda that minimizes along all other modes
In cycle   1: lambdaN =  -0.00443609   step =   0.00443609
In cycle   2: lambdaN =  -0.00446859   step =   0.00003249
In cycle   3: lambdaN =  -0.00446859   step =   0.00000000
Lambda that minimizes along all other modes:  -0.00446859
The final length of the internal step   ....       0.2395
Converting the step to Cartesian space:
 Initial RMS(Int)=    0.0598855264
Transforming coordinates:
 Iter   0:  RMS(Cart)=    0.0326518428 RMS(Int)=    1.5717097306
done
Storing new coordinates                 .... done

                                .--------------------.
          ----------------------|Geometry convergence|-------------------------
          Item                value                   Tolerance       Converged
          ---------------------------------------------------------------------
          RMS gradient        0.0060542597            0.0001000000      NO
          MAX gradient        0.0202809867            0.0003000000      NO
          RMS step            0.0598855264            0.0020000000      NO
          MAX step            0.1720029064            0.0040000000      NO
          -------------------------------------------------------------------------
          ........................................................
          Max(Bonds)      0.0910      Max(Angles)    1.45
          Max(Dihed)        0.92      Max(Improp)    0.00
          ---------------------------------------------------------------------

The optimization has not yet converged - more geometry cycles are needed


    ---------------------------------------------------------------------------
                         Redundant Internal Coordinates
                            (Angstroem and degrees)

        Definition                    Value    dE/dq     Step     New-Value  comp.(TS mode)
    ----------------------------------------------------------------------------
     1. B(H   1,C   0)                1.0840 -0.003084  0.0033    1.0873   
     2. B(H   2,C   0)                1.0840 -0.003083  0.0033    1.0873   
     3. B(H   3,C   0)                1.0881  0.001171  0.0070    1.0952   
     4. B(F   4,H   3)                1.8930 -0.001206 -0.0266    1.8664          0.48
     5. B(Cl  5,H   3)                2.4320 -0.009751  0.0910    2.5230   
     6. B(Cl  5,C   0)                1.8008 -0.020281  0.0792    1.8800   
     7. A(H   1,C   0,H   3)          109.75  0.000587    0.40    110.16   
     8. A(H   1,C   0,H   2)          110.45 -0.000950    1.00    111.44   
     9. A(H   1,C   0,Cl  5)          107.26 -0.002993   -1.45    105.82   
    10. A(H   2,C   0,Cl  5)          107.26 -0.002997   -1.44    105.82   
[...]
Rotational spectrum 
--------------------
 
Rotational constants in cm-1:             2.634928             0.071333             0.070400 
Rotational constants in MHz :         78993.161188          2138.500847          2110.535260 

Dipole components along the rotational axes: 
x,y,z [a.u.] :    -2.775126     0.389433    -0.000184 
x,y,z [Debye]:    -7.053811     0.989860    -0.000467 

 

Dipole moment calculation done in   0.1 sec 

-----------
SCF HESSIAN
-----------

Occupied/Occupied contributions to the Hessian:
   => Occupied/Occupied contributions              ... done (  0.0 sec)
Perturbed density contributions to the Hessian:
   => Perturbed density contributions              ... done (  0.0 sec)
Explicit contributions to the Hessian:
   => Nuclear repulsion Hessian                    ... done (  0.0 sec)
   => HCore and overlap Hessian                    ... done (  0.3 sec)
   => RI-J Hessian                                 ... done (  0.7 sec)
   => XC-Hessian                                   ... done (  2.3 sec)
   => Van der Waals-Hessian                        ... done (  0.8 sec)
   => GCP-Hessian                                  ... done (  0.0 sec)
   => Explicit contributions done
Dipole derivatives                                 ... done (  0.1 sec)
Mass weighting the Hessian           ... done
Calculating normal modes             ... done
Scaling frequencies                  ... done

-----------------------
VIBRATIONAL FREQUENCIES
-----------------------

Scaling factor for frequencies =  1.000000000  (already applied!)

     0:       0.00 cm**-1
     1:       0.00 cm**-1
     2:       0.00 cm**-1
     3:       0.00 cm**-1
     4:       0.00 cm**-1
     5:       0.00 cm**-1
     6:    -141.65 cm**-1  ***imaginary mode***
     7:     185.19 cm**-1
     8:     223.30 cm**-1
     9:     482.76 cm**-1
    10:     776.06 cm**-1
    11:     991.54 cm**-1
    12:    1244.33 cm**-1
    13:    1430.04 cm**-1
    14:    1454.89 cm**-1
    15:    3007.08 cm**-1
    16:    3158.82 cm**-1
    17:    3209.15 cm**-1


------------
NORMAL MODES
------------

These modes are the Cartesian displacements weighted by the diagonal matrix
M(i,i)=1/sqrt(m[i]) where m[i] is the mass of the displaced atom
Thus, these vectors are normalized but *not* orthogonal

                  0          1          2          3          4          5    
      0       0.000000   0.000000   0.000000   0.000000   0.000000   0.000000
      1       0.000000   0.000000   0.000000   0.000000   0.000000   0.000000
      2       0.000000   0.000000   0.000000   0.000000   0.000000   0.000000
      3       0.000000   0.000000   0.000000   0.000000   0.000000   0.000000
      4       0.000000   0.000000   0.000000   0.000000   0.000000   0.000000
      5       0.000000   0.000000   0.000000   0.000000   0.000000   0.000000
      6       0.000000   0.000000   0.000000   0.000000   0.000000   0.000000
      7       0.000000   0.000000   0.000000   0.000000   0.000000   0.000000
      8       0.000000   0.000000   0.000000   0.000000   0.000000   0.000000
      9       0.000000   0.000000   0.000000   0.000000   0.000000   0.000000
     10       0.000000   0.000000   0.000000   0.000000   0.000000   0.000000
     11       0.000000   0.000000   0.000000   0.000000   0.000000   0.000000
     12       0.000000   0.000000   0.000000   0.000000   0.000000   0.000000
     13       0.000000   0.000000   0.000000   0.000000   0.000000   0.000000
     14       0.000000   0.000000   0.000000   0.000000   0.000000   0.000000
     15       0.000000   0.000000   0.000000   0.000000   0.000000   0.000000
     16       0.000000   0.000000   0.000000   0.000000   0.000000   0.000000
     17       0.000000   0.000000   0.000000   0.000000   0.000000   0.000000
                  6          7          8          9         10         11    
      0       0.284481  -0.096152   0.026457  -0.201366  -0.108287  -0.047163
      1       0.165087   0.165797   0.024593  -0.116639  -0.062570   0.081582
      2      -0.110650   0.001174  -0.269954  -0.677158   0.017122  -0.000071
      3       0.353219   0.423310   0.062687  -0.151252   0.076452   0.208260
      4       0.190963   0.170003   0.026494  -0.163599  -0.020230  -0.022852
      5      -0.255917  -0.201608  -0.295044  -0.299690  -0.278990   0.654486
      6       0.341731  -0.360347   0.024342  -0.217730   0.020999  -0.083898
      7       0.212500  -0.282122   0.017902  -0.050160   0.075874  -0.191873
      8      -0.255135   0.204500  -0.278221  -0.298075  -0.278959  -0.655190
      9       0.484612  -0.338127   0.057946  -0.039828   0.297147   0.106298
     10       0.280375   0.584577   0.065588  -0.022629   0.171728  -0.184553
     11       0.289681   0.000596  -0.189704  -0.373514   0.835073  -0.000161
     12      -0.121626   0.037610  -0.068245   0.025347   0.008882  -0.000724
     13      -0.070544  -0.064265  -0.043295   0.014618   0.005161   0.001268
     14      -0.016846  -0.003148   0.781922   0.021459  -0.004006   0.000001
     15      -0.064741   0.020244   0.023485   0.066261   0.020707   0.009808
     16      -0.037570  -0.035166   0.011741   0.038403   0.011968  -0.016966
     17       0.052808   0.001190  -0.305855   0.245528  -0.011533   0.000048
                 12         13         14         15         16         17    
      0      -0.006776   0.064333   0.035473  -0.023937   0.077458   0.048482
      1      -0.003946   0.036973  -0.061700  -0.013873   0.044786  -0.083844
      2       0.083539  -0.002148  -0.000050   0.042536  -0.009061   0.000014
      3       0.015095  -0.681803  -0.298225  -0.017944  -0.014154   0.045578
      4       0.080162   0.072172  -0.060748  -0.373117  -0.603676   0.696047
      5      -0.630898  -0.081395   0.284208  -0.040138  -0.081073   0.088788
      6       0.077610  -0.278274   0.202721  -0.332689  -0.528367  -0.625907
      7      -0.027037  -0.625761   0.229259   0.171517   0.289283   0.309416
      8      -0.630390  -0.082351  -0.283319  -0.040567  -0.081457  -0.089484
      9      -0.209500   0.124922  -0.402229   0.642058  -0.372082   0.012157
     10      -0.120227   0.073175   0.696993   0.370325  -0.214572  -0.022891
     11      -0.354186   0.145047  -0.000252  -0.406385   0.258334   0.000519
     12      -0.001294  -0.000139   0.001973  -0.001131   0.000314  -0.000173
     13      -0.000763  -0.000067  -0.003418  -0.000647   0.000184   0.000302
     14       0.001926   0.000024   0.000010  -0.000279   0.000031  -0.000001
     15       0.006309   0.002025   0.001077   0.000430  -0.000406  -0.000178
     16       0.003654   0.001169  -0.001873   0.000250  -0.000232   0.000307
     17       0.016598   0.001247  -0.000006  -0.000412   0.000329   0.000001


-----------
IR SPECTRUM
-----------

 Mode   freq       eps      Int      T**2         TX        TY        TZ
       cm**-1   L/(mol*cm) km/mol    a.u.
----------------------------------------------------------------------------
  7:    185.19   0.000869    4.39  0.001465  (-0.019425  0.032912  0.002019)
  8:    223.30   0.015990   80.81  0.022346  ( 0.014458  0.008941 -0.148516)
  9:    482.76   0.056448  285.26  0.036489  (-0.008725 -0.005006 -0.190755)
 10:    776.06   0.015449   78.07  0.006212  (-0.008662 -0.005065  0.078176)
 11:    991.54   0.000029    0.15  0.000009  ( 0.001548 -0.002613  0.000055)
 12:   1244.33   0.001109    5.61  0.000278  ( 0.012093  0.007054  0.009068)
 13:   1430.04   0.003454   17.45  0.000754  (-0.016217 -0.009378  0.020069)
 14:   1454.89   0.002587   13.07  0.000555  (-0.011732  0.020427 -0.000113)
 15:   3007.08   0.017081   86.32  0.001773  ( 0.013900  0.008070 -0.038914)
 16:   3158.82   0.010460   52.86  0.001033  ( 0.001960  0.001109  0.032066)
 17:   3209.15   0.001398    7.06  0.000136  ( 0.005756 -0.010139  0.000039)

* The epsilon (eps) is given for a Dirac delta lineshape.
** The dipole moment derivative (T) already includes vibrational overlap.

The first frequency considered to be a vibration is 7
The total number of vibrations considered is 11


--------------------------
THERMOCHEMISTRY AT 298.15K
--------------------------

Temperature         ...   298.15 K
Pressure            ...     1.00 atm
Total Mass          ...    69.49 AMU
Quasi RRHO          ...     True
Cut-Off Frequency   ...     1.00 cm^-1

Throughout the following assumptions are being made:
  (1) The electronic state is orbitally nondegenerate
  (2) There are no thermally accessible electronically excited states
  (3) Hindered rotations indicated by low frequency modes are not
      treated as such but are treated as vibrations and this may
      cause some error
  (4) All equations used are the standard statistical mechanics
      equations for an ideal gas
  (5) All vibrations are strictly harmonic

freq.     185.19  E(vib)   ...       0.37 
freq.     223.30  E(vib)   ...       0.33 
freq.     482.76  E(vib)   ...       0.15 
freq.     776.06  E(vib)   ...       0.05 
freq.     991.54  E(vib)   ...       0.02 
freq.    1244.33  E(vib)   ...       0.01 
freq.    1430.04  E(vib)   ...       0.00 
freq.    1454.89  E(vib)   ...       0.00 
freq.    3007.08  E(vib)   ...       0.00 
freq.    3158.82  E(vib)   ...       0.00 
freq.    3209.15  E(vib)   ...       0.00 

------------
INNER ENERGY
------------

The inner energy is: U= E(el) + E(ZPE) + E(vib) + E(rot) + E(trans)
    E(el)   - is the total energy from the electronic structure calculation
              = E(kin-el) + E(nuc-el) + E(el-el) + E(nuc-nuc)
    E(ZPE)  - the the zero temperature vibrational energy from the frequency calculation
    E(vib)  - the the finite temperature correction to E(ZPE) due to population
              of excited vibrational states
    E(rot)  - is the rotational thermal energy
    E(trans)- is the translational thermal energy

Summary of contributions to the inner energy U:
Electronic energy                ...   -599.93344107 Eh
Zero point energy                ...      0.03682240 Eh      23.11 kcal/mol
Thermal vibrational correction   ...      0.00149686 Eh       0.94 kcal/mol
Thermal rotational correction    ...      0.00141627 Eh       0.89 kcal/mol
Thermal translational correction ...      0.00141627 Eh       0.89 kcal/mol
-----------------------------------------------------------------------
Total thermal energy                   -599.89228926 Eh


Summary of corrections to the electronic energy:
(perhaps to be used in another calculation)
Total thermal correction                  0.00432940 Eh       2.72 kcal/mol
Non-thermal (ZPE) correction              0.03682240 Eh      23.11 kcal/mol
-----------------------------------------------------------------------
Total correction                          0.04115181 Eh      25.82 kcal/mol


--------
ENTHALPY
--------

The enthalpy is H = U + kB*T
                kB is Boltzmann's constant
Total thermal energy              ...   -599.89228926 Eh 
Thermal Enthalpy correction       ...      0.00094421 Eh       0.59 kcal/mol
-----------------------------------------------------------------------
Total Enthalpy                    ...   -599.89134505 Eh


Note: Only C1 symmetry has been detected, increase convergence thresholds 
      if your molecule has a higher symmetry. Symmetry factor of 1.0 is   
      used for the rotational entropy correction. 
 

Note: Rotational entropy computed according to Herzberg 
Infrared and Raman Spectra, Chapter V,1, Van Nostrand Reinhold, 1945 
Point Group:  C1, Symmetry Number:   1  
Rotational constants in cm-1:     2.634931     0.071333     0.070400 

Vibrational entropy computed according to the QRRHO of S. Grimme
Chem.Eur.J. 2012 18 9955 using a reference frequency of 100.0 cm-1


-------
ENTROPY
-------

The entropy contributions are T*S = T*(S(el)+S(vib)+S(rot)+S(trans))
     S(el)   - electronic entropy
     S(vib)  - vibrational entropy
     S(rot)  - rotational entropy
     S(trans)- translational entropy
The entropies will be listed as multiplied by the temperature to get
units of energy

Electronic entropy                ...      0.00000000 Eh      0.00 kcal/mol
Vibrational entropy               ...      0.00251960 Eh      1.58 kcal/mol
Rotational entropy                ...      0.01155265 Eh      7.25 kcal/mol
Translational entropy             ...      0.01835566 Eh     11.52 kcal/mol
-----------------------------------------------------------------------
Final entropy term                ...      0.03242790 Eh     20.35 kcal/mol

In case the symmetry of your molecule has not been determined correctly
or in case you have a reason to use a different symmetry number we print 
out the resulting rotational entropy values for sn=1,12:

 non-linear molecules -----------------------------------
|  sn= 1 | S(rot)=       0.01155265 Eh      7.25 kcal/mol|
|  sn= 2 | S(rot)=       0.01089819 Eh      6.84 kcal/mol|
|  sn= 3 | S(rot)=       0.01051536 Eh      6.60 kcal/mol|
|  sn= 4 | S(rot)=       0.01024374 Eh      6.43 kcal/mol|
|  sn= 5 | S(rot)=       0.01003305 Eh      6.30 kcal/mol|
|  sn= 6 | S(rot)=       0.00986091 Eh      6.19 kcal/mol|
|  sn= 7 | S(rot)=       0.00971536 Eh      6.10 kcal/mol|
|  sn= 8 | S(rot)=       0.00958928 Eh      6.02 kcal/mol|
|  sn= 9 | S(rot)=       0.00947807 Eh      5.95 kcal/mol|
|  sn=10 | S(rot)=       0.00937859 Eh      5.89 kcal/mol|
|  sn=11 | S(rot)=       0.00928860 Eh      5.83 kcal/mol|
|  sn=12 | S(rot)=       0.00920645 Eh      5.78 kcal/mol|
 linear molecules ---------------------------------------
|  Dinfh | S(rot)=       0.00783125 Eh      4.91 kcal/mol|
|  Cinfv | S(rot)=       0.00848571 Eh      5.32 kcal/mol|
 --------------------------------------------------------


-------------------
GIBBS FREE ENERGY
-------------------

The Gibbs free energy is G = H - T*S

Total enthalpy                    ...   -599.89134505 Eh 
Total entropy correction          ...     -0.03242790 Eh    -20.35 kcal/mol
-----------------------------------------------------------------------
Final Gibbs free energy         ...   -599.92377295 Eh

For completeness - the Gibbs free energy minus the electronic energy
G-E(el)                           ...      0.00966811 Eh      6.07 kcal/mol


Maximum memory used throughout the entire PROP-calculation: 25.2 MB

--------------------------------
SUGGESTED CITATIONS FOR THIS RUN
--------------------------------

Below you find a list of papers that are relevant to this ORCA run
We neither can nor want to force you to cite these papers, but we appreciate if you do
You receive ORCA, which is the product of decades of hard work by many enthusiastic individuals, for free
The only thing we kindly ask in return is that you cite our papers,
We deeply appreciate it, if you show your appreciation for ORCA by not just citing the generic ORCA reference.

Please note that relegating all ORCA citations to the supporting information does *not* help us.
SI sections are not indexed - citations you put there will not count into any citation statistics
But we need these citations in order to attract the funding resources that allow us to do what we are doing

Therefore, if you are a happy ORCA user, please consider citing a few of the papers listed below in the main body of your paper

In addition to the list printed below, the program has created the file ts_optfreq.bibtex that contains the list in bibtex format
You can import this file easily into all common literature databanks and citation aid programs


List of essential papers. We consider these as the minimum necessary citations

  1. Grimme, S.; Hansen, A.; Ehlert, S.; Mewes, J.
     r2SCAN-3c: A 'Swiss army knife' composite electronic-structure method
     J. Chem. Phys. 2021 154 , 064103
     doi.org/10.1063/5.0040021
  2. Neese, F.
     Software update: the ORCA program system, version 6.0
     WIRES Comput. Molec. Sci. 2025 15(1), e70019
     doi.org/10.1002/wcms.7019

List of papers to cite with high priority. The work reported in these papers was absolutely
necessary for this run to complete.
Our perspective: the developers of density functionals and basis sets usually get cited in chemistry papers
Good! But without the algorithms to do something with them, the functionals or basis sets would not do anything.
Hence, in our opinion, the algorithm design and method developments papers are equally worthy of getting cited

  1. Neese, F.
     An improvement of the resolution of the identity approximation for the formation of the Coulomb matrix
     J. Comp. Chem. 2003 24(14), 1740-1747
     doi.org/10.1002/jcc.10318
  2. Bykov, D.; Petrenko, T.; Izsak, R.; Kossmann, S.; Becker, U.; Valeev, E.; Neese, F.
     Efficient implementation of the analytic second derivatives of Hartree-Fock and hybrid DFT energies: a detailed analysis of different approximations
     Molec. Phys. 2015 113 , 1961-1977
     doi.org/10.1080/00268976.2015.1025114
  3. Caldeweyher, E.; Bannwarth, C.; Grimme, S.
     Extension of the D3 dispersion coefficient model
     J. Chem. Phys. 2017 147 , 034112
     doi.org/10.1063/1.4993215
  4. Lehtola, S.; Steigemann, C.; Oliveira, M.; Marques, M.
     Recent developments in Libxc - A comprehensive library of functionals for density functional theory
     Software X 2018 7 , 
     doi.org/10.1016/j.softx.2017.11.002
  5. Caldeweyher, E.; Ehlert, S.; Hansen, A.; Neugebauer, H.; Spicher, S.; Bannwarth, C.; Grimme, S.
     A generally applicable atomic-charge dependent London dispersion correction
     J. Chem. Phys. 2019 150 , 154122
     doi.org/10.1063/1.5090222
  6. Caldeweyher, E.; Mewes, J.; Ehlert, S.; Grimme, S.
     Extension and evaluation of the D4 London-dispersion model for periodic systems
     Phys. Chem. Chem. Phys. 2020 22(16), 8499-8512
     doi.org/10.1039/D0CP00502A
  7. Neese, F.
     The SHARK Integral Generation and Digestion System
     J. Comp. Chem. 2022 44(3), 381
     doi.org/10.1002/jcc.26942
  8. Wittmann, L.; Gordiy, I.; Friede, M.; Helmich-Paris, B.; Grimme, S.; Hansen, A.; Bursch, M.
     Extension of the D3 and D4 London Dispersion Corrections to the full Actinides Series
     Phys. Chem. Chem. Phys. 2024 26(32), 21379-21394
     doi.org/10.1039/D4CP01514B

List of suggested additional citations. These are papers that are important in the 'surrounding' of 
of this run, or papers that preceded the highly important papers. If you like your results we are grateful for a citation.

  1. Neese, F.
     The ORCA program system
     WIRES Comput. Molec. Sci. 2012 2(1), 73-78
     doi.org/10.1002/wcms.81
  2. Neese, F.
     Software update: the ORCA program system, version 4.0
     WIRES Comput. Molec. Sci. 2018 8(1), 1-6
     doi.org/10.1002/wcms.1327
  3. Neese, F.; Wennmohs, F.; Becker, U.; Riplinger, C.
     The ORCA quantum chemistry program package
     J. Chem. Phys. 2020 152(22), 224108
     doi.org/10.1063/5.0004608
  4. Neese, F.
     Software update: The ORCA program system—Version 5.0
     WIRES Comput. Molec. Sci. 2022 12(1), e1606
     doi.org/10.1002/wcms.1606

List of optional additional citations

  1. Neese, F.
     Approximate second-order SCF convergence for spin unrestricted wavefunctions
     Chem. Phys. Lett. 2000 325(1-3), 93-98
     doi.org/10.1016/s0009-2614(00)00662-x

Timings for individual modules:

Sum of individual times          ...       78.608 sec (=   1.310 min)
Startup calculation              ...       11.058 sec (=   0.184 min)  14.1 %
SCF iterations                   ...       37.036 sec (=   0.617 min)  47.1 %
Property integrals               ...       10.434 sec (=   0.174 min)  13.3 %
SCF Response                     ...        5.388 sec (=   0.090 min)   6.9 %
Property calculations            ...        5.302 sec (=   0.088 min)   6.7 %
SCF Gradient evaluation          ...        9.363 sec (=   0.156 min)  11.9 %
Geometry relaxation              ...        0.027 sec (=   0.000 min)   0.0 %
                             ****ORCA TERMINATED NORMALLY****
TOTAL RUN TIME: 0 days 0 hours 2 minutes 5 seconds 242 msec
