
                                 *****************
                                 * O   R   C   A *
                                 *****************

                                            #,                                       
                                            ###                                      
                                            ####                                     
                                            #####                                    
                                            ######                                   
                                           ########,                                 
                                     ,,################,,,,,                         
                               ,,#################################,,                 
                          ,,##########################################,,             
                       ,#########################################, ''#####,          
                    ,#############################################,,   '####,        
                  ,##################################################,,,,####,       
                ,###########''''           ''''###############################       
              ,#####''   ,,,,##########,,,,          '''####'''          '####       
            ,##' ,,,,###########################,,,                        '##       
           ' ,,###''''                  '''############,,,                           
         ,,##''                                '''############,,,,        ,,,,,,###''
      ,#''                                            '''#######################'''  
     '                                                          ''''####''''         
             ,#######,   #######,   ,#######,      ##                                
            ,#'     '#,  ##    ##  ,#'     '#,    #''#        ,####,    ,#,          
            ##       ##  ##   ,#'  ##            #'  '#       #'       ,# #          
            ##       ##  #######   ##           ,######,      #####,      #          
            '#,     ,#'  ##    ##  '#,     ,#' ,#      #,     #,   #      #          
             '#######'   ##     ##  '#######'  #'      '#     '####' #    #          



                #########################################################
                #                        -***-                          #
                #          Department of theory and spectroscopy        #
                #                                                       #
                #                      Frank Neese                      #
                #                                                       #
                #     Directorship, Architecture, Infrastructure        #
                #                    SHARK, DRIVERS                     #
                #        Core code/Algorithms in most modules           #
                #                                                       #
                #        Max Planck Institute fuer Kohlenforschung      #
                #                Kaiser Wilhelm Platz 1                 #
                #                 D-45470 Muelheim/Ruhr                 #
                #                      Germany                          #
                #                                                       #
                #                  All rights reserved                  #
                #                        -***-                          #
                #########################################################


                         Program Version 6.1.0  -  RELEASE   -
                                (GIT: $679e74b$)
                          ($2025-06-10 18:02:51 +0200$)


 With contributions from (in alphabetic order):
[Max-Planck-Institut fuer Kohlenforschung]                               
  Daniel Aravena         : Magnetic Suceptibility                        
  Michael Atanasov       : Ab Initio Ligand Field Theory (pilot matlab implementation)
  Alexander A. Auer      : GIAO ZORA, VPT2 properties, NMR spectrum      
  Ute Becker             : All parallelization in ORCA, NUMFREQ, NUMCALC 
  Giovanni Bistoni       : ED, misc. LED, open-shell LED, HFLD           
  Dmytro Bykov           : pre 5.0 version of the SCF Hessian            
  Marcos Casanova-Páez   : Triplet and SCS-CIS(D). UHF-(DLPNO)-IP/EA/STEOM-CCSD. UHF-CVS-IP/STEOM-CCSD   
  Vijay G. Chilkuri      : MRCI spin determinant printing, contributions to CSF-ICE 
  Pauline Colinet        : FMM embedding                                 
  Dipayan Datta          : RHF DLPNO-CCSD density                        
  Achintya Kumar Dutta   : EOM-CC, STEOM-CC                              
  Nicolas Foglia         : Exact transition moments, OPA infrastructure, MCD improvements    
  Dmitry Ganyushin       : Spin-Orbit,Spin-Spin,Magnetic field MRCI      
  Miquel Garcia-Rates    : C-PCM and meta-GGA Hessian, CCSD/C-PCM, Gaussian charge scheme 
  Tiago L. C. Gouveia    : GS-ROHF, GS-ROCIS                             
  Yang Guo               : DLPNO-NEVPT2, F12-NEVPT2, CIM, IAO-localization        
  Andreas Hansen         : Spin unrestricted coupled pair/coupled cluster methods 
  Ingolf Harden          : AUTO-CI MPn and infrastructure                
  Benjamin Helmich-Paris : MC-RPA, TRAH-(SCF,CASSCF), AVAS, COSX integrals, SCF dyn. polar., MC-PDFT, srDFT 
  Lee Huntington         : MR-EOM, pCC                                   
  Robert Izsak           : Overlap fitted RIJCOSX, COSX-SCS-MP3, EOM     
  Riya Kayal             : Wick's Theorem for AUTO-CI, AUTO-CI UHF-CCSDT 
  Emily Kempfer          : AUTO-CI RHF CISDT and CCSDT, approximate NEVPT4
  Christian Kollmar      : KDIIS, OOCD, Brueckner-CCSD(T), CCSD density, CASPT2, CASPT2-K, improved NEVPT2 
  Axel Koslowski         : Symmetry handling                             
  Simone Kossmann        : meta-GGA functionals, TD-DFT gradient, OOMP2, (MP2 Hessian; deprecated post 5.0) 
  Lucas Lang             : DCDCAS, Hyperfine gauge corrections, ICE-SOC+SSC
  Marvin Lechner         : AUTO-CI (C++ implementation), FIC-MRCC        
  Spencer Leger          : CASSCF response                               
  Dagmar Lenk            : GEPOL surface, SMD, ORCA-2-JSON               
  Dimitrios Liakos       : Extrapolation schemes; Compound Job, Property file
  Dimitrios Manganas     : Further ROCIS development; embedding schemes. LFT, Crystal Embedding 
  Dimitrios Pantazis     : SARC Basis sets                               
  Anastasios Papadopoulos: AUTO-CI, single reference methods and gradients 
  Taras Petrenko         : pre 6.0 DFT Hessian and TD-DFT gradient,  ECA, NRVS 
  Petra Pikulova         : Analytic Raman intensities                    
  Peter Pinski           : DLPNO-MP2, DLPNO-MP2 Gradient                 
  Shashank Vittal Rao    : ES-AILFT, MagRelax                            
  Christoph Reimann      : Effective Core Potentials                     
  Marius Retegan         : Local ZFS, SOC                                
  Christoph Riplinger    : Optimizer, TS searches, QM/MM, DLPNO-CCSD(T), (RO)-DLPNO pert. Triples 
  Michael Roemelt        : Original ROCIS implementation, recursive CI coupling coefficients
  Masaaki Saitow         : Open-shell DLPNO-CCSD energy and density      
  Barbara Sandhoefer     : DKH picture change effects                    
  Yorick L. A. Schmerwitz: GMF and freeze-and-release deltaSCF, NEB S-IDPP initial path                    
  Kantharuban Sivalingam : CASSCF convergence/infrastructure, NEVPT2, NEVPT3, NEVPT4(SD), FIC-MRCI and CEPA variants
  Bernardo de Souza      : ESD, SOC TD-DFT                               
  Georgi L. Stoychev     : AutoAux, RI-MP2 NMR, DLPNO-MP2 response, X2C  
  Van Anh Tran           : RI-MP2 g-tensors                              
  Willem Van den Heuvel  : Paramagnetic NMR                              
  Zikuan Wang            : NOTCH, Electric field optimization            
  Frank Wennmohs         : Technical directorship and infrastructure     
  Hang Xu                : AUTO-CI-Response properties                   
                                                                         
[FACCTs GmbH]                                                            
  Markus Bursch, Nicolas Foglia, Miquel Garcia-Rates, Ingolf Harden, Hagen Neugebauer, Anastasios Papadopoulos, 
  Christoph Riplinger, Bernardo de Souza, Georgi L. Stoychev                                                    
                                                                 
  APM, various basis sets, CI-OPT, improved COSX, DLPNO-Multilevel,           
  DOCKER, DRACO, updates on ESD, Fragmentator, GOAT, IRC, LR-CPCM, L-BFGS, MBIS, meta-GGA TD-DFT gradient, ML-optimized integration grids, 
  MM, NACMEs, nearIR, NEB, NEB-TS, NL-DFT gradient (VV10), 2- and 3-layer-ONIOM, interface openCOSMO-RS, QMMM,   
  Crystal-QMMM, RESP, rigid body optimization, SF, symmetry and pop. for TD-DFT, various functionals, SOLVATOR                                   
                                                                         
[Other institutions]                                                     
  V. Asgeirsson          : NEB                                           
  Christoph Bannwarth    : sTDA-DFT, sTD-DFT, PBEh-3c, B97-3c, D3        
  Giovanni Bistoni       : ETS/NOCV, ADLD/ADEX, COVALED                  
  Martin Brehm           : Molecular dynamics                            
  Ronald Cardenas        : ETS/NOCV                                      
  Martina Colucci        : COVALED                                       
  Sebastian Ehlert       : rSCAN, r2SCAN, r2SCAN-3c, D4, dhf basis sets  
  Marvin Friede          : D4 for Fr, Ra, Ac-Lr                          
  Lars Goerigk           : TD-DFT with DH, B97 family of functionals     
  Stefan Grimme          : VdW corrections, initial TS optimization, DFT functionals, gCP, sTDA/sTD-DF 
  Waldemar Hujo          : DFT-NL                                        
  H. Jonsson             : NEB                                           
  Holger Kruse           : gCP                                           
  Marcel Mueller         : wB97X-3c, vDZP basis set                      
  Hagen Neugebauer       : wr2SCAN, Native XTB                           
  Gianluca Regni         : ADLD/ADEX                                     
  Tobias Risthaus        : pre 6.0 range-separated hybrid DFT and stability analysis
  Lukas Wittmann         : regularized MP2, r2SCAN double-hybrids, wr2SCAN        
                                                                         
We gratefully acknowledge several colleagues who have allowed us to      
interface, adapt or use parts of their codes:                            
  Ed Valeev, F. Pavosevic, A. Kumar             : LibInt (2-el integral package), F12 methods 
  Garnet Chan, S. Sharma, J. Yang, R. Olivares  : DMRG                   
  Ulf Ekstrom                                   : XCFun DFT Library      
  Mihaly Kallay                                 : mrcc  (arbitrary order and MRCC methods)
  Frank Weinhold                                : gennbo (NPA and NBO analysis)           
  Simon Mueller                                 : openCOSMO-RS                            
  Christopher J. Cramer and Donald G. Truhlar   : smd solvation model                     
  S Lehtola, MJT Oliveira, MAL Marques          : LibXC Library                           
  Liviu Ungur et al                             : ANISO software                          


 Your calculation uses the libint2 library for the computation of 2-el integrals
 For citations please refer to: http://libint.valeyev.net

 Your ORCA version has been built with support for libXC version: 7.0.0
 For citations please refer to: https://libxc.gitlab.io

 This ORCA versions uses:
   CBLAS   interface :  Fast vector & matrix operations
   LAPACKE interface :  Fast linear algebra routines
   SCALAPACK package :  Parallel linear algebra routines
   Shared memory     :  Shared parallel matrices
   BLAS/LAPACK       :  OpenBLAS 0.3.29  USE64BITINT DYNAMIC_ARCH NO_AFFINITY SkylakeX SINGLE_THREADED
        Core in use  :  SkylakeX
   Copyright (c) 2011-2014, The OpenBLAS Project


  ***********************************
  * Starting time: Thu Mar 12 12:40:37 2026
  * Host name:     midway3-login4.rcc.local
  * Process ID:    2745980
  * Working dir.:  /home/rzhu16/orca_TS_search/sn2_br_cl/geo_opt_reactant_product
  ***********************************

Your calculation utilizes the semiempirical GFN2-xTB method
Please cite in your paper:
Bannwarth, C.; Ehlert S.; Grimme, S. J. Chem. Theory Comput. 2019, 15, 1652.
   

================================================================================

================================================================================
                                        WARNINGS
                       Please study these warnings very carefully!
================================================================================


WARNING: Analytical Hessian for XTB is limited in the analysis of the data.
       : If you want to obtain extensive IR and deltaG analysis, please use ! XTB NumFreq. 


WARNING: Geometry Optimization
  ===> : Switching off AutoStart
         For restart on a previous wavefunction, please use MOREAD

WARNING: Found dipole moment calculation with XTB calculation
  ===> : Switching off dipole moment calculation


WARNING: Found frequency calculation in combination with XTB calculation
  ===> : Need to redirect dipole moment calculation to properties.out


================================================================================
                                       INPUT FILE
================================================================================
NAME = product_optfreq.inp
|  1> ! XTB2 Opt Freq PAL8
|  2> 
|  3> * xyz -1 1
|  4>   C       0.000124      0.000116      0.330685
|  5>   H       0.000057      1.027249     -0.006451
|  6>   H       0.889648     -0.513549     -0.006452
|  7>   H      -0.889586     -0.513580     -0.006472
|  8>   Br      0.000056      0.000054      2.276458
|  9>   Cl     -0.000010     -0.000011     -2.470696
| 10> *
| 11> 
| 12>                          ****END OF INPUT****
================================================================================

                       *****************************
                       * Geometry Optimization Run *
                       *****************************

Geometry optimization settings:
Update method            Update   .... BFGS
Choice of coordinates    CoordSys .... (2022) Redundant Internals
Initial Hessian          InHess   .... Almloef's Model
Max. no of cycles        MaxIter  .... 50

Convergence Tolerances:
Energy Change            TolE     ....  5.0000e-06 Eh
Max. Gradient            TolMAXG  ....  3.0000e-04 Eh/bohr
RMS Gradient             TolRMSG  ....  1.0000e-04 Eh/bohr
Max. Displacement        TolMAXD  ....  4.0000e-03 bohr
RMS Displacement         TolRMSD  ....  2.0000e-03 bohr
Strict Convergence                .... False

------------------------------------------------------------------------------
                        ORCA OPTIMIZATION COORDINATE SETUP
------------------------------------------------------------------------------

The optimization will be done in redundant internal coordinates (2022)
Making redundant internal coordinates   ...  (2022 redundants) done
Evaluating the initial hessian          ...  (Almloef) done
Evaluating the coordinates              ...  done
Calculating the B-matrix                .... done
Calculating the G-matrix                .... done
The number of degrees of freedom        ....   17

    -----------------------------------------------------------------
                    Redundant Internal Coordinates


    -----------------------------------------------------------------
         Definition                    Initial Value    Approx d2E/dq
    -----------------------------------------------------------------
      1. B(H   1,C   0)                  1.0810         0.372140   
      2. B(H   2,C   0)                  1.0811         0.372075   
      3. B(H   3,C   0)                  1.0813         0.371837   
      4. B(Br  4,C   0)                  1.9458         0.272604   
      5. B(Cl  5,H   2)                  2.6698         0.010000   
      6. B(Cl  5,H   1)                  2.6698         0.010000   
      7. B(Cl  5,H   3)                  2.6697         0.010000   
      8. B(Cl  5,C   0)                  2.8014         0.010000   
      9. A(H   1,C   0,H   3)          110.7382         0.293829   
     10. A(H   2,C   0,H   3)          110.7360         0.293821   
     11. A(H   1,C   0,Br  4)          108.1732         0.328514   
     12. A(H   2,C   0,Br  4)          108.1714         0.328505   
     13. A(H   3,C   0,Br  4)          108.1661         0.328470   
     14. A(H   1,C   0,Cl  5)           71.8312         0.193613   
     15. A(H   2,C   0,Cl  5)           71.8305         0.193609   
     16. A(H   3,C   0,Cl  5)           71.8276         0.193594   
     17. A(H   1,C   0,H   2)          110.7466         0.293859   
    -----------------------------------------------------------------

Number of atoms                         .... 6
Number of degrees of freedom            .... 17


         *************************************************************
         *                GEOMETRY OPTIMIZATION CYCLE   1            *
         *************************************************************
---------------------------------
CARTESIAN COORDINATES (ANGSTROEM)
---------------------------------
  C     0.000124    0.000116    0.330685
  H     0.000057    1.027249   -0.006451
  H     0.889648   -0.513549   -0.006452
  H    -0.889586   -0.513580   -0.006472
  Br    0.000056    0.000054    2.276458
  Cl   -0.000010   -0.000011   -2.470696

----------------------------
CARTESIAN COORDINATES (A.U.)
----------------------------
  NO LB    ZA    FRAG    MASS        X           Y           Z
   0 C   6.0000    0    12.011    0.000234    0.000219    0.624904
   1 H   1.0000    0     1.008    0.000108    1.941219   -0.012191
   2 H   1.0000    0     1.008    1.681191   -0.970467   -0.012193
   3 H   1.0000    0     1.008   -1.681074   -0.970526   -0.012230
   4 Br 35.0000    0    79.900    0.000106    0.000102    4.301882
   5 Cl 17.0000    0    35.453   -0.000019   -0.000021   -4.668939

      -----------------------------------------------------------      
     |                   =====================                   |     
     |                           x T B                           |     
     |                   =====================                   |     
     |                         S. Grimme                         |     
     |          Mulliken Center for Theoretical Chemistry        |     
     |                    University of Bonn                     |     
      -----------------------------------------------------------      

   * xtb version 6.7.1 (edcfbbe) compiled by 'albert@albert-system' on 2024-07-22

   xtb is free software: you can redistribute it and/or modify it under
   the terms of the GNU Lesser General Public License as published by
   the Free Software Foundation, either version 3 of the License, or
   (at your option) any later version.
   
   xtb is distributed in the hope that it will be useful,
   but WITHOUT ANY WARRANTY; without even the implied warranty of
   MERCHANTABILITY or FITNESS FOR A PARTICULAR PURPOSE.  See the
   GNU Lesser General Public License for more details.
   
   Cite this work as:
   * C. Bannwarth, E. Caldeweyher, S. Ehlert, A. Hansen, P. Pracht,
     J. Seibert, S. Spicher, S. Grimme, WIREs Comput. Mol. Sci., 2020, 11,
     e01493. DOI: 10.1002/wcms.1493
   
   for GFN2-xTB:
   * C. Bannwarth, S. Ehlert and S. Grimme., J. Chem. Theory Comput., 2019,
     15, 1652-1671. DOI: 10.1021/acs.jctc.8b01176
   for GFN1-xTB:
   * S. Grimme, C. Bannwarth, P. Shushkov, J. Chem. Theory Comput., 2017,
     13, 1989-2009. DOI: 10.1021/acs.jctc.7b00118
   for GFN0-xTB:
   * P. Pracht, E. Caldeweyher, S. Ehlert, S. Grimme, ChemRxiv, 2019, preprint.
     DOI: 10.26434/chemrxiv.8326202.v1
   for GFN-FF:
   * S. Spicher and S. Grimme, Angew. Chem. Int. Ed., 2020, 59, 15665-15673.
     DOI: 10.1002/anie.202004239
   
   for ALPB and GBSA implicit solvation:
   * S. Ehlert, M. Stahn, S. Spicher, S. Grimme, J. Chem. Theory Comput.,
     2021, 17, 4250-4261. DOI: 10.1021/acs.jctc.1c00471
   
   for ddCOSMO and CPCM-X implicit solvation:
   * M. Stahn, S. Ehlert, S. Grimme, J. Phys. Chem. A,
     2023, XX, XXXX-XXXX. DOI: 10.1021/acs.jpca.3c04382
   
   for DFT-D4:
   * E. Caldeweyher, C. Bannwarth and S. Grimme, J. Chem. Phys., 2017,
     147, 034112. DOI: 10.1063/1.4993215
   * E. Caldeweyher, S. Ehlert, A. Hansen, H. Neugebauer, S. Spicher,
     C. Bannwarth and S. Grimme, J. Chem. Phys., 2019, 150, 154122.
     DOI: 10.1063/1.5090222
   * E. Caldeweyher, J.-M. Mewes, S. Ehlert and S. Grimme, Phys. Chem. Chem. Phys.
     2020, 22, 8499-8512. DOI: 10.1039/D0CP00502A
   
   for sTDA-xTB:
   * S. Grimme and C. Bannwarth, J. Chem. Phys., 2016, 145, 054103.
     DOI: 10.1063/1.4959605
   
   in the mass-spec context:
   * V. Asgeirsson, C. Bauer and S. Grimme, Chem. Sci., 2017, 8, 4879.
     DOI: 10.1039/c7sc00601b
   * J. Koopman and S. Grimme, ACS Omega 2019, 4, 12, 15120-15133.
     DOI: 10.1021/acsomega.9b02011
   
   for metadynamics refer to:
   * S. Grimme, J. Chem. Theory Comput., 2019, 155, 2847-2862
     DOI: 10.1021/acs.jctc.9b00143
   
   for SPH calculations refer to:
   * S. Spicher and S. Grimme, J. Chem. Theory Comput., 2021, 17, 1701-1714
     DOI: 10.1021/acs.jctc.0c01306
   
   for ONIOM refer to:
   * C. Plett, A. Katbashev, S. Ehlert, S. Grimme, M. Bursch,
     Phys. Chem. Chem. Phys., 2023, 25, 17860-17868. DOI: 10.1039/D3CP02178E
   
   for DIPRO refer to:
   * J. Kohn, N. Gildemeister, S. Grimme, D. Fazzi, A. Hansen,
     J. Chem. Phys., 2023, just accepted.
   
   for PTB refer to:
   * S. Grimme, M. Mueller, A. Hansen, J. Chem. Phys., 2023, 158, 124111.
     DOI: 10.1063/5.0137838
   
   with help from (in alphabetical order)
   P. Atkinson, C. Bannwarth, F. Bohle, G. Brandenburg, E. Caldeweyher
   M. Checinski, S. Dohm, S. Ehlert, S. Ehrlich, I. Gerasimov, C. Hölzer
   A. Katbashev, J. Kohn, J. Koopman, C. Lavigne, S. Lehtola, F. März, M. Müller,
   F. Musil, H. Neugebauer, J. Pisarek, C. Plett, P. Pracht, F. Pultar,
   J. Seibert, P. Shushkov, S. Spicher, M. Stahn, M. Steiner, T. Strunk,
   J. Stückrath, T. Rose, and J. Unsleber
   
 * started run on 2026/03/12 at 12:40:38.474     
   ID    Z sym.   atoms
    1    6 C      1
    2    1 H      2-4
    3   35 Br     5
    4   17 Cl     6

           -------------------------------------------------
          |                Calculation Setup                |
           -------------------------------------------------

          program call               : /software/orca-6.1.0-el8-x86_64/bin/otool_xtb product_optfreq_XTB.xyz --grad -c -1 -u 0 -P 8 --namespace product_optfreq --input product_optfreq_XTB.input.tmp --acc 0.200000
          hostname                   : midway3-login4.rcc.local
          calculation namespace      : product_optfreq
          coordinate file            : product_optfreq_XTB.xyz
          omp threads                :                     8


molecular fragmentation (1/2 indicates fragments):
111112
# atoms in fragment 1/2:     5     1
 fragment masses (1/2) :       94.94       35.45
CMA distance (Bohr)    :   8.368
constraining FC (au)   :  0.0500

           -------------------------------------------------
          |                 G F N 2 - x T B                 |
           -------------------------------------------------

        Reference                      10.1021/acs.jctc.8b01176
      * Hamiltonian:
        H0-scaling (s, p, d)           1.850000    2.230000    2.230000
        zeta-weighting                 0.500000
      * Dispersion:
        s8                             2.700000
        a1                             0.520000
        a2                             5.000000
        s9                             5.000000
      * Repulsion:
        kExp                           1.500000    1.000000
        rExp                           1.000000
      * Coulomb:
        alpha                          2.000000
        third order                    shell-resolved
        anisotropic                    true
        a3                             3.000000
        a5                             4.000000
        cn-shift                       1.200000
        cn-exp                         4.000000
        max-rad                        5.000000


          ...................................................
          :                      SETUP                      :
          :.................................................:
          :  # basis functions                  27          :
          :  # atomic orbitals                  25          :
          :  # shells                           11          :
          :  # electrons                        22          :
          :  max. iterations                   250          :
          :  Hamiltonian                  GFN2-xTB          :
          :  restarted?                      false          :
          :  GBSA solvation                  false          :
          :  PC potential                    false          :
          :  electronic temp.          300.0000000     K    :
          :  accuracy                    0.2000000          :
          :  -> integral cutoff          0.3198970E+02      :
          :  -> integral neglect         0.2000000E-08      :
          :  -> SCF convergence          0.2000000E-06 Eh   :
          :  -> wf. convergence          0.2000000E-04 e    :
          :  Broyden damping             0.4000000          :
          :  net charge                         -1          :
          :  unpaired electrons                  0          :
          ...................................................

 iter      E             dE          RMSdq      gap      omega  full diag
   1    -12.5693811 -0.125694E+02  0.744E+00    6.09       0.0  T
   2    -12.6044717 -0.350906E-01  0.469E+00    4.93       1.0  T
   3    -12.6082936 -0.382191E-02  0.211E+00    3.64       1.0  T
   4    -12.6108931 -0.259952E-02  0.136E+00    3.44       1.0  T
   5    -12.6119668 -0.107373E-02  0.678E-01    3.27       1.0  T
   6    -12.6124840 -0.517201E-03  0.249E-01    3.12       1.0  T
   7    -12.6125445 -0.604280E-04  0.320E-02    3.22       1.3  T
   8    -12.6125453 -0.859151E-06  0.155E-02    3.21       2.6  T
   9    -12.6125457 -0.341221E-06  0.912E-03    3.20       4.5  T
  10    -12.6125458 -0.112391E-06  0.125E-03    3.21      32.6  T
  11    -12.6125458 -0.165191E-08  0.713E-04    3.21      57.3  T
  12    -12.6125458 -0.130917E-08  0.142E-04    3.21     287.8  T
  13    -12.6125458 -0.299085E-10  0.110E-05    3.21    3698.3  T

   *** convergence criteria satisfied after 13 iterations ***

         #    Occupation            Energy/Eh            Energy/eV
      -------------------------------------------------------------
         1        2.0000           -0.8012871             -21.8041
       ...           ...                  ...                  ...
         5        2.0000           -0.3687477             -10.0341
         6        2.0000           -0.3568176              -9.7095
         7        2.0000           -0.2857962              -7.7769
         8        2.0000           -0.2857942              -7.7769
         9        2.0000           -0.2008743              -5.4661
        10        2.0000           -0.2001189              -5.4455
        11        2.0000           -0.2001189              -5.4455 (HOMO)
        12                         -0.0822294              -2.2376 (LUMO)
        13                          0.1637803               4.4567
        14                          0.1637901               4.4570
        15                          0.1816884               4.9440
        16                          0.1816895               4.9440
       ...                                ...                  ...
        25                          0.5155083              14.0277
      -------------------------------------------------------------
                  HL-Gap            0.1178895 Eh            3.2079 eV
             Fermi-level           -0.1411741 Eh           -3.8415 eV

 SCC (total)                   0 d,  0 h,  0 min,  0.051 sec
 SCC setup                      ...        0 min,  0.000 sec (  0.453%)
 Dispersion                     ...        0 min,  0.000 sec (  0.132%)
 classical contributions        ...        0 min,  0.000 sec (  0.071%)
 integral evaluation            ...        0 min,  0.046 sec ( 91.565%)
 iterations                     ...        0 min,  0.003 sec (  5.069%)
 molecular gradient             ...        0 min,  0.001 sec (  2.307%)
 printout                       ...        0 min,  0.000 sec (  0.356%)

         :::::::::::::::::::::::::::::::::::::::::::::::::::::
         ::                     SUMMARY                     ::
         :::::::::::::::::::::::::::::::::::::::::::::::::::::
         :: total energy             -12.553491909846 Eh    ::
         :: gradient norm              0.001871644327 Eh/a0 ::
         :: HOMO-LUMO gap              3.207935976363 eV    ::
         ::.................................................::
         :: SCC energy               -12.612546393261 Eh    ::
         :: -> isotropic ES            0.149700090827 Eh    ::
         :: -> anisotropic ES         -0.009914204419 Eh    ::
         :: -> anisotropic XC         -0.010654228322 Eh    ::
         :: -> dispersion             -0.002857707403 Eh    ::
         :: repulsion energy           0.059054483415 Eh    ::
         :: add. restraining           0.000000000000 Eh    ::
         :: total charge              -1.000000000000 e     ::
         :::::::::::::::::::::::::::::::::::::::::::::::::::::


Property printout bound to 'properties.out'

           -------------------------------------------------
          | TOTAL ENERGY              -12.553491909846 Eh   |
          | GRADIENT NORM               0.001871644327 Eh/α |
          | HOMO-LUMO GAP               3.207935976363 eV   |
           -------------------------------------------------

------------------------------------------------------------------------
 * finished run on 2026/03/12 at 12:40:38.557     
------------------------------------------------------------------------
 total:
 * wall-time:     0 d,  0 h,  0 min,  0.083 sec
 *  cpu-time:     0 d,  0 h,  0 min,  0.386 sec
 * ratio c/w:     4.675 speedup
 SCF:
 * wall-time:     0 d,  0 h,  0 min,  0.051 sec
 *  cpu-time:     0 d,  0 h,  0 min,  0.312 sec
 * ratio c/w:     6.137 speedup


-------------------------   --------------------
FINAL SINGLE POINT ENERGY       -12.553491909850
-------------------------   --------------------


-------------
DIPOLE MOMENT
-------------
                                X             Y             Z
Total Dipole Moment    :      0.00000       0.00000       2.03500
                        -----------------------------------------
Magnitude (a.u.)       :      2.03500
Magnitude (Debye)      :      5.17256


------------------
CARTESIAN GRADIENT
------------------

   1   C   :    0.000094998    0.000085137   -0.000388865
   2   H   :   -0.000003767   -0.000037816   -0.000333398
   3   H   :   -0.000011320    0.000001075   -0.000341423
   4   H   :   -0.000076987   -0.000045559   -0.000372064
   5   Br  :   -0.000002548   -0.000002493   -0.000264247
   6   Cl  :   -0.000000376   -0.000000345    0.001699998

Difference to translation invariance:
           :   -0.0000000000    0.0000000000   -0.0000000000

Difference to rotation invariance:
           :   -0.0000000005    0.0000000004    0.0000000000

Norm of the Cartesian gradient     ...    0.0018716443
RMS gradient                       ...    0.0004411508
MAX gradient                       ...    0.0016999977
------------------------------------------------------------------------------
                         ORCA GEOMETRY RELAXATION STEP
------------------------------------------------------------------------------

Reading the OPT-File                    .... done
Getting information on internals        .... done
Copying old internal coords+grads       .... done
Making the new internal coordinates     .... (2022 redundants) done
Validating the new internal coordinates .... (2022 redundants) done
Calculating the B-matrix                .... done
Calculating the G,G- and P matrices     .... done
Transforming gradient to internals      .... done
Projecting the internal gradient        .... done
Number of atoms                         ....   6
Number of internal coordinates          ....  17
Current Energy                          ....   -12.553491910 Eh
Current gradient norm                   ....     0.001871644 Eh/bohr
Maximum allowed component of the step   ....  0.300
Current trust radius                    ....  0.300
Evaluating the initial hessian          ....  (Almloef) done
Projecting the Hessian                  .... done
Forming the augmented Hessian           .... done
Diagonalizing the augmented Hessian     .... done
Last element of RFO vector              ....  0.996024135
Lowest eigenvalues of augmented Hessian:
 -0.000081297  0.010080618  0.045635859  0.045645247  0.196264812
Length of the computed step             ....  0.089439394
The final length of the internal step   ....  0.089439394
Converting the step to Cartesian space:
 Initial RMS(Int)=    0.0216922392
Transforming coordinates:
 Iter   0:  RMS(Cart)=    0.0103006683 RMS(Int)=    0.0217045641
done
Storing new coordinates                 .... done

                                .--------------------.
          ----------------------|Geometry convergence|-------------------------
          Item                value                   Tolerance       Converged
          ---------------------------------------------------------------------
          RMS gradient        0.0002428239            0.0001000000      NO
          MAX gradient        0.0005744184            0.0003000000      NO
          RMS step            0.0216922392            0.0020000000      NO
          MAX step            0.0479042987            0.0040000000      NO
          -------------------------------------------------------------------------
          ........................................................
          Max(Bonds)      0.0253      Max(Angles)    0.02
          Max(Dihed)        0.00      Max(Improp)    0.00
          ---------------------------------------------------------------------

The optimization has not yet converged - more geometry cycles are needed


    ---------------------------------------------------------------------------
                         Redundant Internal Coordinates
                            (Angstroem and degrees)

        Definition                    Value    dE/dq     Step     New-Value
    ----------------------------------------------------------------------------
     1. B(H   1,C   0)                1.0810  0.000100 -0.0001    1.0809   
     2. B(H   2,C   0)                1.0811  0.000128 -0.0002    1.0809   
     3. B(H   3,C   0)                1.0813  0.000233 -0.0003    1.0809   
     4. B(Br  4,C   0)                1.9458 -0.000264  0.0005    1.9463   
     5. B(Cl  5,H   2)                2.6698 -0.000407  0.0231    2.6928   
     6. B(Cl  5,H   1)                2.6698 -0.000407  0.0231    2.6929   
     7. B(Cl  5,H   3)                2.6697 -0.000406  0.0231    2.6928   
     8. B(Cl  5,C   0)                2.8014 -0.000574  0.0253    2.8267   
     9. A(H   1,C   0,H   3)          110.74  0.000050   -0.02    110.72   
    10. A(H   2,C   0,H   3)          110.74  0.000048   -0.01    110.72   
    11. A(H   1,C   0,Br  4)          108.17 -0.000049    0.02    108.19   
    12. A(H   2,C   0,Br  4)          108.17 -0.000053    0.02    108.19   
    13. A(H   3,C   0,Br  4)          108.17 -0.000063    0.02    108.18   
    14. A(H   1,C   0,Cl  5)           71.83  0.000057   -0.02     71.81   
    15. A(H   2,C   0,Cl  5)           71.83  0.000056   -0.02     71.81   
    16. A(H   3,C   0,Cl  5)           71.83  0.000052   -0.02     71.81   
    17. A(H   1,C   0,H   2)          110.75  0.000059   -0.02    110.73   
    ----------------------------------------------------------------------------

Geometry step timings:
Preparation and reading OPT file:      0.000 s ( 2.931 %)
Internal coordinates            :      0.000 s ( 3.350 %)
B/P matrices and projection     :      0.000 s (12.395 %)
Hessian update/contruction      :      0.000 s (34.673 %)
Making the step                 :      0.000 s (11.223 %)
Converting the step to Cartesian:      0.000 s ( 3.853 %)
Storing new data                :      0.000 s ( 6.449 %)
Checking convergence            :      0.000 s ( 4.941 %)
Final printing                  :      0.000 s (19.765 %)
Total time                      :      0.001 s

Time for energy+gradient        :      0.092 s
Time for complete geometry iter :      0.094 s

         *************************************************************
         *                GEOMETRY OPTIMIZATION CYCLE   2            *
         *************************************************************
---------------------------------
CARTESIAN COORDINATES (ANGSTROEM)
---------------------------------
  C     0.000089    0.000084    0.334938
  H     0.000036    1.026982   -0.002447
  H     0.889384   -0.513428   -0.002439
  H    -0.889259   -0.513399   -0.002422
  Br    0.000048    0.000048    2.281224
  Cl   -0.000010   -0.000010   -2.491782

----------------------------
CARTESIAN COORDINATES (A.U.)
----------------------------
  NO LB    ZA    FRAG    MASS        X           Y           Z
   0 C   6.0000    0    12.011    0.000169    0.000160    0.632942
   1 H   1.0000    0     1.008    0.000069    1.940715   -0.004624
   2 H   1.0000    0     1.008    1.680693   -0.970238   -0.004609
   3 H   1.0000    0     1.008   -1.680456   -0.970183   -0.004578
   4 Br 35.0000    0    79.900    0.000090    0.000091    4.310889
   5 Cl 17.0000    0    35.453   -0.000018   -0.000018   -4.708786

      -----------------------------------------------------------      
     |                   =====================                   |     
     |                           x T B                           |     
     |                   =====================                   |     
     |                         S. Grimme                         |     
     |          Mulliken Center for Theoretical Chemistry        |     
     |                    University of Bonn                     |     
      -----------------------------------------------------------      

   * xtb version 6.7.1 (edcfbbe) compiled by 'albert@albert-system' on 2024-07-22

   xtb is free software: you can redistribute it and/or modify it under
   the terms of the GNU Lesser General Public License as published by
   the Free Software Foundation, either version 3 of the License, or
   (at your option) any later version.
   
   xtb is distributed in the hope that it will be useful,
   but WITHOUT ANY WARRANTY; without even the implied warranty of
   MERCHANTABILITY or FITNESS FOR A PARTICULAR PURPOSE.  See the
   GNU Lesser General Public License for more details.
   
   Cite this work as:
   * C. Bannwarth, E. Caldeweyher, S. Ehlert, A. Hansen, P. Pracht,
     J. Seibert, S. Spicher, S. Grimme, WIREs Comput. Mol. Sci., 2020, 11,
     e01493. DOI: 10.1002/wcms.1493
   
   for GFN2-xTB:
   * C. Bannwarth, S. Ehlert and S. Grimme., J. Chem. Theory Comput., 2019,
     15, 1652-1671. DOI: 10.1021/acs.jctc.8b01176
   for GFN1-xTB:
   * S. Grimme, C. Bannwarth, P. Shushkov, J. Chem. Theory Comput., 2017,
     13, 1989-2009. DOI: 10.1021/acs.jctc.7b00118
   for GFN0-xTB:
   * P. Pracht, E. Caldeweyher, S. Ehlert, S. Grimme, ChemRxiv, 2019, preprint.
     DOI: 10.26434/chemrxiv.8326202.v1
   for GFN-FF:
   * S. Spicher and S. Grimme, Angew. Chem. Int. Ed., 2020, 59, 15665-15673.
     DOI: 10.1002/anie.202004239
   
   for ALPB and GBSA implicit solvation:
   * S. Ehlert, M. Stahn, S. Spicher, S. Grimme, J. Chem. Theory Comput.,
     2021, 17, 4250-4261. DOI: 10.1021/acs.jctc.1c00471
   
   for ddCOSMO and CPCM-X implicit solvation:
   * M. Stahn, S. Ehlert, S. Grimme, J. Phys. Chem. A,
     2023, XX, XXXX-XXXX. DOI: 10.1021/acs.jpca.3c04382
   
   for DFT-D4:
   * E. Caldeweyher, C. Bannwarth and S. Grimme, J. Chem. Phys., 2017,
     147, 034112. DOI: 10.1063/1.4993215
   * E. Caldeweyher, S. Ehlert, A. Hansen, H. Neugebauer, S. Spicher,
     C. Bannwarth and S. Grimme, J. Chem. Phys., 2019, 150, 154122.
     DOI: 10.1063/1.5090222
   * E. Caldeweyher, J.-M. Mewes, S. Ehlert and S. Grimme, Phys. Chem. Chem. Phys.
     2020, 22, 8499-8512. DOI: 10.1039/D0CP00502A
   
   for sTDA-xTB:
   * S. Grimme and C. Bannwarth, J. Chem. Phys., 2016, 145, 054103.
     DOI: 10.1063/1.4959605
   
   in the mass-spec context:
   * V. Asgeirsson, C. Bauer and S. Grimme, Chem. Sci., 2017, 8, 4879.
     DOI: 10.1039/c7sc00601b
   * J. Koopman and S. Grimme, ACS Omega 2019, 4, 12, 15120-15133.
     DOI: 10.1021/acsomega.9b02011
   
   for metadynamics refer to:
   * S. Grimme, J. Chem. Theory Comput., 2019, 155, 2847-2862
     DOI: 10.1021/acs.jctc.9b00143
   
   for SPH calculations refer to:
   * S. Spicher and S. Grimme, J. Chem. Theory Comput., 2021, 17, 1701-1714
     DOI: 10.1021/acs.jctc.0c01306
   
   for ONIOM refer to:
   * C. Plett, A. Katbashev, S. Ehlert, S. Grimme, M. Bursch,
     Phys. Chem. Chem. Phys., 2023, 25, 17860-17868. DOI: 10.1039/D3CP02178E
   
   for DIPRO refer to:
   * J. Kohn, N. Gildemeister, S. Grimme, D. Fazzi, A. Hansen,
     J. Chem. Phys., 2023, just accepted.
   
   for PTB refer to:
   * S. Grimme, M. Mueller, A. Hansen, J. Chem. Phys., 2023, 158, 124111.
     DOI: 10.1063/5.0137838
   
   with help from (in alphabetical order)
   P. Atkinson, C. Bannwarth, F. Bohle, G. Brandenburg, E. Caldeweyher
   M. Checinski, S. Dohm, S. Ehlert, S. Ehrlich, I. Gerasimov, C. Hölzer
   A. Katbashev, J. Kohn, J. Koopman, C. Lavigne, S. Lehtola, F. März, M. Müller,
   F. Musil, H. Neugebauer, J. Pisarek, C. Plett, P. Pracht, F. Pultar,
   J. Seibert, P. Shushkov, S. Spicher, M. Stahn, M. Steiner, T. Strunk,
   J. Stückrath, T. Rose, and J. Unsleber
   
 * started run on 2026/03/12 at 12:40:38.569     
   ID    Z sym.   atoms
    1    6 C      1
    2    1 H      2-4
    3   35 Br     5
    4   17 Cl     6

           -------------------------------------------------
          |                Calculation Setup                |
           -------------------------------------------------

          program call               : /software/orca-6.1.0-el8-x86_64/bin/otool_xtb product_optfreq_XTB.xyz --grad -c -1 -u 0 -P 8 --namespace product_optfreq --input product_optfreq_XTB.input.tmp --acc 0.200000
          hostname                   : midway3-login4.rcc.local
          calculation namespace      : product_optfreq
          coordinate file            : product_optfreq_XTB.xyz
          omp threads                :                     8


molecular fragmentation (1/2 indicates fragments):
111112
# atoms in fragment 1/2:     5     1
 fragment masses (1/2) :       94.94       35.45
CMA distance (Bohr)    :   8.417
constraining FC (au)   :  0.0500

           -------------------------------------------------
          |                 G F N 2 - x T B                 |
           -------------------------------------------------

        Reference                      10.1021/acs.jctc.8b01176
      * Hamiltonian:
        H0-scaling (s, p, d)           1.850000    2.230000    2.230000
        zeta-weighting                 0.500000
      * Dispersion:
        s8                             2.700000
        a1                             0.520000
        a2                             5.000000
        s9                             5.000000
      * Repulsion:
        kExp                           1.500000    1.000000
        rExp                           1.000000
      * Coulomb:
        alpha                          2.000000
        third order                    shell-resolved
        anisotropic                    true
        a3                             3.000000
        a5                             4.000000
        cn-shift                       1.200000
        cn-exp                         4.000000
        max-rad                        5.000000

q/qsh data taken from xtbrestart
CAMM data taken from xtbrestart

          ...................................................
          :                      SETUP                      :
          :.................................................:
          :  # basis functions                  27          :
          :  # atomic orbitals                  25          :
          :  # shells                           11          :
          :  # electrons                        22          :
          :  max. iterations                   250          :
          :  Hamiltonian                  GFN2-xTB          :
          :  restarted?                       true          :
          :  GBSA solvation                  false          :
          :  PC potential                    false          :
          :  electronic temp.          300.0000000     K    :
          :  accuracy                    0.2000000          :
          :  -> integral cutoff          0.3198970E+02      :
          :  -> integral neglect         0.2000000E-08      :
          :  -> SCF convergence          0.2000000E-06 Eh   :
          :  -> wf. convergence          0.2000000E-04 e    :
          :  Broyden damping             0.4000000          :
          :  net charge                         -1          :
          :  unpaired electrons                  0          :
          ...................................................

 iter      E             dE          RMSdq      gap      omega  full diag
   1    -12.6126780 -0.126127E+02  0.510E-02    3.17       0.0  T
   2    -12.6126803 -0.235039E-05  0.274E-02    3.16       1.5  T
   3    -12.6126807 -0.336425E-06  0.163E-02    3.15       2.5  T
   4    -12.6126808 -0.944429E-07  0.770E-03    3.15       5.3  T
   5    -12.6126808 -0.409172E-07  0.467E-03    3.15       8.7  T
   6    -12.6126808 -0.229696E-07  0.114E-03    3.15      35.9  T
   7    -12.6126808 -0.440389E-09  0.246E-04    3.15     165.6  T
   8    -12.6126808 -0.405844E-10  0.167E-04    3.15     244.7  T
   9    -12.6126808 -0.564508E-10  0.389E-05    3.15    1048.6  T

   *** convergence criteria satisfied after 9 iterations ***

         #    Occupation            Energy/Eh            Energy/eV
      -------------------------------------------------------------
         1        2.0000           -0.8004310             -21.7808
       ...           ...                  ...                  ...
         5        2.0000           -0.3697722             -10.0620
         6        2.0000           -0.3578923              -9.7387
         7        2.0000           -0.2867997              -7.8042
         8        2.0000           -0.2867982              -7.8042
         9        2.0000           -0.2003960              -5.4531
        10        2.0000           -0.1995381              -5.4297
        11        2.0000           -0.1995381              -5.4297 (HOMO)
        12                         -0.0836792              -2.2770 (LUMO)
        13                          0.1627386               4.4283
        14                          0.1627420               4.4284
        15                          0.1805702               4.9136
        16                          0.1805719               4.9136
       ...                                ...                  ...
        25                          0.5136467              13.9770
      -------------------------------------------------------------
                  HL-Gap            0.1158588 Eh            3.1527 eV
             Fermi-level           -0.1416087 Eh           -3.8534 eV

 SCC (total)                   0 d,  0 h,  0 min,  0.063 sec
 SCC setup                      ...        0 min,  0.000 sec (  0.270%)
 Dispersion                     ...        0 min,  0.000 sec (  0.094%)
 classical contributions        ...        0 min,  0.000 sec (  0.038%)
 integral evaluation            ...        0 min,  0.061 sec ( 96.240%)
 iterations                     ...        0 min,  0.001 sec (  2.224%)
 molecular gradient             ...        0 min,  0.001 sec (  0.939%)
 printout                       ...        0 min,  0.000 sec (  0.172%)

         :::::::::::::::::::::::::::::::::::::::::::::::::::::
         ::                     SUMMARY                     ::
         :::::::::::::::::::::::::::::::::::::::::::::::::::::
         :: total energy             -12.553552509499 Eh    ::
         :: gradient norm              0.001266079596 Eh/a0 ::
         :: HOMO-LUMO gap              3.152679351741 eV    ::
         ::.................................................::
         :: SCC energy               -12.612681451149 Eh    ::
         :: -> isotropic ES            0.150112558540 Eh    ::
         :: -> anisotropic ES         -0.009757834554 Eh    ::
         :: -> anisotropic XC         -0.010483449776 Eh    ::
         :: -> dispersion             -0.002844128818 Eh    ::
         :: repulsion energy           0.059128941650 Eh    ::
         :: add. restraining           0.000000000000 Eh    ::
         :: total charge              -1.000000000000 e     ::
         :::::::::::::::::::::::::::::::::::::::::::::::::::::


Property printout bound to 'properties.out'

           -------------------------------------------------
          | TOTAL ENERGY              -12.553552509499 Eh   |
          | GRADIENT NORM               0.001266079596 Eh/α |
          | HOMO-LUMO GAP               3.152679351741 eV   |
           -------------------------------------------------

------------------------------------------------------------------------
 * finished run on 2026/03/12 at 12:40:38.670     
------------------------------------------------------------------------
 total:
 * wall-time:     0 d,  0 h,  0 min,  0.101 sec
 *  cpu-time:     0 d,  0 h,  0 min,  0.444 sec
 * ratio c/w:     4.404 speedup
 SCF:
 * wall-time:     0 d,  0 h,  0 min,  0.063 sec
 *  cpu-time:     0 d,  0 h,  0 min,  0.389 sec
 * ratio c/w:     6.169 speedup


-------------------------   --------------------
FINAL SINGLE POINT ENERGY       -12.553552509500
-------------------------   --------------------


-------------
DIPOLE MOMENT
-------------
                                X             Y             Z
Total Dipole Moment    :      0.00000       0.00000       2.09900
                        -----------------------------------------
Magnitude (a.u.)       :      2.09900
Magnitude (Debye)      :      5.33523


------------------
CARTESIAN GRADIENT
------------------

   1   C   :    0.000020822    0.000018733   -0.000709190
   2   H   :   -0.000005459   -0.000185032   -0.000180295
   3   H   :   -0.000160805    0.000084862   -0.000180856
   4   H   :    0.000147785    0.000083649   -0.000183639
   5   Br  :   -0.000002193   -0.000002075    0.000384217
   6   Cl  :   -0.000000149   -0.000000137    0.000869763

Difference to translation invariance:
           :    0.0000000000   -0.0000000000    0.0000000000

Difference to rotation invariance:
           :    0.0000000003   -0.0000000003    0.0000000000

Norm of the Cartesian gradient     ...    0.0012660796
RMS gradient                       ...    0.0002984178
MAX gradient                       ...    0.0008697629
------------------------------------------------------------------------------
                         ORCA GEOMETRY RELAXATION STEP
------------------------------------------------------------------------------

Reading the OPT-File                    .... done
Getting information on internals        .... done
Copying old internal coords+grads       .... done
Making the new internal coordinates     .... (2022 redundants) done
Validating the new internal coordinates .... (2022 redundants) done
Calculating the B-matrix                .... done
Calculating the G,G- and P matrices     .... done
Transforming gradient to internals      .... done
Projecting the internal gradient        .... done
Number of atoms                         ....   6
Number of internal coordinates          ....  17
Current Energy                          ....   -12.553552509 Eh
Current gradient norm                   ....     0.001266080 Eh/bohr
Maximum allowed component of the step   ....  0.300
Current trust radius                    ....  0.300
Updating the Hessian (BFGS)             .... done
Forming the augmented Hessian           .... done
Diagonalizing the augmented Hessian     .... done
Last element of RFO vector              ....  0.995388817
Lowest eigenvalues of augmented Hessian:
 -0.000045579  0.004847013  0.045635859  0.045645246  0.196775969
Length of the computed step             ....  0.096366747
The final length of the internal step   ....  0.096366747
Converting the step to Cartesian space:
 Initial RMS(Int)=    0.0233723693
Transforming coordinates:
 Iter   0:  RMS(Cart)=    0.0108514753 RMS(Int)=    0.0233848399
done
Storing new coordinates                 .... done
The predicted energy change is          ....    -0.000023001
Previously predicted energy change      ....    -0.000040973
Actually observed energy change         ....    -0.000060600
Ratio of predicted to observed change   ....     1.478997420
New trust radius                        ....     0.300000000

                                .--------------------.
          ----------------------|Geometry convergence|-------------------------
          Item                value                   Tolerance       Converged
          ---------------------------------------------------------------------
          Energy change      -0.0000605996            0.0000050000      NO
          RMS gradient        0.0001511148            0.0001000000      NO
          MAX gradient        0.0003842173            0.0003000000      NO
          RMS step            0.0233723693            0.0020000000      NO
          MAX step            0.0510322160            0.0040000000      NO
          -------------------------------------------------------------------------
          ........................................................
          Max(Bonds)      0.0270      Max(Angles)    0.00
          Max(Dihed)        0.00      Max(Improp)    0.00
          ---------------------------------------------------------------------

The optimization has not yet converged - more geometry cycles are needed


    ---------------------------------------------------------------------------
                         Redundant Internal Coordinates
                            (Angstroem and degrees)

        Definition                    Value    dE/dq     Step     New-Value
    ----------------------------------------------------------------------------
     1. B(H   1,C   0)                1.0809 -0.000103  0.0003    1.0812   
     2. B(H   2,C   0)                1.0809 -0.000099  0.0003    1.0812   
     3. B(H   3,C   0)                1.0809 -0.000087  0.0002    1.0812   
     4. B(Br  4,C   0)                1.9463  0.000384 -0.0015    1.9448   
     5. B(Cl  5,H   2)                2.6929 -0.000228  0.0250    2.7178   
     6. B(Cl  5,H   1)                2.6929 -0.000228  0.0250    2.7178   
     7. B(Cl  5,H   3)                2.6928 -0.000228  0.0250    2.7178   
     8. B(Cl  5,C   0)                2.8267 -0.000237  0.0270    2.8537   
     9. A(H   1,C   0,H   3)          110.72 -0.000004    0.00    110.72   
    10. A(H   2,C   0,H   3)          110.72 -0.000007    0.00    110.72   
    11. A(H   1,C   0,Br  4)          108.19  0.000006   -0.00    108.19   
    12. A(H   2,C   0,Br  4)          108.19  0.000003   -0.00    108.19   
    13. A(H   3,C   0,Br  4)          108.18 -0.000006    0.00    108.19   
    14. A(H   1,C   0,Cl  5)           71.81 -0.000000   -0.00     71.81   
    15. A(H   2,C   0,Cl  5)           71.81 -0.000001   -0.00     71.81   
    16. A(H   3,C   0,Cl  5)           71.81 -0.000001    0.00     71.81   
    17. A(H   1,C   0,H   2)          110.73  0.000009   -0.00    110.73   
    ----------------------------------------------------------------------------

Geometry step timings:
Preparation and reading OPT file:      0.000 s ( 2.756 %)
Internal coordinates            :      0.000 s ( 3.543 %)
B/P matrices and projection     :      0.000 s (12.894 %)
Hessian update/contruction      :      0.000 s (29.331 %)
Making the step                 :      0.000 s ( 8.858 %)
Converting the step to Cartesian:      0.000 s ( 2.854 %)
Storing new data                :      0.000 s ( 7.185 %)
Checking convergence            :      0.000 s ( 7.776 %)
Final printing                  :      0.000 s (24.705 %)
Total time                      :      0.001 s

Time for energy+gradient        :      0.109 s
Time for complete geometry iter :      0.111 s

         *************************************************************
         *                GEOMETRY OPTIMIZATION CYCLE   3            *
         *************************************************************
---------------------------------
CARTESIAN COORDINATES (ANGSTROEM)
---------------------------------
  C     0.000058    0.000056    0.339727
  H     0.000044    1.027219    0.002246
  H     0.889596   -0.513540    0.002253
  H    -0.889474   -0.513521    0.002267
  Br    0.000064    0.000065    2.284558
  Cl   -0.000000    0.000000   -2.513979

----------------------------
CARTESIAN COORDINATES (A.U.)
----------------------------
  NO LB    ZA    FRAG    MASS        X           Y           Z
   0 C   6.0000    0    12.011    0.000110    0.000105    0.641990
   1 H   1.0000    0     1.008    0.000083    1.941162    0.004244
   2 H   1.0000    0     1.008    1.681093   -0.970449    0.004257
   3 H   1.0000    0     1.008   -1.680861   -0.970414    0.004284
   4 Br 35.0000    0    79.900    0.000122    0.000123    4.317190
   5 Cl 17.0000    0    35.453   -0.000000    0.000000   -4.750732

      -----------------------------------------------------------      
     |                   =====================                   |     
     |                           x T B                           |     
     |                   =====================                   |     
     |                         S. Grimme                         |     
     |          Mulliken Center for Theoretical Chemistry        |     
     |                    University of Bonn                     |     
      -----------------------------------------------------------      

   * xtb version 6.7.1 (edcfbbe) compiled by 'albert@albert-system' on 2024-07-22

   xtb is free software: you can redistribute it and/or modify it under
   the terms of the GNU Lesser General Public License as published by
   the Free Software Foundation, either version 3 of the License, or
   (at your option) any later version.
   
   xtb is distributed in the hope that it will be useful,
   but WITHOUT ANY WARRANTY; without even the implied warranty of
   MERCHANTABILITY or FITNESS FOR A PARTICULAR PURPOSE.  See the
   GNU Lesser General Public License for more details.
   
   Cite this work as:
   * C. Bannwarth, E. Caldeweyher, S. Ehlert, A. Hansen, P. Pracht,
     J. Seibert, S. Spicher, S. Grimme, WIREs Comput. Mol. Sci., 2020, 11,
     e01493. DOI: 10.1002/wcms.1493
   
   for GFN2-xTB:
   * C. Bannwarth, S. Ehlert and S. Grimme., J. Chem. Theory Comput., 2019,
     15, 1652-1671. DOI: 10.1021/acs.jctc.8b01176
   for GFN1-xTB:
   * S. Grimme, C. Bannwarth, P. Shushkov, J. Chem. Theory Comput., 2017,
     13, 1989-2009. DOI: 10.1021/acs.jctc.7b00118
   for GFN0-xTB:
   * P. Pracht, E. Caldeweyher, S. Ehlert, S. Grimme, ChemRxiv, 2019, preprint.
     DOI: 10.26434/chemrxiv.8326202.v1
   for GFN-FF:
   * S. Spicher and S. Grimme, Angew. Chem. Int. Ed., 2020, 59, 15665-15673.
     DOI: 10.1002/anie.202004239
   
   for ALPB and GBSA implicit solvation:
   * S. Ehlert, M. Stahn, S. Spicher, S. Grimme, J. Chem. Theory Comput.,
     2021, 17, 4250-4261. DOI: 10.1021/acs.jctc.1c00471
   
   for ddCOSMO and CPCM-X implicit solvation:
   * M. Stahn, S. Ehlert, S. Grimme, J. Phys. Chem. A,
     2023, XX, XXXX-XXXX. DOI: 10.1021/acs.jpca.3c04382
   
   for DFT-D4:
   * E. Caldeweyher, C. Bannwarth and S. Grimme, J. Chem. Phys., 2017,
     147, 034112. DOI: 10.1063/1.4993215
   * E. Caldeweyher, S. Ehlert, A. Hansen, H. Neugebauer, S. Spicher,
     C. Bannwarth and S. Grimme, J. Chem. Phys., 2019, 150, 154122.
     DOI: 10.1063/1.5090222
   * E. Caldeweyher, J.-M. Mewes, S. Ehlert and S. Grimme, Phys. Chem. Chem. Phys.
     2020, 22, 8499-8512. DOI: 10.1039/D0CP00502A
   
   for sTDA-xTB:
   * S. Grimme and C. Bannwarth, J. Chem. Phys., 2016, 145, 054103.
     DOI: 10.1063/1.4959605
   
   in the mass-spec context:
   * V. Asgeirsson, C. Bauer and S. Grimme, Chem. Sci., 2017, 8, 4879.
     DOI: 10.1039/c7sc00601b
   * J. Koopman and S. Grimme, ACS Omega 2019, 4, 12, 15120-15133.
     DOI: 10.1021/acsomega.9b02011
   
   for metadynamics refer to:
   * S. Grimme, J. Chem. Theory Comput., 2019, 155, 2847-2862
     DOI: 10.1021/acs.jctc.9b00143
   
   for SPH calculations refer to:
   * S. Spicher and S. Grimme, J. Chem. Theory Comput., 2021, 17, 1701-1714
     DOI: 10.1021/acs.jctc.0c01306
   
   for ONIOM refer to:
   * C. Plett, A. Katbashev, S. Ehlert, S. Grimme, M. Bursch,
     Phys. Chem. Chem. Phys., 2023, 25, 17860-17868. DOI: 10.1039/D3CP02178E
   
   for DIPRO refer to:
   * J. Kohn, N. Gildemeister, S. Grimme, D. Fazzi, A. Hansen,
     J. Chem. Phys., 2023, just accepted.
   
   for PTB refer to:
   * S. Grimme, M. Mueller, A. Hansen, J. Chem. Phys., 2023, 158, 124111.
     DOI: 10.1063/5.0137838
   
   with help from (in alphabetical order)
   P. Atkinson, C. Bannwarth, F. Bohle, G. Brandenburg, E. Caldeweyher
   M. Checinski, S. Dohm, S. Ehlert, S. Ehrlich, I. Gerasimov, C. Hölzer
   A. Katbashev, J. Kohn, J. Koopman, C. Lavigne, S. Lehtola, F. März, M. Müller,
   F. Musil, H. Neugebauer, J. Pisarek, C. Plett, P. Pracht, F. Pultar,
   J. Seibert, P. Shushkov, S. Spicher, M. Stahn, M. Steiner, T. Strunk,
   J. Stückrath, T. Rose, and J. Unsleber
   
 * started run on 2026/03/12 at 12:40:38.680     
   ID    Z sym.   atoms
    1    6 C      1
    2    1 H      2-4
    3   35 Br     5
    4   17 Cl     6

           -------------------------------------------------
          |                Calculation Setup                |
           -------------------------------------------------

          program call               : /software/orca-6.1.0-el8-x86_64/bin/otool_xtb product_optfreq_XTB.xyz --grad -c -1 -u 0 -P 8 --namespace product_optfreq --input product_optfreq_XTB.input.tmp --acc 0.200000
          hostname                   : midway3-login4.rcc.local
          calculation namespace      : product_optfreq
          coordinate file            : product_optfreq_XTB.xyz
          omp threads                :                     8


molecular fragmentation (1/2 indicates fragments):
111112
# atoms in fragment 1/2:     5     1
 fragment masses (1/2) :       94.94       35.45
CMA distance (Bohr)    :   8.466
constraining FC (au)   :  0.0500

           -------------------------------------------------
          |                 G F N 2 - x T B                 |
           -------------------------------------------------

        Reference                      10.1021/acs.jctc.8b01176
      * Hamiltonian:
        H0-scaling (s, p, d)           1.850000    2.230000    2.230000
        zeta-weighting                 0.500000
      * Dispersion:
        s8                             2.700000
        a1                             0.520000
        a2                             5.000000
        s9                             5.000000
      * Repulsion:
        kExp                           1.500000    1.000000
        rExp                           1.000000
      * Coulomb:
        alpha                          2.000000
        third order                    shell-resolved
        anisotropic                    true
        a3                             3.000000
        a5                             4.000000
        cn-shift                       1.200000
        cn-exp                         4.000000
        max-rad                        5.000000

q/qsh data taken from xtbrestart
CAMM data taken from xtbrestart

          ...................................................
          :                      SETUP                      :
          :.................................................:
          :  # basis functions                  27          :
          :  # atomic orbitals                  25          :
          :  # shells                           11          :
          :  # electrons                        22          :
          :  max. iterations                   250          :
          :  Hamiltonian                  GFN2-xTB          :
          :  restarted?                       true          :
          :  GBSA solvation                  false          :
          :  PC potential                    false          :
          :  electronic temp.          300.0000000     K    :
          :  accuracy                    0.2000000          :
          :  -> integral cutoff          0.3198970E+02      :
          :  -> integral neglect         0.2000000E-08      :
          :  -> SCF convergence          0.2000000E-06 Eh   :
          :  -> wf. convergence          0.2000000E-04 e    :
          :  Broyden damping             0.4000000          :
          :  net charge                         -1          :
          :  unpaired electrons                  0          :
          ...................................................

 iter      E             dE          RMSdq      gap      omega  full diag
   1    -12.6126485 -0.126126E+02  0.545E-02    3.13       0.0  T
   2    -12.6126510 -0.253735E-05  0.230E-02    3.12       1.8  T
   3    -12.6126514 -0.327916E-06  0.130E-02    3.11       3.1  T
   4    -12.6126514 -0.457394E-07  0.635E-03    3.11       6.4  T
   5    -12.6126514 -0.237240E-07  0.227E-03    3.11      18.0  T
   6    -12.6126514 -0.682079E-08  0.887E-04    3.11      46.0  T
   7    -12.6126514 -0.485135E-09  0.109E-04    3.11     373.2  T
   8    -12.6126514 -0.749445E-11  0.242E-05    3.11    1684.8  T

   *** convergence criteria satisfied after 8 iterations ***

         #    Occupation            Energy/Eh            Energy/eV
      -------------------------------------------------------------
         1        2.0000           -0.7995098             -21.7558
       ...           ...                  ...                  ...
         5        2.0000           -0.3709366             -10.0937
         6        2.0000           -0.3591647              -9.7734
         7        2.0000           -0.2879097              -7.8344
         8        2.0000           -0.2879094              -7.8344
         9        2.0000           -0.1998504              -5.4382
        10        2.0000           -0.1989141              -5.4127
        11        2.0000           -0.1989141              -5.4127 (HOMO)
        12                         -0.0847665              -2.3066 (LUMO)
        13                          0.1614796               4.3941
        14                          0.1614798               4.3941
        15                          0.1794127               4.8821
        16                          0.1794132               4.8821
       ...                                ...                  ...
        25                          0.5140159              13.9871
      -------------------------------------------------------------
                  HL-Gap            0.1141476 Eh            3.1061 eV
             Fermi-level           -0.1418403 Eh           -3.8597 eV

 SCC (total)                   0 d,  0 h,  0 min,  0.070 sec
 SCC setup                      ...        0 min,  0.000 sec (  0.240%)
 Dispersion                     ...        0 min,  0.000 sec (  0.067%)
 classical contributions        ...        0 min,  0.000 sec (  0.035%)
 integral evaluation            ...        0 min,  0.067 sec ( 96.739%)
 iterations                     ...        0 min,  0.001 sec (  1.902%)
 molecular gradient             ...        0 min,  0.001 sec (  0.843%)
 printout                       ...        0 min,  0.000 sec (  0.152%)

         :::::::::::::::::::::::::::::::::::::::::::::::::::::
         ::                     SUMMARY                     ::
         :::::::::::::::::::::::::::::::::::::::::::::::::::::
         :: total energy             -12.553578701631 Eh    ::
         :: gradient norm              0.000761239743 Eh/a0 ::
         :: HOMO-LUMO gap              3.106114325370 eV    ::
         ::.................................................::
         :: SCC energy               -12.612652090177 Eh    ::
         :: -> isotropic ES            0.150579383527 Eh    ::
         :: -> anisotropic ES         -0.009643214753 Eh    ::
         :: -> anisotropic XC         -0.010445128484 Eh    ::
         :: -> dispersion             -0.002831062940 Eh    ::
         :: repulsion energy           0.059073388547 Eh    ::
         :: add. restraining           0.000000000000 Eh    ::
         :: total charge              -1.000000000000 e     ::
         :::::::::::::::::::::::::::::::::::::::::::::::::::::


Property printout bound to 'properties.out'

           -------------------------------------------------
          | TOTAL ENERGY              -12.553578701631 Eh   |
          | GRADIENT NORM               0.000761239743 Eh/α |
          | HOMO-LUMO GAP               3.106114325370 eV   |
           -------------------------------------------------

------------------------------------------------------------------------
 * finished run on 2026/03/12 at 12:40:38.769     
------------------------------------------------------------------------
 total:
 * wall-time:     0 d,  0 h,  0 min,  0.088 sec
 *  cpu-time:     0 d,  0 h,  0 min,  0.353 sec
 * ratio c/w:     3.996 speedup
 SCF:
 * wall-time:     0 d,  0 h,  0 min,  0.070 sec
 *  cpu-time:     0 d,  0 h,  0 min,  0.300 sec
 * ratio c/w:     4.291 speedup


-------------------------   --------------------
FINAL SINGLE POINT ENERGY       -12.553578701630
-------------------------   --------------------


-------------
DIPOLE MOMENT
-------------
                                X             Y             Z
Total Dipole Moment    :     -0.00000      -0.00000       2.16500
                        -----------------------------------------
Magnitude (a.u.)       :      2.16500
Magnitude (Debye)      :      5.50299


------------------
CARTESIAN GRADIENT
------------------

   1   C   :   -0.000007081   -0.000006330   -0.000571000
   2   H   :   -0.000001869   -0.000045397   -0.000012067
   3   H   :   -0.000043287    0.000022252   -0.000011137
   4   H   :    0.000052559    0.000029763   -0.000007793
   5   Br  :   -0.000000292   -0.000000264    0.000479524
   6   Cl  :   -0.000000030   -0.000000025    0.000122472

Difference to translation invariance:
           :   -0.0000000000    0.0000000000   -0.0000000000

Difference to rotation invariance:
           :    0.0000000014   -0.0000000015    0.0000000000

Norm of the Cartesian gradient     ...    0.0007612397
RMS gradient                       ...    0.0001794259
MAX gradient                       ...    0.0005709998
------------------------------------------------------------------------------
                         ORCA GEOMETRY RELAXATION STEP
------------------------------------------------------------------------------

Reading the OPT-File                    .... done
Getting information on internals        .... done
Copying old internal coords+grads       .... done
Making the new internal coordinates     .... (2022 redundants) done
Validating the new internal coordinates .... (2022 redundants) done
Calculating the B-matrix                .... done
Calculating the G,G- and P matrices     .... done
Transforming gradient to internals      .... done
Projecting the internal gradient        .... done
Number of atoms                         ....   6
Number of internal coordinates          ....  17
Current Energy                          ....   -12.553578702 Eh
Current gradient norm                   ....     0.000761240 Eh/bohr
Maximum allowed component of the step   ....  0.300
Current trust radius                    ....  0.300
Updating the Hessian (BFGS)             .... done
Forming the augmented Hessian           .... done
Diagonalizing the augmented Hessian     .... done
Last element of RFO vector              ....  0.999802336
Lowest eigenvalues of augmented Hessian:
 -0.000002431  0.004081601  0.045635857  0.045645246  0.196787372
Length of the computed step             ....  0.019885800
The final length of the internal step   ....  0.019885800
Converting the step to Cartesian space:
 Initial RMS(Int)=    0.0048230150
Transforming coordinates:
 Iter   0:  RMS(Cart)=    0.0021940137 RMS(Int)=    0.0048235067
done
Storing new coordinates                 .... done
The predicted energy change is          ....    -0.000001216
Previously predicted energy change      ....    -0.000023001
Actually observed energy change         ....    -0.000026192
Ratio of predicted to observed change   ....     1.138722596
New trust radius                        ....     0.450000000

                                .--------------------.
          ----------------------|Geometry convergence|-------------------------
          Item                value                   Tolerance       Converged
          ---------------------------------------------------------------------
          Energy change      -0.0000261921            0.0000050000      NO
          RMS gradient        0.0001188393            0.0001000000      NO
          MAX gradient        0.0004795241            0.0003000000      NO
          RMS step            0.0048230150            0.0020000000      NO
          MAX step            0.0104893539            0.0040000000      NO
          -------------------------------------------------------------------------
          ........................................................
          Max(Bonds)      0.0056      Max(Angles)    0.00
          Max(Dihed)        0.00      Max(Improp)    0.00
          ---------------------------------------------------------------------

The optimization has not yet converged - more geometry cycles are needed


    ---------------------------------------------------------------------------
                         Redundant Internal Coordinates
                            (Angstroem and degrees)

        Definition                    Value    dE/dq     Step     New-Value
    ----------------------------------------------------------------------------
     1. B(H   1,C   0)                1.0812 -0.000037  0.0001    1.0813   
     2. B(H   2,C   0)                1.0812 -0.000041  0.0001    1.0813   
     3. B(H   3,C   0)                1.0812 -0.000053  0.0001    1.0813   
     4. B(Br  4,C   0)                1.9448  0.000480 -0.0012    1.9436   
     5. B(Cl  5,H   2)                2.7178 -0.000031  0.0051    2.7229   
     6. B(Cl  5,H   1)                2.7178 -0.000031  0.0051    2.7229   
     7. B(Cl  5,H   3)                2.7178 -0.000031  0.0051    2.7229   
     8. B(Cl  5,C   0)                2.8537 -0.000037  0.0056    2.8593   
     9. A(H   1,C   0,H   3)          110.72  0.000002   -0.00    110.72   
    10. A(H   2,C   0,H   3)          110.72  0.000001   -0.00    110.72   
    11. A(H   1,C   0,Br  4)          108.19 -0.000003    0.00    108.19   
    12. A(H   2,C   0,Br  4)          108.19 -0.000003    0.00    108.19   
    13. A(H   3,C   0,Br  4)          108.19 -0.000004    0.00    108.19   
    14. A(H   1,C   0,Cl  5)           71.81  0.000003   -0.00     71.81   
    15. A(H   2,C   0,Cl  5)           71.81  0.000003   -0.00     71.81   
    16. A(H   3,C   0,Cl  5)           71.81  0.000004   -0.00     71.81   
    17. A(H   1,C   0,H   2)          110.72  0.000006   -0.00    110.72   
    ----------------------------------------------------------------------------

Geometry step timings:
Preparation and reading OPT file:      0.000 s ( 2.944 %)
Internal coordinates            :      0.000 s ( 3.575 %)
B/P matrices and projection     :      0.000 s (13.880 %)
Hessian update/contruction      :      0.000 s (28.812 %)
Making the step                 :      0.000 s ( 8.833 %)
Converting the step to Cartesian:      0.000 s ( 2.944 %)
Storing new data                :      0.000 s ( 7.361 %)
Checking convergence            :      0.000 s ( 7.676 %)
Final printing                  :      0.000 s (23.975 %)
Total time                      :      0.001 s

Time for energy+gradient        :      0.097 s
Time for complete geometry iter :      0.099 s

         *************************************************************
         *                GEOMETRY OPTIMIZATION CYCLE   4            *
         *************************************************************
---------------------------------
CARTESIAN COORDINATES (ANGSTROEM)
---------------------------------
  C     0.000054    0.000052    0.340889
  H     0.000052    1.027287    0.003351
  H     0.889664   -0.513568    0.003356
  H    -0.889554   -0.513565    0.003364
  Br    0.000071    0.000071    2.284477
  Cl    0.000003    0.000003   -2.518365

----------------------------
CARTESIAN COORDINATES (A.U.)
----------------------------
  NO LB    ZA    FRAG    MASS        X           Y           Z
   0 C   6.0000    0    12.011    0.000102    0.000098    0.644187
   1 H   1.0000    0     1.008    0.000097    1.941291    0.006333
   2 H   1.0000    0     1.008    1.681221   -0.970503    0.006342
   3 H   1.0000    0     1.008   -1.681013   -0.970497    0.006357
   4 Br 35.0000    0    79.900    0.000133    0.000134    4.317036
   5 Cl 17.0000    0    35.453    0.000005    0.000005   -4.759021

      -----------------------------------------------------------      
     |                   =====================                   |     
     |                           x T B                           |     
     |                   =====================                   |     
     |                         S. Grimme                         |     
     |          Mulliken Center for Theoretical Chemistry        |     
     |                    University of Bonn                     |     
      -----------------------------------------------------------      

   * xtb version 6.7.1 (edcfbbe) compiled by 'albert@albert-system' on 2024-07-22

   xtb is free software: you can redistribute it and/or modify it under
   the terms of the GNU Lesser General Public License as published by
   the Free Software Foundation, either version 3 of the License, or
   (at your option) any later version.
   
   xtb is distributed in the hope that it will be useful,
[...]
        25                          0.5159944              14.0409
      -------------------------------------------------------------
                  HL-Gap            0.1140529 Eh            3.1035 eV
             Fermi-level           -0.1417236 Eh           -3.8565 eV

 SCC (total)                   0 d,  0 h,  0 min,  0.114 sec
 SCC setup                      ...        0 min,  0.000 sec (  0.224%)
 Dispersion                     ...        0 min,  0.000 sec (  0.086%)
 classical contributions        ...        0 min,  0.000 sec (  0.037%)
 integral evaluation            ...        0 min,  0.112 sec ( 98.276%)
 iterations                     ...        0 min,  0.001 sec (  0.766%)
 molecular gradient             ...        0 min,  0.001 sec (  0.501%)
 printout                       ...        0 min,  0.000 sec (  0.094%)

         :::::::::::::::::::::::::::::::::::::::::::::::::::::
         ::                     SUMMARY                     ::
         :::::::::::::::::::::::::::::::::::::::::::::::::::::
         :: total energy             -12.553580428463 Eh    ::
         :: gradient norm              0.000265751442 Eh/a0 ::
         :: HOMO-LUMO gap              3.103537087699 eV    ::
         ::.................................................::
         :: SCC energy               -12.612669494625 Eh    ::
         :: -> isotropic ES            0.150719882153 Eh    ::
         :: -> anisotropic ES         -0.009652306961 Eh    ::
         :: -> anisotropic XC         -0.010546893381 Eh    ::
         :: -> dispersion             -0.002828964183 Eh    ::
         :: repulsion energy           0.059089066162 Eh    ::
         :: add. restraining           0.000000000000 Eh    ::
         :: total charge              -1.000000000000 e     ::
         :::::::::::::::::::::::::::::::::::::::::::::::::::::

           ------------------------------------------------- 
          |                Numerical Hessian                |
           ------------------------------------------------- 
step length          :   0.00500
SCC accuracy         :   0.30000
Hessian scale factor :   1.00000
frozen atoms in %    :   0.00000    0
RMS gradient         :   0.00027
estimated CPU  time      0.00 min
estimated wall time      0.00 min

writing file <hessian>.

 projected vibrational frequencies (cm⁻¹)
eigval :       -0.00    -0.00    -0.00     0.00     0.00     0.00
eigval :       87.34    87.45   117.67   524.43   952.06   952.07
eigval :     1295.18  1437.33  1437.43  3083.30  3099.71  3099.72

Property printout bound to 'properties.out'
Molecule has the following symmetry elements: (C3) 3*(sigma) 
It seems to be the C3v point group

           -------------------------------------------------
          | TOTAL ENERGY              -12.553580428463 Eh   |
          | TOTAL ENTHALPY            -12.510418289699 Eh   |
          | TOTAL FREE ENERGY         -12.546043483565 Eh   |
          | GRADIENT NORM               0.000265743637 Eh/α |
          | HOMO-LUMO GAP               3.103537163024 eV   |
           -------------------------------------------------

------------------------------------------------------------------------
 * finished run on 2026/03/12 at 12:40:39.183     
------------------------------------------------------------------------
 total:
 * wall-time:     0 d,  0 h,  0 min,  0.183 sec
 *  cpu-time:     0 d,  0 h,  0 min,  0.700 sec
 * ratio c/w:     3.832 speedup
 SCF:
 * wall-time:     0 d,  0 h,  0 min,  0.115 sec
 *  cpu-time:     0 d,  0 h,  0 min,  0.488 sec
 * ratio c/w:     4.260 speedup
 analytical hessian:
 * wall-time:     0 d,  0 h,  0 min,  0.015 sec
 *  cpu-time:     0 d,  0 h,  0 min,  0.115 sec
 * ratio c/w:     7.903 speedup


-------------------------   --------------------
FINAL SINGLE POINT ENERGY       -12.553580428460
-------------------------   --------------------


-------------
DIPOLE MOMENT
-------------
                                X             Y             Z
Total Dipole Moment    :     -0.00000      -0.00000       2.18100
                        -----------------------------------------
Magnitude (a.u.)       :      2.18100
Magnitude (Debye)      :      5.54366


-----------------------
VIBRATIONAL FREQUENCIES
-----------------------

Scaling factor for frequencies =  1.000000000  (already applied!)

     0:       0.00 cm**-1
     1:       0.00 cm**-1
     2:       0.00 cm**-1
     3:       0.00 cm**-1
     4:       0.00 cm**-1
     5:       0.00 cm**-1
     6:      87.34 cm**-1
     7:      87.45 cm**-1
     8:     117.67 cm**-1
     9:     524.43 cm**-1
    10:     952.04 cm**-1
    11:     952.04 cm**-1
    12:    1295.14 cm**-1
    13:    1437.29 cm**-1
    14:    1437.39 cm**-1
    15:    3083.21 cm**-1
    16:    3099.63 cm**-1
    17:    3099.64 cm**-1


------------
NORMAL MODES
------------

These modes are the Cartesian displacements weighted by the diagonal matrix
M(i,i)=1/sqrt(m[i]) where m[i] is the mass of the displaced atom
Thus, these vectors are normalized but *not* orthogonal

                  0          1          2          3          4          5    
      0       0.000000   0.000000   0.000000   0.000000   0.000000   0.000000
      1       0.000000   0.000000   0.000000   0.000000   0.000000   0.000000
      2       0.000000   0.000000   0.000000   0.000000   0.000000   0.000000
      3       0.000000   0.000000   0.000000   0.000000   0.000000   0.000000
      4       0.000000   0.000000   0.000000   0.000000   0.000000   0.000000
      5       0.000000   0.000000   0.000000   0.000000   0.000000   0.000000
      6       0.000000   0.000000   0.000000   0.000000   0.000000   0.000000
      7       0.000000   0.000000   0.000000   0.000000   0.000000   0.000000
      8       0.000000   0.000000   0.000000   0.000000   0.000000   0.000000
      9       0.000000   0.000000   0.000000   0.000000   0.000000   0.000000
     10       0.000000   0.000000   0.000000   0.000000   0.000000   0.000000
     11       0.000000   0.000000   0.000000   0.000000   0.000000   0.000000
     12       0.000000   0.000000   0.000000   0.000000   0.000000   0.000000
     13       0.000000   0.000000   0.000000   0.000000   0.000000   0.000000
     14       0.000000   0.000000   0.000000   0.000000   0.000000   0.000000
     15       0.000000   0.000000   0.000000   0.000000   0.000000   0.000000
     16       0.000000   0.000000   0.000000   0.000000   0.000000   0.000000
     17       0.000000   0.000000   0.000000   0.000000   0.000000   0.000000
                  6          7          8          9         10         11    
      0      -0.414805  -0.001283  -0.000049  -0.000006  -0.044092  -0.101266
      1       0.001283  -0.414823   0.000714   0.000055  -0.101267   0.044093
      2      -0.000000   0.000022   0.298860  -0.638009  -0.000006   0.000005
      3      -0.488921  -0.001540  -0.000058  -0.000002   0.099810   0.229219
      4       0.001539  -0.497303  -0.007892   0.044832   0.144017  -0.062708
      5       0.000758  -0.244992   0.252243  -0.437584   0.692975  -0.301730
      6      -0.495209   0.002089  -0.007649   0.038740   0.108919   0.149236
      7       0.005103  -0.490966   0.005186  -0.022413   0.224022  -0.053643
      8      -0.212578   0.121892   0.251605  -0.437568  -0.085195   0.751029
      9      -0.495184  -0.005125   0.007532  -0.038746   0.035034   0.181397
     10      -0.002066  -0.491031   0.005186  -0.022414   0.191889  -0.127450
     11       0.211825   0.123202   0.251652  -0.437573  -0.607823  -0.449295
     12       0.045944   0.000142   0.000010   0.000001   0.003553   0.008161
     13      -0.000142   0.045945  -0.000074  -0.000005   0.008160  -0.003553
     14      -0.000004   0.000060   0.298102   0.111849   0.000002  -0.000001
     15       0.079047   0.000245  -0.000002   0.000000  -0.000001  -0.000001
     16      -0.000245   0.079050  -0.000146  -0.000009  -0.000002   0.000001
     17       0.000010  -0.000145  -0.794560   0.001400  -0.000001   0.000000
                 12         13         14         15         16         17    
      0      -0.000002   0.000703  -0.070258  -0.000007  -0.015698  -0.090217
      1       0.000001  -0.070240  -0.000703   0.000072   0.090220  -0.015698
      2      -0.096532  -0.000009   0.000001   0.038290  -0.000032   0.000003
      3       0.000011  -0.007472   0.746068  -0.000005  -0.007033  -0.040399
      4       0.186667  -0.125458  -0.001261   0.552849  -0.760629   0.132302
      5       0.543494  -0.301620  -0.003028  -0.162783   0.249417  -0.043384
      6       0.161647   0.376515   0.096182   0.479565   0.443712   0.499738
      7      -0.093336   0.524355   0.382680  -0.276918  -0.219861  -0.318879
      8       0.543481   0.153411  -0.259664  -0.163091  -0.162074  -0.194203
      9      -0.161635  -0.378358   0.088627  -0.479471  -0.248816   0.620337
     10      -0.093341   0.531916  -0.372103  -0.276859  -0.099216   0.374446
     11       0.543479   0.148185   0.262674  -0.163045  -0.086940   0.237553
     12      -0.000000   0.000011  -0.001099  -0.000000  -0.000015  -0.000086
     13      -0.000000  -0.001100  -0.000011   0.000000   0.000086  -0.000015
     14      -0.005121   0.000002   0.000000   0.000315  -0.000000   0.000000
     15      -0.000000   0.000002  -0.000188   0.000000   0.000011   0.000062
     16      -0.000000  -0.000189  -0.000002   0.000001  -0.000062   0.000011
     17      -0.002113  -0.000001  -0.000000   0.000220  -0.000000   0.000000


The first frequency considered to be a vibration is 6
The total number of vibrations considered is 12


--------------------------
THERMOCHEMISTRY AT 298.15K
--------------------------

Temperature         ...   298.15 K
Pressure            ...     1.00 atm
Total Mass          ...   130.39 AMU
Quasi RRHO          ...     True
Cut-Off Frequency   ...     1.00 cm^-1

Throughout the following assumptions are being made:
  (1) The electronic state is orbitally nondegenerate
  (2) There are no thermally accessible electronically excited states
  (3) Hindered rotations indicated by low frequency modes are not
      treated as such but are treated as vibrations and this may
      cause some error
  (4) All equations used are the standard statistical mechanics
      equations for an ideal gas
  (5) All vibrations are strictly harmonic

freq.      87.34  E(vib)   ...       0.48 
freq.      87.45  E(vib)   ...       0.48 
freq.     117.67  E(vib)   ...       0.44 
freq.     524.43  E(vib)   ...       0.13 
freq.     952.04  E(vib)   ...       0.03 
freq.     952.04  E(vib)   ...       0.03 
freq.    1295.14  E(vib)   ...       0.01 
freq.    1437.29  E(vib)   ...       0.00 
freq.    1437.39  E(vib)   ...       0.00 
freq.    3083.21  E(vib)   ...       0.00 
freq.    3099.63  E(vib)   ...       0.00 
freq.    3099.64  E(vib)   ...       0.00 

------------
INNER ENERGY
------------

The inner energy is: U= E(el) + E(ZPE) + E(vib) + E(rot) + E(trans)
    E(el)   - is the total energy from the electronic structure calculation
              = E(kin-el) + E(nuc-el) + E(el-el) + E(nuc-nuc)
    E(ZPE)  - the the zero temperature vibrational energy from the frequency calculation
    E(vib)  - the the finite temperature correction to E(ZPE) due to population
              of excited vibrational states
    E(rot)  - is the rotational thermal energy
    E(trans)- is the translational thermal energy

Summary of contributions to the inner energy U:
Electronic energy                ...    -12.55358043 Eh
Zero point energy                ...      0.03684540 Eh      23.12 kcal/mol
Thermal vibrational correction   ...      0.00253895 Eh       1.59 kcal/mol
Thermal rotational correction    ...      0.00141627 Eh       0.89 kcal/mol
Thermal translational correction ...      0.00141627 Eh       0.89 kcal/mol
-----------------------------------------------------------------------
Total thermal energy                    -12.51136354 Eh


Summary of corrections to the electronic energy:
(perhaps to be used in another calculation)
Total thermal correction                  0.00537149 Eh       3.37 kcal/mol
Non-thermal (ZPE) correction              0.03684540 Eh      23.12 kcal/mol
-----------------------------------------------------------------------
Total correction                          0.04221689 Eh      26.49 kcal/mol


--------
ENTHALPY
--------

The enthalpy is H = U + kB*T
                kB is Boltzmann's constant
Total thermal energy              ...    -12.51136354 Eh 
Thermal Enthalpy correction       ...      0.00094421 Eh       0.59 kcal/mol
-----------------------------------------------------------------------
Total Enthalpy                    ...    -12.51041933 Eh


WARNING (ORCA/SYM): The number of Z matrix atoms does not agree with
the number of centers in the basis set. The point group will therefore
be determined without considering basis set information.


Note: Rotational entropy computed according to Herzberg 
Infrared and Raman Spectra, Chapter V,1, Van Nostrand Reinhold, 1945 
Point Group:  C3v, Symmetry Number:   3  
Rotational constants in cm-1:     5.283069     0.029459     0.029459 

Vibrational entropy computed according to the QRRHO of S. Grimme
Chem.Eur.J. 2012 18 9955 using a reference frequency of 100.0 cm-1


-------
ENTROPY
-------

The entropy contributions are T*S = T*(S(el)+S(vib)+S(rot)+S(trans))
     S(el)   - electronic entropy
     S(vib)  - vibrational entropy
     S(rot)  - rotational entropy
     S(trans)- translational entropy
The entropies will be listed as multiplied by the temperature to get
units of energy

Electronic entropy                ...      0.00000000 Eh      0.00 kcal/mol
Vibrational entropy               ...      0.00493484 Eh      3.10 kcal/mol
Rotational entropy                ...      0.01101572 Eh      6.91 kcal/mol
Translational entropy             ...      0.01924704 Eh     12.08 kcal/mol
-----------------------------------------------------------------------
Final entropy term                ...      0.03519760 Eh     22.09 kcal/mol

In case the symmetry of your molecule has not been determined correctly
or in case you have a reason to use a different symmetry number we print 
out the resulting rotational entropy values for sn=1,12:

 non-linear molecules -----------------------------------
|  sn= 1 | S(rot)=       0.01205301 Eh      7.56 kcal/mol|
|  sn= 2 | S(rot)=       0.01139855 Eh      7.15 kcal/mol|
|  sn= 3 | S(rot)=       0.01101572 Eh      6.91 kcal/mol|
|  sn= 4 | S(rot)=       0.01074409 Eh      6.74 kcal/mol|
|  sn= 5 | S(rot)=       0.01053341 Eh      6.61 kcal/mol|
|  sn= 6 | S(rot)=       0.01036126 Eh      6.50 kcal/mol|
|  sn= 7 | S(rot)=       0.01021572 Eh      6.41 kcal/mol|
|  sn= 8 | S(rot)=       0.01008964 Eh      6.33 kcal/mol|
|  sn= 9 | S(rot)=       0.00997843 Eh      6.26 kcal/mol|
|  sn=10 | S(rot)=       0.00987895 Eh      6.20 kcal/mol|
|  sn=11 | S(rot)=       0.00978896 Eh      6.14 kcal/mol|
|  sn=12 | S(rot)=       0.00970681 Eh      6.09 kcal/mol|
 linear molecules ---------------------------------------
|  Dinfh | S(rot)=       0.00865380 Eh      5.43 kcal/mol|
|  Cinfv | S(rot)=       0.00930826 Eh      5.84 kcal/mol|
 --------------------------------------------------------


-------------------
GIBBS FREE ENERGY
-------------------

The Gibbs free energy is G = H - T*S

Total enthalpy                    ...    -12.51041933 Eh 
Total entropy correction          ...     -0.03519760 Eh    -22.09 kcal/mol
-----------------------------------------------------------------------
Final Gibbs free energy         ...    -12.54561693 Eh

For completeness - the Gibbs free energy minus the electronic energy
G-E(el)                           ...      0.00796350 Eh      5.00 kcal/mol


--------------------------------
SUGGESTED CITATIONS FOR THIS RUN
--------------------------------

Below you find a list of papers that are relevant to this ORCA run
We neither can nor want to force you to cite these papers, but we appreciate if you do
You receive ORCA, which is the product of decades of hard work by many enthusiastic individuals, for free
The only thing we kindly ask in return is that you cite our papers,
We deeply appreciate it, if you show your appreciation for ORCA by not just citing the generic ORCA reference.

Please note that relegating all ORCA citations to the supporting information does *not* help us.
SI sections are not indexed - citations you put there will not count into any citation statistics
But we need these citations in order to attract the funding resources that allow us to do what we are doing

Therefore, if you are a happy ORCA user, please consider citing a few of the papers listed below in the main body of your paper

In addition to the list printed below, the program has created the file product_optfreq.bibtex that contains the list in bibtex format
You can import this file easily into all common literature databanks and citation aid programs


List of essential papers. We consider these as the minimum necessary citations

  1. Bannwarth, C.; Ehlert, S.; Grimme, S.
     GFN2-xTB—An Accurate and Broadly Parametrized Self-Consistent Tight-Binding Quantum Chemical Method with Multipole Electrostatics and Density-Dependent Dispersion Contributions
     J. Chem. Theory Comput. 2019 15(3), 1652-1671
     doi.org/10.1021/acs.jctc.8b01176
  2. Neese, F.
     Software update: the ORCA program system, version 6.0
     WIRES Comput. Molec. Sci. 2025 15(1), e70019
     doi.org/10.1002/wcms.7019

List of papers to cite with high priority. The work reported in these papers was absolutely
necessary for this run to complete.
Our perspective: the developers of density functionals and basis sets usually get cited in chemistry papers
Good! But without the algorithms to do something with them, the functionals or basis sets would not do anything.
Hence, in our opinion, the algorithm design and method developments papers are equally worthy of getting cited

  1. Bykov, D.; Petrenko, T.; Izsak, R.; Kossmann, S.; Becker, U.; Valeev, E.; Neese, F.
     Efficient implementation of the analytic second derivatives of Hartree-Fock and hybrid DFT energies: a detailed analysis of different approximations
     Molec. Phys. 2015 113 , 1961-1977
     doi.org/10.1080/00268976.2015.1025114
  2. Bannwarth, C.; Caldeweyher, E.; Ehlert, S.; Hansen, A.; Pracht, P.; Seibert, J.; Spicher, S.; Grimme, S.
     Extended tight-binding quantum chemistry methods
     WIRES Comput. Molec. Sci. 2020 11(2), e1493
     doi.org/10.1002/wcms.1493

List of suggested additional citations. These are papers that are important in the 'surrounding' of 
of this run, or papers that preceded the highly important papers. If you like your results we are grateful for a citation.

  1. Neese, F.
     The ORCA program system
     WIRES Comput. Molec. Sci. 2012 2(1), 73-78
     doi.org/10.1002/wcms.81
  2. Neese, F.
     Software update: the ORCA program system, version 4.0
     WIRES Comput. Molec. Sci. 2018 8(1), 1-6
     doi.org/10.1002/wcms.1327
  3. Neese, F.; Wennmohs, F.; Becker, U.; Riplinger, C.
     The ORCA quantum chemistry program package
     J. Chem. Phys. 2020 152(22), 224108
     doi.org/10.1063/5.0004608
  4. Neese, F.
     Software update: The ORCA program system—Version 5.0
     WIRES Comput. Molec. Sci. 2022 12(1), e1606
     doi.org/10.1002/wcms.1606

List of optional additional citations

  1. Neese, F.
     Approximate second-order SCF convergence for spin unrestricted wavefunctions
     Chem. Phys. Lett. 2000 325(1-3), 93-98
     doi.org/10.1016/s0009-2614(00)00662-x

Timings for individual modules:

Sum of individual times          ...        0.712 sec (=   0.012 min)
Geometry relaxation              ...        0.008 sec (=   0.000 min)   1.2 %
XTB module                       ...        0.703 sec (=   0.012 min)  98.8 %
                             ****ORCA TERMINATED NORMALLY****
TOTAL RUN TIME: 0 days 0 hours 0 minutes 1 seconds 286 msec
