
                                 *****************
                                 * O   R   C   A *
                                 *****************

                                            #,                                       
                                            ###                                      
                                            ####                                     
                                            #####                                    
                                            ######                                   
                                           ########,                                 
                                     ,,################,,,,,                         
                               ,,#################################,,                 
                          ,,##########################################,,             
                       ,#########################################, ''#####,          
                    ,#############################################,,   '####,        
                  ,##################################################,,,,####,       
                ,###########''''           ''''###############################       
              ,#####''   ,,,,##########,,,,          '''####'''          '####       
            ,##' ,,,,###########################,,,                        '##       
           ' ,,###''''                  '''############,,,                           
         ,,##''                                '''############,,,,        ,,,,,,###''
      ,#''                                            '''#######################'''  
     '                                                          ''''####''''         
             ,#######,   #######,   ,#######,      ##                                
            ,#'     '#,  ##    ##  ,#'     '#,    #''#        ,####,    ,#,          
            ##       ##  ##   ,#'  ##            #'  '#       #'       ,# #          
            ##       ##  #######   ##           ,######,      #####,      #          
            '#,     ,#'  ##    ##  '#,     ,#' ,#      #,     #,   #      #          
             '#######'   ##     ##  '#######'  #'      '#     '####' #    #          



                #########################################################
                #                        -***-                          #
                #          Department of theory and spectroscopy        #
                #                                                       #
                #                      Frank Neese                      #
                #                                                       #
                #     Directorship, Architecture, Infrastructure        #
                #                    SHARK, DRIVERS                     #
                #        Core code/Algorithms in most modules           #
                #                                                       #
                #        Max Planck Institute fuer Kohlenforschung      #
                #                Kaiser Wilhelm Platz 1                 #
                #                 D-45470 Muelheim/Ruhr                 #
                #                      Germany                          #
                #                                                       #
                #                  All rights reserved                  #
                #                        -***-                          #
                #########################################################


                         Program Version 6.1.0  -  RELEASE   -
                                (GIT: $679e74b$)
                          ($2025-06-10 18:02:51 +0200$)


 With contributions from (in alphabetic order):
[Max-Planck-Institut fuer Kohlenforschung]                               
  Daniel Aravena         : Magnetic Suceptibility                        
  Michael Atanasov       : Ab Initio Ligand Field Theory (pilot matlab implementation)
  Alexander A. Auer      : GIAO ZORA, VPT2 properties, NMR spectrum      
  Ute Becker             : All parallelization in ORCA, NUMFREQ, NUMCALC 
  Giovanni Bistoni       : ED, misc. LED, open-shell LED, HFLD           
  Dmytro Bykov           : pre 5.0 version of the SCF Hessian            
  Marcos Casanova-Páez   : Triplet and SCS-CIS(D). UHF-(DLPNO)-IP/EA/STEOM-CCSD. UHF-CVS-IP/STEOM-CCSD   
  Vijay G. Chilkuri      : MRCI spin determinant printing, contributions to CSF-ICE 
  Pauline Colinet        : FMM embedding                                 
  Dipayan Datta          : RHF DLPNO-CCSD density                        
  Achintya Kumar Dutta   : EOM-CC, STEOM-CC                              
  Nicolas Foglia         : Exact transition moments, OPA infrastructure, MCD improvements    
  Dmitry Ganyushin       : Spin-Orbit,Spin-Spin,Magnetic field MRCI      
  Miquel Garcia-Rates    : C-PCM and meta-GGA Hessian, CCSD/C-PCM, Gaussian charge scheme 
  Tiago L. C. Gouveia    : GS-ROHF, GS-ROCIS                             
  Yang Guo               : DLPNO-NEVPT2, F12-NEVPT2, CIM, IAO-localization        
  Andreas Hansen         : Spin unrestricted coupled pair/coupled cluster methods 
  Ingolf Harden          : AUTO-CI MPn and infrastructure                
  Benjamin Helmich-Paris : MC-RPA, TRAH-(SCF,CASSCF), AVAS, COSX integrals, SCF dyn. polar., MC-PDFT, srDFT 
  Lee Huntington         : MR-EOM, pCC                                   
  Robert Izsak           : Overlap fitted RIJCOSX, COSX-SCS-MP3, EOM     
  Riya Kayal             : Wick's Theorem for AUTO-CI, AUTO-CI UHF-CCSDT 
  Emily Kempfer          : AUTO-CI RHF CISDT and CCSDT, approximate NEVPT4
  Christian Kollmar      : KDIIS, OOCD, Brueckner-CCSD(T), CCSD density, CASPT2, CASPT2-K, improved NEVPT2 
  Axel Koslowski         : Symmetry handling                             
  Simone Kossmann        : meta-GGA functionals, TD-DFT gradient, OOMP2, (MP2 Hessian; deprecated post 5.0) 
  Lucas Lang             : DCDCAS, Hyperfine gauge corrections, ICE-SOC+SSC
  Marvin Lechner         : AUTO-CI (C++ implementation), FIC-MRCC        
  Spencer Leger          : CASSCF response                               
  Dagmar Lenk            : GEPOL surface, SMD, ORCA-2-JSON               
  Dimitrios Liakos       : Extrapolation schemes; Compound Job, Property file
  Dimitrios Manganas     : Further ROCIS development; embedding schemes. LFT, Crystal Embedding 
  Dimitrios Pantazis     : SARC Basis sets                               
  Anastasios Papadopoulos: AUTO-CI, single reference methods and gradients 
  Taras Petrenko         : pre 6.0 DFT Hessian and TD-DFT gradient,  ECA, NRVS 
  Petra Pikulova         : Analytic Raman intensities                    
  Peter Pinski           : DLPNO-MP2, DLPNO-MP2 Gradient                 
  Shashank Vittal Rao    : ES-AILFT, MagRelax                            
  Christoph Reimann      : Effective Core Potentials                     
  Marius Retegan         : Local ZFS, SOC                                
  Christoph Riplinger    : Optimizer, TS searches, QM/MM, DLPNO-CCSD(T), (RO)-DLPNO pert. Triples 
  Michael Roemelt        : Original ROCIS implementation, recursive CI coupling coefficients
  Masaaki Saitow         : Open-shell DLPNO-CCSD energy and density      
  Barbara Sandhoefer     : DKH picture change effects                    
  Yorick L. A. Schmerwitz: GMF and freeze-and-release deltaSCF, NEB S-IDPP initial path                    
  Kantharuban Sivalingam : CASSCF convergence/infrastructure, NEVPT2, NEVPT3, NEVPT4(SD), FIC-MRCI and CEPA variants
  Bernardo de Souza      : ESD, SOC TD-DFT                               
  Georgi L. Stoychev     : AutoAux, RI-MP2 NMR, DLPNO-MP2 response, X2C  
  Van Anh Tran           : RI-MP2 g-tensors                              
  Willem Van den Heuvel  : Paramagnetic NMR                              
  Zikuan Wang            : NOTCH, Electric field optimization            
  Frank Wennmohs         : Technical directorship and infrastructure     
  Hang Xu                : AUTO-CI-Response properties                   
                                                                         
[FACCTs GmbH]                                                            
  Markus Bursch, Nicolas Foglia, Miquel Garcia-Rates, Ingolf Harden, Hagen Neugebauer, Anastasios Papadopoulos, 
  Christoph Riplinger, Bernardo de Souza, Georgi L. Stoychev                                                    
                                                                 
  APM, various basis sets, CI-OPT, improved COSX, DLPNO-Multilevel,           
  DOCKER, DRACO, updates on ESD, Fragmentator, GOAT, IRC, LR-CPCM, L-BFGS, MBIS, meta-GGA TD-DFT gradient, ML-optimized integration grids, 
  MM, NACMEs, nearIR, NEB, NEB-TS, NL-DFT gradient (VV10), 2- and 3-layer-ONIOM, interface openCOSMO-RS, QMMM,   
  Crystal-QMMM, RESP, rigid body optimization, SF, symmetry and pop. for TD-DFT, various functionals, SOLVATOR                                   
                                                                         
[Other institutions]                                                     
  V. Asgeirsson          : NEB                                           
  Christoph Bannwarth    : sTDA-DFT, sTD-DFT, PBEh-3c, B97-3c, D3        
  Giovanni Bistoni       : ETS/NOCV, ADLD/ADEX, COVALED                  
  Martin Brehm           : Molecular dynamics                            
  Ronald Cardenas        : ETS/NOCV                                      
  Martina Colucci        : COVALED                                       
  Sebastian Ehlert       : rSCAN, r2SCAN, r2SCAN-3c, D4, dhf basis sets  
  Marvin Friede          : D4 for Fr, Ra, Ac-Lr                          
  Lars Goerigk           : TD-DFT with DH, B97 family of functionals     
  Stefan Grimme          : VdW corrections, initial TS optimization, DFT functionals, gCP, sTDA/sTD-DF 
  Waldemar Hujo          : DFT-NL                                        
  H. Jonsson             : NEB                                           
  Holger Kruse           : gCP                                           
  Marcel Mueller         : wB97X-3c, vDZP basis set                      
  Hagen Neugebauer       : wr2SCAN, Native XTB                           
  Gianluca Regni         : ADLD/ADEX                                     
  Tobias Risthaus        : pre 6.0 range-separated hybrid DFT and stability analysis
  Lukas Wittmann         : regularized MP2, r2SCAN double-hybrids, wr2SCAN        
                                                                         
We gratefully acknowledge several colleagues who have allowed us to      
interface, adapt or use parts of their codes:                            
  Ed Valeev, F. Pavosevic, A. Kumar             : LibInt (2-el integral package), F12 methods 
  Garnet Chan, S. Sharma, J. Yang, R. Olivares  : DMRG                   
  Ulf Ekstrom                                   : XCFun DFT Library      
  Mihaly Kallay                                 : mrcc  (arbitrary order and MRCC methods)
  Frank Weinhold                                : gennbo (NPA and NBO analysis)           
  Simon Mueller                                 : openCOSMO-RS                            
  Christopher J. Cramer and Donald G. Truhlar   : smd solvation model                     
  S Lehtola, MJT Oliveira, MAL Marques          : LibXC Library                           
  Liviu Ungur et al                             : ANISO software                          


 Your calculation uses the libint2 library for the computation of 2-el integrals
 For citations please refer to: http://libint.valeyev.net

 Your ORCA version has been built with support for libXC version: 7.0.0
 For citations please refer to: https://libxc.gitlab.io

 This ORCA versions uses:
   CBLAS   interface :  Fast vector & matrix operations
   LAPACKE interface :  Fast linear algebra routines
   SCALAPACK package :  Parallel linear algebra routines
   Shared memory     :  Shared parallel matrices
   BLAS/LAPACK       :  OpenBLAS 0.3.29  USE64BITINT DYNAMIC_ARCH NO_AFFINITY SkylakeX SINGLE_THREADED
        Core in use  :  SkylakeX
   Copyright (c) 2011-2014, The OpenBLAS Project


  ***********************************
  * Starting time: Mon Mar 16 14:18:36 2026
  * Host name:     midway3-login4.rcc.local
  * Process ID:    105700
  * Working dir.:  /home/rzhu16/evans-polanyi-principle-validation/runs/sn2_br_cl/geo_opt_reactant_product
  ***********************************

Your calculation utilizes the semiempirical GFN2-xTB method
Please cite in your paper:
Bannwarth, C.; Ehlert S.; Grimme, S. J. Chem. Theory Comput. 2019, 15, 1652.
   

================================================================================

================================================================================
                                        WARNINGS
                       Please study these warnings very carefully!
================================================================================


WARNING: Analytical Hessian for XTB is limited in the analysis of the data.
       : If you want to obtain extensive IR and deltaG analysis, please use ! XTB NumFreq. 


WARNING: Geometry Optimization
  ===> : Switching off AutoStart
         For restart on a previous wavefunction, please use MOREAD

WARNING: Found dipole moment calculation with XTB calculation
  ===> : Switching off dipole moment calculation


WARNING: Found frequency calculation in combination with XTB calculation
  ===> : Need to redirect dipole moment calculation to properties.out


================================================================================
                                       INPUT FILE
================================================================================
NAME = product_optfreq.inp
|  1> ! XTB2 Opt Freq PAL8
|  2> 
|  3> %geom
|  4>   MaxIter 500
|  5> end
|  6> 
|  7> * xyz -1 1
|  8>   C       0.000034      0.000017      0.331740
|  9>   H      -0.000000      1.027062     -0.005342
| 10>   H       0.889464     -0.513539     -0.005342
| 11>   H      -0.889492     -0.513551     -0.005360
| 12>   Br     -0.000005     -0.000006      2.277276
| 13>   Cl     -0.000000      0.000000     -2.476264
| 14> *
| 15> 
| 16>                          ****END OF INPUT****
================================================================================

                       *****************************
                       * Geometry Optimization Run *
                       *****************************

Geometry optimization settings:
Update method            Update   .... BFGS
Choice of coordinates    CoordSys .... (2022) Redundant Internals
Initial Hessian          InHess   .... Almloef's Model
Max. no of cycles        MaxIter  .... 500

Convergence Tolerances:
Energy Change            TolE     ....  5.0000e-06 Eh
Max. Gradient            TolMAXG  ....  3.0000e-04 Eh/bohr
RMS Gradient             TolRMSG  ....  1.0000e-04 Eh/bohr
Max. Displacement        TolMAXD  ....  4.0000e-03 bohr
RMS Displacement         TolRMSD  ....  2.0000e-03 bohr
Strict Convergence                .... False

------------------------------------------------------------------------------
                        ORCA OPTIMIZATION COORDINATE SETUP
------------------------------------------------------------------------------

The optimization will be done in redundant internal coordinates (2022)
Making redundant internal coordinates   ...  (2022 redundants) done
Evaluating the initial hessian          ...  (Almloef) done
Evaluating the coordinates              ...  done
Calculating the B-matrix                .... done
Calculating the G-matrix                .... done
The number of degrees of freedom        ....   17

    -----------------------------------------------------------------
                    Redundant Internal Coordinates


    -----------------------------------------------------------------
         Definition                    Initial Value    Approx d2E/dq
    -----------------------------------------------------------------
      1. B(H   1,C   0)                  1.0809         0.372278   
      2. B(H   2,C   0)                  1.0809         0.372275   
      3. B(H   3,C   0)                  1.0810         0.372152   
      4. B(Br  4,C   0)                  1.9455         0.272841   
      5. B(Cl  5,H   1)                  2.6759         0.010000   
      6. B(Cl  5,H   2)                  2.6759         0.010000   
      7. B(Cl  5,H   3)                  2.6759         0.010000   
      8. B(Cl  5,C   0)                  2.8080         0.010000   
      9. A(H   1,C   0,H   3)          110.7391         0.293885   
     10. A(H   2,C   0,H   3)          110.7389         0.293885   
     11. A(H   1,C   0,Br  4)          108.1708         0.328581   
     12. A(H   2,C   0,Br  4)          108.1708         0.328581   
     13. A(H   3,C   0,Br  4)          108.1682         0.328563   
     14. A(H   1,C   0,Cl  5)           71.8302         0.193047   
     15. A(H   2,C   0,Cl  5)           71.8303         0.193047   
     16. A(H   3,C   0,Cl  5)           71.8297         0.193039   
     17. A(H   1,C   0,H   2)          110.7437         0.293901   
    -----------------------------------------------------------------

Number of atoms                         .... 6
Number of degrees of freedom            .... 17


         *************************************************************
         *                GEOMETRY OPTIMIZATION CYCLE   1            *
         *************************************************************
---------------------------------
CARTESIAN COORDINATES (ANGSTROEM)
---------------------------------
  C     0.000034    0.000017    0.331740
  H    -0.000000    1.027062   -0.005342
  H     0.889464   -0.513539   -0.005342
  H    -0.889492   -0.513551   -0.005360
  Br   -0.000005   -0.000006    2.277276
  Cl   -0.000000    0.000000   -2.476264

----------------------------
CARTESIAN COORDINATES (A.U.)
----------------------------
  NO LB    ZA    FRAG    MASS        X           Y           Z
   0 C   6.0000    0    12.011    0.000064    0.000032    0.626898
   1 H   1.0000    0     1.008   -0.000000    1.940866   -0.010095
   2 H   1.0000    0     1.008    1.680843   -0.970448   -0.010095
   3 H   1.0000    0     1.008   -1.680896   -0.970471   -0.010129
   4 Br 35.0000    0    79.900   -0.000009   -0.000011    4.303428
   5 Cl 17.0000    0    35.453   -0.000000    0.000000   -4.679461

      -----------------------------------------------------------      
     |                   =====================                   |     
     |                           x T B                           |     
     |                   =====================                   |     
     |                         S. Grimme                         |     
     |          Mulliken Center for Theoretical Chemistry        |     
     |                    University of Bonn                     |     
      -----------------------------------------------------------      

   * xtb version 6.7.1 (edcfbbe) compiled by 'albert@albert-system' on 2024-07-22

   xtb is free software: you can redistribute it and/or modify it under
   the terms of the GNU Lesser General Public License as published by
   the Free Software Foundation, either version 3 of the License, or
   (at your option) any later version.
   
   xtb is distributed in the hope that it will be useful,
   but WITHOUT ANY WARRANTY; without even the implied warranty of
   MERCHANTABILITY or FITNESS FOR A PARTICULAR PURPOSE.  See the
   GNU Lesser General Public License for more details.
   
   Cite this work as:
   * C. Bannwarth, E. Caldeweyher, S. Ehlert, A. Hansen, P. Pracht,
     J. Seibert, S. Spicher, S. Grimme, WIREs Comput. Mol. Sci., 2020, 11,
     e01493. DOI: 10.1002/wcms.1493
   
   for GFN2-xTB:
   * C. Bannwarth, S. Ehlert and S. Grimme., J. Chem. Theory Comput., 2019,
     15, 1652-1671. DOI: 10.1021/acs.jctc.8b01176
   for GFN1-xTB:
   * S. Grimme, C. Bannwarth, P. Shushkov, J. Chem. Theory Comput., 2017,
     13, 1989-2009. DOI: 10.1021/acs.jctc.7b00118
   for GFN0-xTB:
   * P. Pracht, E. Caldeweyher, S. Ehlert, S. Grimme, ChemRxiv, 2019, preprint.
     DOI: 10.26434/chemrxiv.8326202.v1
   for GFN-FF:
   * S. Spicher and S. Grimme, Angew. Chem. Int. Ed., 2020, 59, 15665-15673.
     DOI: 10.1002/anie.202004239
   
   for ALPB and GBSA implicit solvation:
   * S. Ehlert, M. Stahn, S. Spicher, S. Grimme, J. Chem. Theory Comput.,
     2021, 17, 4250-4261. DOI: 10.1021/acs.jctc.1c00471
   
   for ddCOSMO and CPCM-X implicit solvation:
   * M. Stahn, S. Ehlert, S. Grimme, J. Phys. Chem. A,
     2023, XX, XXXX-XXXX. DOI: 10.1021/acs.jpca.3c04382
   
   for DFT-D4:
   * E. Caldeweyher, C. Bannwarth and S. Grimme, J. Chem. Phys., 2017,
     147, 034112. DOI: 10.1063/1.4993215
   * E. Caldeweyher, S. Ehlert, A. Hansen, H. Neugebauer, S. Spicher,
     C. Bannwarth and S. Grimme, J. Chem. Phys., 2019, 150, 154122.
     DOI: 10.1063/1.5090222
   * E. Caldeweyher, J.-M. Mewes, S. Ehlert and S. Grimme, Phys. Chem. Chem. Phys.
     2020, 22, 8499-8512. DOI: 10.1039/D0CP00502A
   
   for sTDA-xTB:
   * S. Grimme and C. Bannwarth, J. Chem. Phys., 2016, 145, 054103.
     DOI: 10.1063/1.4959605
   
   in the mass-spec context:
   * V. Asgeirsson, C. Bauer and S. Grimme, Chem. Sci., 2017, 8, 4879.
     DOI: 10.1039/c7sc00601b
   * J. Koopman and S. Grimme, ACS Omega 2019, 4, 12, 15120-15133.
     DOI: 10.1021/acsomega.9b02011
   
   for metadynamics refer to:
   * S. Grimme, J. Chem. Theory Comput., 2019, 155, 2847-2862
     DOI: 10.1021/acs.jctc.9b00143
   
   for SPH calculations refer to:
   * S. Spicher and S. Grimme, J. Chem. Theory Comput., 2021, 17, 1701-1714
     DOI: 10.1021/acs.jctc.0c01306
   
   for ONIOM refer to:
   * C. Plett, A. Katbashev, S. Ehlert, S. Grimme, M. Bursch,
     Phys. Chem. Chem. Phys., 2023, 25, 17860-17868. DOI: 10.1039/D3CP02178E
   
   for DIPRO refer to:
   * J. Kohn, N. Gildemeister, S. Grimme, D. Fazzi, A. Hansen,
     J. Chem. Phys., 2023, just accepted.
   
   for PTB refer to:
   * S. Grimme, M. Mueller, A. Hansen, J. Chem. Phys., 2023, 158, 124111.
     DOI: 10.1063/5.0137838
   
   with help from (in alphabetical order)
   P. Atkinson, C. Bannwarth, F. Bohle, G. Brandenburg, E. Caldeweyher
   M. Checinski, S. Dohm, S. Ehlert, S. Ehrlich, I. Gerasimov, C. Hölzer
   A. Katbashev, J. Kohn, J. Koopman, C. Lavigne, S. Lehtola, F. März, M. Müller,
   F. Musil, H. Neugebauer, J. Pisarek, C. Plett, P. Pracht, F. Pultar,
   J. Seibert, P. Shushkov, S. Spicher, M. Stahn, M. Steiner, T. Strunk,
   J. Stückrath, T. Rose, and J. Unsleber
   
 * started run on 2026/03/16 at 14:18:36.897     
   ID    Z sym.   atoms
    1    6 C      1
    2    1 H      2-4
    3   35 Br     5
    4   17 Cl     6

           -------------------------------------------------
          |                Calculation Setup                |
           -------------------------------------------------

          program call               : /software/orca-6.1.0-el8-x86_64/bin/otool_xtb product_optfreq_XTB.xyz --grad -c -1 -u 0 -P 8 --namespace product_optfreq --input product_optfreq_XTB.input.tmp --acc 0.200000
          hostname                   : midway3-login4.rcc.local
          calculation namespace      : product_optfreq
          coordinate file            : product_optfreq_XTB.xyz
          omp threads                :                     8


molecular fragmentation (1/2 indicates fragments):
111112
# atoms in fragment 1/2:     5     1
 fragment masses (1/2) :       94.94       35.45
CMA distance (Bohr)    :   8.380
constraining FC (au)   :  0.0500

           -------------------------------------------------
          |                 G F N 2 - x T B                 |
           -------------------------------------------------

        Reference                      10.1021/acs.jctc.8b01176
      * Hamiltonian:
        H0-scaling (s, p, d)           1.850000    2.230000    2.230000
        zeta-weighting                 0.500000
      * Dispersion:
        s8                             2.700000
        a1                             0.520000
        a2                             5.000000
        s9                             5.000000
      * Repulsion:
        kExp                           1.500000    1.000000
        rExp                           1.000000
      * Coulomb:
        alpha                          2.000000
        third order                    shell-resolved
        anisotropic                    true
        a3                             3.000000
        a5                             4.000000
        cn-shift                       1.200000
        cn-exp                         4.000000
        max-rad                        5.000000


          ...................................................
          :                      SETUP                      :
          :.................................................:
          :  # basis functions                  27          :
          :  # atomic orbitals                  25          :
          :  # shells                           11          :
          :  # electrons                        22          :
          :  max. iterations                   250          :
          :  Hamiltonian                  GFN2-xTB          :
          :  restarted?                      false          :
          :  GBSA solvation                  false          :
          :  PC potential                    false          :
          :  electronic temp.          300.0000000     K    :
          :  accuracy                    0.2000000          :
          :  -> integral cutoff          0.3198970E+02      :
          :  -> integral neglect         0.2000000E-08      :
          :  -> SCF convergence          0.2000000E-06 Eh   :
          :  -> wf. convergence          0.2000000E-04 e    :
          :  Broyden damping             0.4000000          :
          :  net charge                         -1          :
          :  unpaired electrons                  0          :
          ...................................................

 iter      E             dE          RMSdq      gap      omega  full diag
   1    -12.5695345 -0.125695E+02  0.744E+00    6.09       0.0  T
   2    -12.6045820 -0.350475E-01  0.469E+00    4.92       1.0  T
   3    -12.6083936 -0.381153E-02  0.211E+00    3.63       1.0  T
   4    -12.6109901 -0.259653E-02  0.135E+00    3.43       1.0  T
   5    -12.6120627 -0.107258E-02  0.677E-01    3.26       1.0  T
   6    -12.6125791 -0.516399E-03  0.247E-01    3.10       1.0  T
   7    -12.6126388 -0.597764E-04  0.318E-02    3.21       1.3  T
   8    -12.6126397 -0.843890E-06  0.153E-02    3.19       2.7  T
   9    -12.6126400 -0.333316E-06  0.895E-03    3.19       4.6  T
  10    -12.6126401 -0.109374E-06  0.123E-03    3.20      33.1  T
  11    -12.6126401 -0.161944E-08  0.702E-04    3.20      58.2  T
  12    -12.6126401 -0.126513E-08  0.139E-04    3.20     294.5  T
  13    -12.6126401 -0.282032E-10  0.109E-05    3.20    3738.9  T

   *** convergence criteria satisfied after 13 iterations ***

         #    Occupation            Energy/Eh            Energy/eV
      -------------------------------------------------------------
         1        2.0000           -0.8010513             -21.7977
       ...           ...                  ...                  ...
         5        2.0000           -0.3690515             -10.0424
         6        2.0000           -0.3571310              -9.7180
         7        2.0000           -0.2860748              -7.7845
         8        2.0000           -0.2860738              -7.7845
         9        2.0000           -0.2007435              -5.4625
        10        2.0000           -0.1999615              -5.4412
        11        2.0000           -0.1999615              -5.4412 (HOMO)
        12                         -0.0825338              -2.2459 (LUMO)
        13                          0.1634820               4.4486
        14                          0.1634865               4.4487
        15                          0.1814006               4.9362
        16                          0.1814014               4.9362
       ...                                ...                  ...
        25                          0.5154598              14.0264
      -------------------------------------------------------------
                  HL-Gap            0.1174277 Eh            3.1954 eV
             Fermi-level           -0.1412476 Eh           -3.8435 eV

 SCC (total)                   0 d,  0 h,  0 min,  0.020 sec
 SCC setup                      ...        0 min,  0.000 sec (  1.054%)
 Dispersion                     ...        0 min,  0.000 sec (  0.339%)
 classical contributions        ...        0 min,  0.000 sec (  0.196%)
 integral evaluation            ...        0 min,  0.017 sec ( 84.162%)
 iterations                     ...        0 min,  0.002 sec ( 10.201%)
 molecular gradient             ...        0 min,  0.001 sec (  3.063%)
 printout                       ...        0 min,  0.000 sec (  0.882%)

         :::::::::::::::::::::::::::::::::::::::::::::::::::::
         ::                     SUMMARY                     ::
         :::::::::::::::::::::::::::::::::::::::::::::::::::::
         :: total energy             -12.553511757285 Eh    ::
         :: gradient norm              0.001644154241 Eh/a0 ::
         :: HOMO-LUMO gap              3.195371195155 eV    ::
         ::.................................................::
         :: SCC energy               -12.612640736762 Eh    ::
         :: -> isotropic ES            0.149817573094 Eh    ::
         :: -> anisotropic ES         -0.009881291232 Eh    ::
         :: -> anisotropic XC         -0.010640475424 Eh    ::
         :: -> dispersion             -0.002854409289 Eh    ::
         :: repulsion energy           0.059128979477 Eh    ::
         :: add. restraining           0.000000000000 Eh    ::
         :: total charge              -1.000000000000 e     ::
         :::::::::::::::::::::::::::::::::::::::::::::::::::::


Property printout bound to 'properties.out'

           -------------------------------------------------
          | TOTAL ENERGY              -12.553511757285 Eh   |
          | GRADIENT NORM               0.001644154241 Eh/α |
          | HOMO-LUMO GAP               3.195371195155 eV   |
           -------------------------------------------------

------------------------------------------------------------------------
 * finished run on 2026/03/16 at 14:18:36.936     
------------------------------------------------------------------------
 total:
 * wall-time:     0 d,  0 h,  0 min,  0.038 sec
 *  cpu-time:     0 d,  0 h,  0 min,  0.223 sec
 * ratio c/w:     5.827 speedup
 SCF:
 * wall-time:     0 d,  0 h,  0 min,  0.021 sec
 *  cpu-time:     0 d,  0 h,  0 min,  0.149 sec
 * ratio c/w:     7.209 speedup


-------------------------   --------------------
FINAL SINGLE POINT ENERGY       -12.553511757290
-------------------------   --------------------


-------------
DIPOLE MOMENT
-------------
                                X             Y             Z
Total Dipole Moment    :      0.00000       0.00000       2.05200
                        -----------------------------------------
Magnitude (a.u.)       :      2.05200
Magnitude (Debye)      :      5.21577


------------------
CARTESIAN GRADIENT
------------------

   1   C   :    0.000049324    0.000029693   -0.000487724
   2   H   :   -0.000002226   -0.000115349   -0.000255457
   3   H   :   -0.000100152    0.000055149   -0.000255802
   4   H   :    0.000054340    0.000031267   -0.000272045
   5   Br  :   -0.000001129   -0.000000672   -0.000206888
   6   Cl  :   -0.000000157   -0.000000089    0.001477916

Difference to translation invariance:
           :   -0.0000000000    0.0000000000   -0.0000000000

Difference to rotation invariance:
           :   -0.0000000004   -0.0000000061    0.0000000032

Norm of the Cartesian gradient     ...    0.0016441542
RMS gradient                       ...    0.0003875309
MAX gradient                       ...    0.0014779159
------------------------------------------------------------------------------
                         ORCA GEOMETRY RELAXATION STEP
------------------------------------------------------------------------------

Reading the OPT-File                    .... done
Getting information on internals        .... done
Copying old internal coords+grads       .... done
Making the new internal coordinates     .... (2022 redundants) done
Validating the new internal coordinates .... (2022 redundants) done
Calculating the B-matrix                .... done
Calculating the G,G- and P matrices     .... done
Transforming gradient to internals      .... done
Projecting the internal gradient        .... done
Number of atoms                         ....   6
Number of internal coordinates          ....  17
Current Energy                          ....   -12.553511757 Eh
Current gradient norm                   ....     0.001644154 Eh/bohr
Maximum allowed component of the step   ....  0.300
Current trust radius                    ....  0.300
Evaluating the initial hessian          ....  (Almloef) done
Projecting the Hessian                  .... done
Forming the augmented Hessian           .... done
Diagonalizing the augmented Hessian     .... done
Last element of RFO vector              ....  0.996980868
Lowest eigenvalues of augmented Hessian:
 -0.000061349  0.010061015  0.045534128  0.045538313  0.196200311
Length of the computed step             ....  0.077882732
The final length of the internal step   ....  0.077882732
Converting the step to Cartesian space:
 Initial RMS(Int)=    0.0188893370
Transforming coordinates:
 Iter   0:  RMS(Cart)=    0.0089464833 RMS(Int)=    0.0188982679
done
Storing new coordinates                 .... done

                                .--------------------.
          ----------------------|Geometry convergence|-------------------------
          Item                value                   Tolerance       Converged
          ---------------------------------------------------------------------
          RMS gradient        0.0002018634            0.0001000000      NO
          MAX gradient        0.0004988103            0.0003000000      NO
          RMS step            0.0188893370            0.0020000000      NO
          MAX step            0.0417085516            0.0040000000      NO
          -------------------------------------------------------------------------
          ........................................................
          Max(Bonds)      0.0221      Max(Angles)    0.02
          Max(Dihed)        0.00      Max(Improp)    0.00
          ---------------------------------------------------------------------

The optimization has not yet converged - more geometry cycles are needed


    ---------------------------------------------------------------------------
                         Redundant Internal Coordinates
                            (Angstroem and degrees)

        Definition                    Value    dE/dq     Step     New-Value
    ----------------------------------------------------------------------------
     1. B(H   1,C   0)                1.0809 -0.000003  0.0000    1.0809   
     2. B(H   2,C   0)                1.0809 -0.000002 -0.0000    1.0809   
     3. B(H   3,C   0)                1.0810  0.000052 -0.0001    1.0810   
     4. B(Br  4,C   0)                1.9455 -0.000207  0.0004    1.9459   
     5. B(Cl  5,H   1)                2.6759 -0.000354  0.0201    2.6960   
     6. B(Cl  5,H   2)                2.6759 -0.000354  0.0201    2.6960   
     7. B(Cl  5,H   3)                2.6759 -0.000353  0.0201    2.6960   
     8. B(Cl  5,C   0)                2.8080 -0.000499  0.0221    2.8301   
     9. A(H   1,C   0,H   3)          110.74  0.000048   -0.01    110.72   
    10. A(H   2,C   0,H   3)          110.74  0.000048   -0.01    110.72   
    11. A(H   1,C   0,Br  4)          108.17 -0.000050    0.01    108.19   
    12. A(H   2,C   0,Br  4)          108.17 -0.000050    0.01    108.19   
    13. A(H   3,C   0,Br  4)          108.17 -0.000055    0.02    108.18   
    14. A(H   1,C   0,Cl  5)           71.83  0.000053   -0.02     71.81   
    15. A(H   2,C   0,Cl  5)           71.83  0.000053   -0.02     71.82   
    16. A(H   3,C   0,Cl  5)           71.83  0.000051   -0.02     71.81   
    17. A(H   1,C   0,H   2)          110.74  0.000053   -0.02    110.73   
    ----------------------------------------------------------------------------

Geometry step timings:
Preparation and reading OPT file:      0.000 s ( 1.227 %)
Internal coordinates            :      0.000 s ( 1.467 %)
B/P matrices and projection     :      0.000 s ( 5.201 %)
Hessian update/contruction      :      0.002 s (60.549 %)
Making the step                 :      0.000 s ( 6.909 %)
Converting the step to Cartesian:      0.000 s ( 2.294 %)
Storing new data                :      0.000 s ( 4.348 %)
Checking convergence            :      0.000 s ( 3.921 %)
Final printing                  :      0.001 s (13.950 %)
Total time                      :      0.004 s

Time for energy+gradient        :      0.049 s
Time for complete geometry iter :      0.056 s

         *************************************************************
         *                GEOMETRY OPTIMIZATION CYCLE   2            *
         *************************************************************
---------------------------------
CARTESIAN COORDINATES (ANGSTROEM)
---------------------------------
  C     0.000017    0.000007    0.335485
  H    -0.000009    1.026962   -0.001872
  H     0.889372   -0.513496   -0.001872
  H    -0.889366   -0.513478   -0.001871
  Br   -0.000011   -0.000010    2.281422
  Cl   -0.000001   -0.000001   -2.494583

----------------------------
CARTESIAN COORDINATES (A.U.)
----------------------------
  NO LB    ZA    FRAG    MASS        X           Y           Z
   0 C   6.0000    0    12.011    0.000032    0.000013    0.633974
   1 H   1.0000    0     1.008   -0.000017    1.940677   -0.003538
   2 H   1.0000    0     1.008    1.680670   -0.970368   -0.003538
   3 H   1.0000    0     1.008   -1.680658   -0.970333   -0.003536
   4 Br 35.0000    0    79.900   -0.000021   -0.000019    4.311262
   5 Cl 17.0000    0    35.453   -0.000003   -0.000002   -4.714079

      -----------------------------------------------------------      
     |                   =====================                   |     
     |                           x T B                           |     
     |                   =====================                   |     
     |                         S. Grimme                         |     
     |          Mulliken Center for Theoretical Chemistry        |     
     |                    University of Bonn                     |     
      -----------------------------------------------------------      

   * xtb version 6.7.1 (edcfbbe) compiled by 'albert@albert-system' on 2024-07-22

   xtb is free software: you can redistribute it and/or modify it under
   the terms of the GNU Lesser General Public License as published by
   the Free Software Foundation, either version 3 of the License, or
   (at your option) any later version.
   
   xtb is distributed in the hope that it will be useful,
   but WITHOUT ANY WARRANTY; without even the implied warranty of
   MERCHANTABILITY or FITNESS FOR A PARTICULAR PURPOSE.  See the
   GNU Lesser General Public License for more details.
   
   Cite this work as:
   * C. Bannwarth, E. Caldeweyher, S. Ehlert, A. Hansen, P. Pracht,
     J. Seibert, S. Spicher, S. Grimme, WIREs Comput. Mol. Sci., 2020, 11,
     e01493. DOI: 10.1002/wcms.1493
   
   for GFN2-xTB:
   * C. Bannwarth, S. Ehlert and S. Grimme., J. Chem. Theory Comput., 2019,
     15, 1652-1671. DOI: 10.1021/acs.jctc.8b01176
   for GFN1-xTB:
   * S. Grimme, C. Bannwarth, P. Shushkov, J. Chem. Theory Comput., 2017,
     13, 1989-2009. DOI: 10.1021/acs.jctc.7b00118
   for GFN0-xTB:
   * P. Pracht, E. Caldeweyher, S. Ehlert, S. Grimme, ChemRxiv, 2019, preprint.
     DOI: 10.26434/chemrxiv.8326202.v1
   for GFN-FF:
   * S. Spicher and S. Grimme, Angew. Chem. Int. Ed., 2020, 59, 15665-15673.
     DOI: 10.1002/anie.202004239
   
   for ALPB and GBSA implicit solvation:
   * S. Ehlert, M. Stahn, S. Spicher, S. Grimme, J. Chem. Theory Comput.,
     2021, 17, 4250-4261. DOI: 10.1021/acs.jctc.1c00471
   
   for ddCOSMO and CPCM-X implicit solvation:
   * M. Stahn, S. Ehlert, S. Grimme, J. Phys. Chem. A,
     2023, XX, XXXX-XXXX. DOI: 10.1021/acs.jpca.3c04382
   
   for DFT-D4:
   * E. Caldeweyher, C. Bannwarth and S. Grimme, J. Chem. Phys., 2017,
     147, 034112. DOI: 10.1063/1.4993215
   * E. Caldeweyher, S. Ehlert, A. Hansen, H. Neugebauer, S. Spicher,
     C. Bannwarth and S. Grimme, J. Chem. Phys., 2019, 150, 154122.
     DOI: 10.1063/1.5090222
   * E. Caldeweyher, J.-M. Mewes, S. Ehlert and S. Grimme, Phys. Chem. Chem. Phys.
     2020, 22, 8499-8512. DOI: 10.1039/D0CP00502A
   
   for sTDA-xTB:
   * S. Grimme and C. Bannwarth, J. Chem. Phys., 2016, 145, 054103.
     DOI: 10.1063/1.4959605
   
   in the mass-spec context:
   * V. Asgeirsson, C. Bauer and S. Grimme, Chem. Sci., 2017, 8, 4879.
     DOI: 10.1039/c7sc00601b
   * J. Koopman and S. Grimme, ACS Omega 2019, 4, 12, 15120-15133.
     DOI: 10.1021/acsomega.9b02011
   
   for metadynamics refer to:
   * S. Grimme, J. Chem. Theory Comput., 2019, 155, 2847-2862
     DOI: 10.1021/acs.jctc.9b00143
   
   for SPH calculations refer to:
   * S. Spicher and S. Grimme, J. Chem. Theory Comput., 2021, 17, 1701-1714
     DOI: 10.1021/acs.jctc.0c01306
   
   for ONIOM refer to:
   * C. Plett, A. Katbashev, S. Ehlert, S. Grimme, M. Bursch,
     Phys. Chem. Chem. Phys., 2023, 25, 17860-17868. DOI: 10.1039/D3CP02178E
   
   for DIPRO refer to:
   * J. Kohn, N. Gildemeister, S. Grimme, D. Fazzi, A. Hansen,
     J. Chem. Phys., 2023, just accepted.
   
   for PTB refer to:
   * S. Grimme, M. Mueller, A. Hansen, J. Chem. Phys., 2023, 158, 124111.
     DOI: 10.1063/5.0137838
   
   with help from (in alphabetical order)
   P. Atkinson, C. Bannwarth, F. Bohle, G. Brandenburg, E. Caldeweyher
   M. Checinski, S. Dohm, S. Ehlert, S. Ehrlich, I. Gerasimov, C. Hölzer
   A. Katbashev, J. Kohn, J. Koopman, C. Lavigne, S. Lehtola, F. März, M. Müller,
   F. Musil, H. Neugebauer, J. Pisarek, C. Plett, P. Pracht, F. Pultar,
   J. Seibert, P. Shushkov, S. Spicher, M. Stahn, M. Steiner, T. Strunk,
   J. Stückrath, T. Rose, and J. Unsleber
   
 * started run on 2026/03/16 at 14:18:36.953     
   ID    Z sym.   atoms
    1    6 C      1
    2    1 H      2-4
    3   35 Br     5
    4   17 Cl     6

           -------------------------------------------------
          |                Calculation Setup                |
           -------------------------------------------------

          program call               : /software/orca-6.1.0-el8-x86_64/bin/otool_xtb product_optfreq_XTB.xyz --grad -c -1 -u 0 -P 8 --namespace product_optfreq --input product_optfreq_XTB.input.tmp --acc 0.200000
          hostname                   : midway3-login4.rcc.local
          calculation namespace      : product_optfreq
          coordinate file            : product_optfreq_XTB.xyz
          omp threads                :                     8


molecular fragmentation (1/2 indicates fragments):
111112
# atoms in fragment 1/2:     5     1
 fragment masses (1/2) :       94.94       35.45
CMA distance (Bohr)    :   8.423
constraining FC (au)   :  0.0500

           -------------------------------------------------
          |                 G F N 2 - x T B                 |
           -------------------------------------------------

        Reference                      10.1021/acs.jctc.8b01176
      * Hamiltonian:
        H0-scaling (s, p, d)           1.850000    2.230000    2.230000
        zeta-weighting                 0.500000
      * Dispersion:
        s8                             2.700000
        a1                             0.520000
        a2                             5.000000
        s9                             5.000000
      * Repulsion:
        kExp                           1.500000    1.000000
        rExp                           1.000000
      * Coulomb:
        alpha                          2.000000
        third order                    shell-resolved
        anisotropic                    true
        a3                             3.000000
        a5                             4.000000
        cn-shift                       1.200000
        cn-exp                         4.000000
        max-rad                        5.000000

q/qsh data taken from xtbrestart
CAMM data taken from xtbrestart

          ...................................................
          :                      SETUP                      :
          :.................................................:
          :  # basis functions                  27          :
          :  # atomic orbitals                  25          :
          :  # shells                           11          :
          :  # electrons                        22          :
          :  max. iterations                   250          :
          :  Hamiltonian                  GFN2-xTB          :
          :  restarted?                       true          :
          :  GBSA solvation                  false          :
          :  PC potential                    false          :
          :  electronic temp.          300.0000000     K    :
          :  accuracy                    0.2000000          :
          :  -> integral cutoff          0.3198970E+02      :
          :  -> integral neglect         0.2000000E-08      :
          :  -> SCF convergence          0.2000000E-06 Eh   :
          :  -> wf. convergence          0.2000000E-04 e    :
          :  Broyden damping             0.4000000          :
          :  net charge                         -1          :
          :  unpaired electrons                  0          :
          ...................................................

 iter      E             dE          RMSdq      gap      omega  full diag
   1    -12.6126811 -0.126127E+02  0.434E-02    3.16       0.0  T
   2    -12.6126828 -0.172663E-05  0.235E-02    3.15       1.7  T
   3    -12.6126831 -0.245727E-06  0.140E-02    3.15       2.9  T
   4    -12.6126831 -0.678292E-07  0.662E-03    3.15       6.2  T
   5    -12.6126832 -0.299775E-07  0.398E-03    3.15      10.3  T
   6    -12.6126832 -0.166933E-07  0.987E-04    3.15      41.4  T
   7    -12.6126832 -0.337470E-09  0.199E-04    3.15     205.4  T
   8    -12.6126832 -0.274074E-10  0.143E-04    3.15     285.6  T

   *** convergence criteria satisfied after 8 iterations ***

         #    Occupation            Energy/Eh            Energy/eV
      -------------------------------------------------------------
         1        2.0000           -0.8003113             -21.7776
       ...           ...                  ...                  ...
         5        2.0000           -0.3699274             -10.0662
         6        2.0000           -0.3580625              -9.7434
         7        2.0000           -0.2869439              -7.8081
         8        2.0000           -0.2869433              -7.8081
         9        2.0000           -0.2003254              -5.4511
        10        2.0000           -0.1994579              -5.4275
        11        2.0000           -0.1994579              -5.4275 (HOMO)
        12                         -0.0837810              -2.2798 (LUMO)
        13                          0.1625686               4.4237
        14                          0.1625702               4.4238
        15                          0.1804277               4.9097
        16                          0.1804283               4.9097
       ...                                ...                  ...
        25                          0.5138875              13.9836
      -------------------------------------------------------------
                  HL-Gap            0.1156770 Eh            3.1477 eV
             Fermi-level           -0.1416194 Eh           -3.8537 eV

 SCC (total)                   0 d,  0 h,  0 min,  0.027 sec
 SCC setup                      ...        0 min,  0.000 sec (  0.772%)
 Dispersion                     ...        0 min,  0.000 sec (  0.330%)
 classical contributions        ...        0 min,  0.000 sec (  0.154%)
 integral evaluation            ...        0 min,  0.024 sec ( 90.098%)
 iterations                     ...        0 min,  0.001 sec (  5.407%)
 molecular gradient             ...        0 min,  0.001 sec (  2.550%)
 printout                       ...        0 min,  0.000 sec (  0.600%)

         :::::::::::::::::::::::::::::::::::::::::::::::::::::
         ::                     SUMMARY                     ::
         :::::::::::::::::::::::::::::::::::::::::::::::::::::
         :: total energy             -12.553558011234 Eh    ::
         :: gradient norm              0.001147443959 Eh/a0 ::
         :: HOMO-LUMO gap              3.147730260421 eV    ::
         ::.................................................::
         :: SCC energy               -12.612683806546 Eh    ::
         :: -> isotropic ES            0.150175081129 Eh    ::
         :: -> anisotropic ES         -0.009747684646 Eh    ::
         :: -> anisotropic XC         -0.010492361155 Eh    ::
         :: -> dispersion             -0.002842630451 Eh    ::
         :: repulsion energy           0.059125795312 Eh    ::
         :: add. restraining           0.000000000000 Eh    ::
         :: total charge              -1.000000000000 e     ::
         :::::::::::::::::::::::::::::::::::::::::::::::::::::


Property printout bound to 'properties.out'

           -------------------------------------------------
          | TOTAL ENERGY              -12.553558011234 Eh   |
          | GRADIENT NORM               0.001147443959 Eh/α |
          | HOMO-LUMO GAP               3.147730260421 eV   |
           -------------------------------------------------

------------------------------------------------------------------------
 * finished run on 2026/03/16 at 14:18:36.995     
------------------------------------------------------------------------
 total:
 * wall-time:     0 d,  0 h,  0 min,  0.041 sec
 *  cpu-time:     0 d,  0 h,  0 min,  0.265 sec
 * ratio c/w:     6.458 speedup
 SCF:
 * wall-time:     0 d,  0 h,  0 min,  0.027 sec
 *  cpu-time:     0 d,  0 h,  0 min,  0.191 sec
 * ratio c/w:     7.123 speedup


-------------------------   --------------------
FINAL SINGLE POINT ENERGY       -12.553558011230
-------------------------   --------------------


-------------
DIPOLE MOMENT
-------------
                                X             Y             Z
Total Dipole Moment    :      0.00000       0.00000       2.10700
                        -----------------------------------------
Magnitude (a.u.)       :      2.10700
Magnitude (Debye)      :      5.35557


------------------
CARTESIAN GRADIENT
------------------

   1   C   :    0.000010893    0.000006591   -0.000672308
   2   H   :   -0.000002989   -0.000159924   -0.000149948
   3   H   :   -0.000139923    0.000077232   -0.000149988
   4   H   :    0.000133108    0.000076748   -0.000151599
   5   Br  :   -0.000001042   -0.000000623    0.000349488
   6   Cl  :   -0.000000049   -0.000000024    0.000774355

Difference to translation invariance:
           :    0.0000000000   -0.0000000000    0.0000000000

Difference to rotation invariance:
           :   -0.0000000010    0.0000000024    0.0000000000

Norm of the Cartesian gradient     ...    0.0011474440
RMS gradient                       ...    0.0002704551
MAX gradient                       ...    0.0007743548
------------------------------------------------------------------------------
                         ORCA GEOMETRY RELAXATION STEP
------------------------------------------------------------------------------

Reading the OPT-File                    .... done
Getting information on internals        .... done
Copying old internal coords+grads       .... done
Making the new internal coordinates     .... (2022 redundants) done
Validating the new internal coordinates .... (2022 redundants) done
Calculating the B-matrix                .... done
Calculating the G,G- and P matrices     .... done
Transforming gradient to internals      .... done
Projecting the internal gradient        .... done
Number of atoms                         ....   6
Number of internal coordinates          ....  17
Current Energy                          ....   -12.553558011 Eh
Current gradient norm                   ....     0.001147444 Eh/bohr
Maximum allowed component of the step   ....  0.300
Current trust radius                    ....  0.300
Updating the Hessian (BFGS)             .... done
Forming the augmented Hessian           .... done
Diagonalizing the augmented Hessian     .... done
Last element of RFO vector              ....  0.996118049
Lowest eigenvalues of augmented Hessian:
 -0.000037264  0.004711341  0.045534129  0.045538313  0.196570594
Length of the computed step             ....  0.088370500
The final length of the internal step   ....  0.088370500
Converting the step to Cartesian space:
 Initial RMS(Int)=    0.0214329944
Transforming coordinates:
 Iter   0:  RMS(Cart)=    0.0099494586 RMS(Int)=    0.0214434304
done
Storing new coordinates                 .... done
The predicted energy change is          ....    -0.000018778
Previously predicted energy change      ....    -0.000030861
Actually observed energy change         ....    -0.000046254
Ratio of predicted to observed change   ....     1.498806685
New trust radius                        ....     0.300000000

                                .--------------------.
          ----------------------|Geometry convergence|-------------------------
          Item                value                   Tolerance       Converged
          ---------------------------------------------------------------------
          Energy change      -0.0000462539            0.0000050000      NO
          RMS gradient        0.0001359138            0.0001000000      NO
          MAX gradient        0.0003494880            0.0003000000      NO
          RMS step            0.0214329944            0.0020000000      NO
          MAX step            0.0468748494            0.0040000000      NO
          -------------------------------------------------------------------------
          ........................................................
          Max(Bonds)      0.0248      Max(Angles)    0.01
          Max(Dihed)        0.00      Max(Improp)    0.00
          ---------------------------------------------------------------------

The optimization has not yet converged - more geometry cycles are needed


    ---------------------------------------------------------------------------
                         Redundant Internal Coordinates
                            (Angstroem and degrees)

        Definition                    Value    dE/dq     Step     New-Value
    ----------------------------------------------------------------------------
     1. B(H   1,C   0)                1.0809 -0.000090  0.0003    1.0812   
     2. B(H   2,C   0)                1.0809 -0.000090  0.0003    1.0812   
     3. B(H   3,C   0)                1.0810 -0.000084  0.0002    1.0812   
     4. B(Br  4,C   0)                1.9459  0.000349 -0.0014    1.9446   
     5. B(Cl  5,H   1)                2.6960 -0.000200  0.0229    2.7188   
     6. B(Cl  5,H   2)                2.6960 -0.000200  0.0229    2.7188   
     7. B(Cl  5,H   3)                2.6960 -0.000200  0.0229    2.7188   
     8. B(Cl  5,C   0)                2.8301 -0.000220  0.0248    2.8549   
     9. A(H   1,C   0,H   3)          110.72  0.000002   -0.00    110.72   
    10. A(H   2,C   0,H   3)          110.72  0.000002   -0.00    110.72   
    11. A(H   1,C   0,Br  4)          108.19 -0.000003    0.00    108.19   
    12. A(H   2,C   0,Br  4)          108.19 -0.000004    0.00    108.19   
    13. A(H   3,C   0,Br  4)          108.18 -0.000008    0.00    108.19   
    14. A(H   1,C   0,Cl  5)           71.81  0.000005   -0.00     71.81   
    15. A(H   2,C   0,Cl  5)           71.81  0.000005   -0.00     71.81   
    16. A(H   3,C   0,Cl  5)           71.81  0.000005   -0.00     71.81   
    17. A(H   1,C   0,H   2)          110.73  0.000009   -0.01    110.72   
    ----------------------------------------------------------------------------

Geometry step timings:
Preparation and reading OPT file:      0.000 s ( 2.421 %)
Internal coordinates            :      0.000 s ( 3.968 %)
B/P matrices and projection     :      0.000 s (11.365 %)
Hessian update/contruction      :      0.000 s (29.523 %)
Making the step                 :      0.000 s ( 8.204 %)
Converting the step to Cartesian:      0.000 s ( 3.362 %)
Storing new data                :      0.000 s ( 6.187 %)
Checking convergence            :      0.000 s ( 6.994 %)
Final printing                  :      0.000 s (27.909 %)
Total time                      :      0.001 s

Time for energy+gradient        :      0.052 s
Time for complete geometry iter :      0.055 s

         *************************************************************
         *                GEOMETRY OPTIMIZATION CYCLE   3            *
         *************************************************************
---------------------------------
CARTESIAN COORDINATES (ANGSTROEM)
---------------------------------
  C     0.000001   -0.000003    0.339921
  H    -0.000003    1.027181    0.002412
  H     0.889565   -0.513600    0.002413
  H    -0.889558   -0.513589    0.002412
  Br   -0.000005   -0.000006    2.284487
  Cl    0.000002    0.000001   -2.514936

----------------------------
CARTESIAN COORDINATES (A.U.)
----------------------------
  NO LB    ZA    FRAG    MASS        X           Y           Z
   0 C   6.0000    0    12.011    0.000001   -0.000006    0.642357
   1 H   1.0000    0     1.008   -0.000006    1.941090    0.004559
   2 H   1.0000    0     1.008    1.681033   -0.970564    0.004559
   3 H   1.0000    0     1.008   -1.681020   -0.970542    0.004558
   4 Br 35.0000    0    79.900   -0.000010   -0.000012    4.317054
   5 Cl 17.0000    0    35.453    0.000003    0.000001   -4.752540

      -----------------------------------------------------------      
     |                   =====================                   |     
     |                           x T B                           |     
     |                   =====================                   |     
     |                         S. Grimme                         |     
     |          Mulliken Center for Theoretical Chemistry        |     
     |                    University of Bonn                     |     
      -----------------------------------------------------------      

   * xtb version 6.7.1 (edcfbbe) compiled by 'albert@albert-system' on 2024-07-22

   xtb is free software: you can redistribute it and/or modify it under
   the terms of the GNU Lesser General Public License as published by
   the Free Software Foundation, either version 3 of the License, or
   (at your option) any later version.
   
   xtb is distributed in the hope that it will be useful,
   but WITHOUT ANY WARRANTY; without even the implied warranty of
   MERCHANTABILITY or FITNESS FOR A PARTICULAR PURPOSE.  See the
   GNU Lesser General Public License for more details.
   
   Cite this work as:
   * C. Bannwarth, E. Caldeweyher, S. Ehlert, A. Hansen, P. Pracht,
     J. Seibert, S. Spicher, S. Grimme, WIREs Comput. Mol. Sci., 2020, 11,
     e01493. DOI: 10.1002/wcms.1493
   
   for GFN2-xTB:
   * C. Bannwarth, S. Ehlert and S. Grimme., J. Chem. Theory Comput., 2019,
     15, 1652-1671. DOI: 10.1021/acs.jctc.8b01176
   for GFN1-xTB:
   * S. Grimme, C. Bannwarth, P. Shushkov, J. Chem. Theory Comput., 2017,
     13, 1989-2009. DOI: 10.1021/acs.jctc.7b00118
   for GFN0-xTB:
   * P. Pracht, E. Caldeweyher, S. Ehlert, S. Grimme, ChemRxiv, 2019, preprint.
     DOI: 10.26434/chemrxiv.8326202.v1
   for GFN-FF:
   * S. Spicher and S. Grimme, Angew. Chem. Int. Ed., 2020, 59, 15665-15673.
     DOI: 10.1002/anie.202004239
   
   for ALPB and GBSA implicit solvation:
   * S. Ehlert, M. Stahn, S. Spicher, S. Grimme, J. Chem. Theory Comput.,
     2021, 17, 4250-4261. DOI: 10.1021/acs.jctc.1c00471
   
   for ddCOSMO and CPCM-X implicit solvation:
   * M. Stahn, S. Ehlert, S. Grimme, J. Phys. Chem. A,
     2023, XX, XXXX-XXXX. DOI: 10.1021/acs.jpca.3c04382
   
   for DFT-D4:
   * E. Caldeweyher, C. Bannwarth and S. Grimme, J. Chem. Phys., 2017,
     147, 034112. DOI: 10.1063/1.4993215
   * E. Caldeweyher, S. Ehlert, A. Hansen, H. Neugebauer, S. Spicher,
     C. Bannwarth and S. Grimme, J. Chem. Phys., 2019, 150, 154122.
     DOI: 10.1063/1.5090222
   * E. Caldeweyher, J.-M. Mewes, S. Ehlert and S. Grimme, Phys. Chem. Chem. Phys.
     2020, 22, 8499-8512. DOI: 10.1039/D0CP00502A
   
   for sTDA-xTB:
   * S. Grimme and C. Bannwarth, J. Chem. Phys., 2016, 145, 054103.
     DOI: 10.1063/1.4959605
   
   in the mass-spec context:
   * V. Asgeirsson, C. Bauer and S. Grimme, Chem. Sci., 2017, 8, 4879.
     DOI: 10.1039/c7sc00601b
   * J. Koopman and S. Grimme, ACS Omega 2019, 4, 12, 15120-15133.
     DOI: 10.1021/acsomega.9b02011
   
   for metadynamics refer to:
   * S. Grimme, J. Chem. Theory Comput., 2019, 155, 2847-2862
     DOI: 10.1021/acs.jctc.9b00143
   
   for SPH calculations refer to:
   * S. Spicher and S. Grimme, J. Chem. Theory Comput., 2021, 17, 1701-1714
     DOI: 10.1021/acs.jctc.0c01306
   
   for ONIOM refer to:
   * C. Plett, A. Katbashev, S. Ehlert, S. Grimme, M. Bursch,
     Phys. Chem. Chem. Phys., 2023, 25, 17860-17868. DOI: 10.1039/D3CP02178E
   
   for DIPRO refer to:
   * J. Kohn, N. Gildemeister, S. Grimme, D. Fazzi, A. Hansen,
     J. Chem. Phys., 2023, just accepted.
   
   for PTB refer to:
   * S. Grimme, M. Mueller, A. Hansen, J. Chem. Phys., 2023, 158, 124111.
     DOI: 10.1063/5.0137838
   
   with help from (in alphabetical order)
   P. Atkinson, C. Bannwarth, F. Bohle, G. Brandenburg, E. Caldeweyher
   M. Checinski, S. Dohm, S. Ehlert, S. Ehrlich, I. Gerasimov, C. Hölzer
   A. Katbashev, J. Kohn, J. Koopman, C. Lavigne, S. Lehtola, F. März, M. Müller,
   F. Musil, H. Neugebauer, J. Pisarek, C. Plett, P. Pracht, F. Pultar,
   J. Seibert, P. Shushkov, S. Spicher, M. Stahn, M. Steiner, T. Strunk,
   J. Stückrath, T. Rose, and J. Unsleber
   
 * started run on 2026/03/16 at 14:18:37.008     
   ID    Z sym.   atoms
    1    6 C      1
    2    1 H      2-4
    3   35 Br     5
    4   17 Cl     6

           -------------------------------------------------
          |                Calculation Setup                |
           -------------------------------------------------

          program call               : /software/orca-6.1.0-el8-x86_64/bin/otool_xtb product_optfreq_XTB.xyz --grad -c -1 -u 0 -P 8 --namespace product_optfreq --input product_optfreq_XTB.input.tmp --acc 0.200000
          hostname                   : midway3-login4.rcc.local
          calculation namespace      : product_optfreq
          coordinate file            : product_optfreq_XTB.xyz
          omp threads                :                     8


molecular fragmentation (1/2 indicates fragments):
111112
# atoms in fragment 1/2:     5     1
 fragment masses (1/2) :       94.94       35.45
CMA distance (Bohr)    :   8.467
constraining FC (au)   :  0.0500

           -------------------------------------------------
          |                 G F N 2 - x T B                 |
           -------------------------------------------------

        Reference                      10.1021/acs.jctc.8b01176
      * Hamiltonian:
        H0-scaling (s, p, d)           1.850000    2.230000    2.230000
        zeta-weighting                 0.500000
      * Dispersion:
        s8                             2.700000
        a1                             0.520000
        a2                             5.000000
        s9                             5.000000
      * Repulsion:
        kExp                           1.500000    1.000000
        rExp                           1.000000
      * Coulomb:
        alpha                          2.000000
        third order                    shell-resolved
        anisotropic                    true
        a3                             3.000000
        a5                             4.000000
        cn-shift                       1.200000
        cn-exp                         4.000000
        max-rad                        5.000000

q/qsh data taken from xtbrestart
CAMM data taken from xtbrestart

          ...................................................
          :                      SETUP                      :
          :.................................................:
          :  # basis functions                  27          :
          :  # atomic orbitals                  25          :
          :  # shells                           11          :
          :  # electrons                        22          :
          :  max. iterations                   250          :
          :  Hamiltonian                  GFN2-xTB          :
          :  restarted?                       true          :
          :  GBSA solvation                  false          :
          :  PC potential                    false          :
          :  electronic temp.          300.0000000     K    :
          :  accuracy                    0.2000000          :
          :  -> integral cutoff          0.3198970E+02      :
          :  -> integral neglect         0.2000000E-08      :
          :  -> SCF convergence          0.2000000E-06 Eh   :
          :  -> wf. convergence          0.2000000E-04 e    :
          :  Broyden damping             0.4000000          :
          :  net charge                         -1          :
          :  unpaired electrons                  0          :
          ...................................................

 iter      E             dE          RMSdq      gap      omega  full diag
   1    -12.6126448 -0.126126E+02  0.499E-02    3.12       0.0  T
   2    -12.6126470 -0.213942E-05  0.211E-02    3.11       1.9  T
   3    -12.6126472 -0.275985E-06  0.118E-02    3.11       3.4  T
   4    -12.6126473 -0.379129E-07  0.580E-03    3.10       7.0  T
   5    -12.6126473 -0.196170E-07  0.205E-03    3.10      19.9  T
   6    -12.6126473 -0.555874E-08  0.809E-04    3.11      50.5  T
   7    -12.6126473 -0.409823E-09  0.899E-05    3.11     453.9  T
   8    -12.6126473 -0.516032E-11  0.217E-05    3.11    1877.9  T

   *** convergence criteria satisfied after 8 iterations ***

         #    Occupation            Energy/Eh            Energy/eV
      -------------------------------------------------------------
         1        2.0000           -0.7994676             -21.7546
       ...           ...                  ...                  ...
         5        2.0000           -0.3709916             -10.0952
         6        2.0000           -0.3592350              -9.7753
         7        2.0000           -0.2879623              -7.8359
         8        2.0000           -0.2879622              -7.8358
         9        2.0000           -0.1998243              -5.4375
        10        2.0000           -0.1988863              -5.4120
        11        2.0000           -0.1988863              -5.4120 (HOMO)
        12                         -0.0847698              -2.3067 (LUMO)
        13                          0.1614105               4.3922
        14                          0.1614106               4.3922
        15                          0.1793629               4.8807
        16                          0.1793631               4.8807
       ...                                ...                  ...
        25                          0.5142697              13.9940
      -------------------------------------------------------------
                  HL-Gap            0.1141165 Eh            3.1053 eV
             Fermi-level           -0.1418280 Eh           -3.8593 eV

 SCC (total)                   0 d,  0 h,  0 min,  0.043 sec
 SCC setup                      ...        0 min,  0.000 sec (  0.457%)
 Dispersion                     ...        0 min,  0.000 sec (  0.124%)
 classical contributions        ...        0 min,  0.000 sec (  0.063%)
 integral evaluation            ...        0 min,  0.041 sec ( 94.098%)
 iterations                     ...        0 min,  0.001 sec (  3.250%)
 molecular gradient             ...        0 min,  0.001 sec (  1.606%)
 printout                       ...        0 min,  0.000 sec (  0.359%)

         :::::::::::::::::::::::::::::::::::::::::::::::::::::
         ::                     SUMMARY                     ::
         :::::::::::::::::::::::::::::::::::::::::::::::::::::
         :: total energy             -12.553579172943 Eh    ::
         :: gradient norm              0.000683518727 Eh/a0 ::
         :: HOMO-LUMO gap              3.105268211549 eV    ::
         ::.................................................::
         :: SCC energy               -12.612647954259 Eh    ::
         :: -> isotropic ES            0.150602361114 Eh    ::
         :: -> anisotropic ES         -0.009643124812 Eh    ::
         :: -> anisotropic XC         -0.010457214691 Eh    ::
         :: -> dispersion             -0.002830653390 Eh    ::
         :: repulsion energy           0.059068781317 Eh    ::
         :: add. restraining           0.000000000000 Eh    ::
         :: total charge              -1.000000000000 e     ::
         :::::::::::::::::::::::::::::::::::::::::::::::::::::


Property printout bound to 'properties.out'

           -------------------------------------------------
          | TOTAL ENERGY              -12.553579172943 Eh   |
          | GRADIENT NORM               0.000683518727 Eh/α |
          | HOMO-LUMO GAP               3.105268211549 eV   |
           -------------------------------------------------

------------------------------------------------------------------------
 * finished run on 2026/03/16 at 14:18:37.064     
------------------------------------------------------------------------
 total:
 * wall-time:     0 d,  0 h,  0 min,  0.055 sec
 *  cpu-time:     0 d,  0 h,  0 min,  0.219 sec
 * ratio c/w:     3.966 speedup
 SCF:
 * wall-time:     0 d,  0 h,  0 min,  0.044 sec
 *  cpu-time:     0 d,  0 h,  0 min,  0.150 sec
 * ratio c/w:     3.426 speedup


-------------------------   --------------------
FINAL SINGLE POINT ENERGY       -12.553579172940
-------------------------   --------------------


-------------
DIPOLE MOMENT
-------------
                                X             Y             Z
Total Dipole Moment    :      0.00000       0.00000       2.16800
                        -----------------------------------------
Magnitude (a.u.)       :      2.16800
Magnitude (Debye)      :      5.51062


------------------
CARTESIAN GRADIENT
------------------

   1   C   :   -0.000003910   -0.000002338   -0.000518991
   2   H   :   -0.000000924   -0.000030799   -0.000003342
   3   H   :   -0.000027249    0.000014640   -0.000003295
   4   H   :    0.000032207    0.000018569   -0.000001461
   5   Br  :   -0.000000131   -0.000000080    0.000430279
   6   Cl  :    0.000000007    0.000000008    0.000096809

Difference to translation invariance:
           :    0.0000000000    0.0000000000   -0.0000000000

Difference to rotation invariance:
           :    0.0000000014   -0.0000000015   -0.0000000000

Norm of the Cartesian gradient     ...    0.0006835187
RMS gradient                       ...    0.0001611069
MAX gradient                       ...    0.0005189914
------------------------------------------------------------------------------
                         ORCA GEOMETRY RELAXATION STEP
------------------------------------------------------------------------------

Reading the OPT-File                    .... done
Getting information on internals        .... done
Copying old internal coords+grads       .... done
Making the new internal coordinates     .... (2022 redundants) done
Validating the new internal coordinates .... (2022 redundants) done
Calculating the B-matrix                .... done
Calculating the G,G- and P matrices     .... done
Transforming gradient to internals      .... done
Projecting the internal gradient        .... done
Number of atoms                         ....   6
Number of internal coordinates          ....  17
Current Energy                          ....   -12.553579173 Eh
Current gradient norm                   ....     0.000683519 Eh/bohr
Maximum allowed component of the step   ....  0.300
Current trust radius                    ....  0.300
Updating the Hessian (BFGS)             .... done
Forming the augmented Hessian           .... done
Diagonalizing the augmented Hessian     .... done
Last element of RFO vector              ....  0.999865967
Lowest eigenvalues of augmented Hessian:
 -0.000001738  0.004037190  0.045534129  0.045538313  0.196563630
Length of the computed step             ....  0.016374394
The final length of the internal step   ....  0.016374394
Converting the step to Cartesian space:
 Initial RMS(Int)=    0.0039713739
Transforming coordinates:
 Iter   0:  RMS(Cart)=    0.0018064071 RMS(Int)=    0.0039717104
done
Storing new coordinates                 .... done
The predicted energy change is          ....    -0.000000869
Previously predicted energy change      ....    -0.000018778
Actually observed energy change         ....    -0.000021162
Ratio of predicted to observed change   ....     1.126969048
New trust radius                        ....     0.450000000

                                .--------------------.
          ----------------------|Geometry convergence|-------------------------
          Item                value                   Tolerance       Converged
          ---------------------------------------------------------------------
          Energy change      -0.0000211617            0.0000050000      NO
          RMS gradient        0.0001059322            0.0001000000      NO
          MAX gradient        0.0004302795            0.0003000000      NO
          RMS step            0.0039713739            0.0020000000      NO
          MAX step            0.0086722479            0.0040000000      NO
          -------------------------------------------------------------------------
          ........................................................
          Max(Bonds)      0.0046      Max(Angles)    0.00
          Max(Dihed)        0.00      Max(Improp)    0.00
          ---------------------------------------------------------------------

The optimization has not yet converged - more geometry cycles are needed


    ---------------------------------------------------------------------------
                         Redundant Internal Coordinates
                            (Angstroem and degrees)

        Definition                    Value    dE/dq     Step     New-Value
    ----------------------------------------------------------------------------
     1. B(H   1,C   0)                1.0812 -0.000027  0.0001    1.0813   
     2. B(H   2,C   0)                1.0812 -0.000027  0.0001    1.0813   
     3. B(H   3,C   0)                1.0812 -0.000033  0.0001    1.0813   
     4. B(Br  4,C   0)                1.9446  0.000430 -0.0011    1.9435   
     5. B(Cl  5,H   1)                2.7188 -0.000022  0.0042    2.7230   
     6. B(Cl  5,H   2)                2.7189 -0.000022  0.0042    2.7230   
     7. B(Cl  5,H   3)                2.7188 -0.000022  0.0042    2.7230   
     8. B(Cl  5,C   0)                2.8549 -0.000036  0.0046    2.8594   
     9. A(H   1,C   0,H   3)          110.72  0.000005   -0.00    110.72   
    10. A(H   2,C   0,H   3)          110.72  0.000005   -0.00    110.72   
    11. A(H   1,C   0,Br  4)          108.19 -0.000006    0.00    108.19   
    12. A(H   2,C   0,Br  4)          108.19 -0.000006    0.00    108.19   
    13. A(H   3,C   0,Br  4)          108.19 -0.000007    0.00    108.19   
    14. A(H   1,C   0,Cl  5)           71.81  0.000006   -0.00     71.81   
    15. A(H   2,C   0,Cl  5)           71.81  0.000006   -0.00     71.81   
    16. A(H   3,C   0,Cl  5)           71.81  0.000007   -0.00     71.81   
    17. A(H   1,C   0,H   2)          110.72  0.000008   -0.00    110.72   
    ----------------------------------------------------------------------------

Geometry step timings:
Preparation and reading OPT file:      0.000 s ( 3.121 %)
Internal coordinates            :      0.000 s ( 4.184 %)
B/P matrices and projection     :      0.000 s (14.752 %)
Hessian update/contruction      :      0.000 s (29.362 %)
Making the step                 :      0.000 s ( 7.589 %)
Converting the step to Cartesian:      0.000 s ( 2.624 %)
Storing new data                :      0.000 s ( 8.085 %)
Checking convergence            :      0.000 s ( 7.447 %)
Final printing                  :      0.000 s (22.766 %)
Total time                      :      0.001 s

Time for energy+gradient        :      0.066 s
Time for complete geometry iter :      0.069 s

         *************************************************************
         *                GEOMETRY OPTIMIZATION CYCLE   4            *
         *************************************************************
---------------------------------
CARTESIAN COORDINATES (ANGSTROEM)
---------------------------------
  C    -0.000001   -0.000004    0.340906
  H     0.000001    1.027226    0.003323
  H     0.889606   -0.513619    0.003323
  H    -0.889605   -0.513616    0.003318
  Br   -0.000003   -0.000005    2.284377
  Cl    0.000002    0.000001   -2.518538

----------------------------
CARTESIAN COORDINATES (A.U.)
----------------------------
  NO LB    ZA    FRAG    MASS        X           Y           Z
   0 C   6.0000    0    12.011   -0.000002   -0.000008    0.644219
   1 H   1.0000    0     1.008    0.000002    1.941177    0.006279
   2 H   1.0000    0     1.008    1.681113   -0.970600    0.006279
   3 H   1.0000    0     1.008   -1.681110   -0.970593    0.006271
   4 Br 35.0000    0    79.900   -0.000005   -0.000010    4.316846
   5 Cl 17.0000    0    35.453    0.000004    0.000002   -4.759347

      -----------------------------------------------------------      
     |                   =====================                   |     
     |                           x T B                           |     
     |                   =====================                   |     
     |                         S. Grimme                         |     
     |          Mulliken Center for Theoretical Chemistry        |     
     |                    University of Bonn                     |     
      -----------------------------------------------------------      

   * xtb version 6.7.1 (edcfbbe) compiled by 'albert@albert-system' on 2024-07-22

   xtb is free software: you can redistribute it and/or modify it under
   the terms of the GNU Lesser General Public License as published by
   the Free Software Foundation, either version 3 of the License, or
   (at your option) any later version.
   
   xtb is distributed in the hope that it will be useful,
[...]
        25                          0.5160716              14.0430
      -------------------------------------------------------------
                  HL-Gap            0.1140634 Eh            3.1038 eV
             Fermi-level           -0.1417174 Eh           -3.8563 eV

 SCC (total)                   0 d,  0 h,  0 min,  0.046 sec
 SCC setup                      ...        0 min,  0.000 sec (  0.405%)
 Dispersion                     ...        0 min,  0.000 sec (  0.131%)
 classical contributions        ...        0 min,  0.000 sec (  0.057%)
 integral evaluation            ...        0 min,  0.043 sec ( 94.920%)
 iterations                     ...        0 min,  0.001 sec (  2.524%)
 molecular gradient             ...        0 min,  0.001 sec (  1.505%)
 printout                       ...        0 min,  0.000 sec (  0.418%)

         :::::::::::::::::::::::::::::::::::::::::::::::::::::
         ::                     SUMMARY                     ::
         :::::::::::::::::::::::::::::::::::::::::::::::::::::
         :: total energy             -12.553580454171 Eh    ::
         :: gradient norm              0.000240867636 Eh/a0 ::
         :: HOMO-LUMO gap              3.103824456110 eV    ::
         ::.................................................::
         :: SCC energy               -12.612670026748 Eh    ::
         :: -> isotropic ES            0.150721224752 Eh    ::
         :: -> anisotropic ES         -0.009653699829 Eh    ::
         :: -> anisotropic XC         -0.010550361096 Eh    ::
         :: -> dispersion             -0.002828994257 Eh    ::
         :: repulsion energy           0.059089572577 Eh    ::
         :: add. restraining           0.000000000000 Eh    ::
         :: total charge              -1.000000000000 e     ::
         :::::::::::::::::::::::::::::::::::::::::::::::::::::

           ------------------------------------------------- 
          |                Numerical Hessian                |
           ------------------------------------------------- 
step length          :   0.00500
SCC accuracy         :   0.30000
Hessian scale factor :   1.00000
frozen atoms in %    :   0.00000    0
RMS gradient         :   0.00024
estimated CPU  time      0.00 min
estimated wall time      0.00 min

writing file <hessian>.

 projected vibrational frequencies (cm⁻¹)
eigval :       -0.00    -0.00     0.00     0.00     0.00     0.00
eigval :       87.31    87.42   117.68   524.56   952.08   952.10
eigval :     1295.25  1437.36  1437.46  3083.27  3099.67  3099.67

Property printout bound to 'properties.out'
Molecule has the following symmetry elements: (C3) 3*(sigma) 
It seems to be the C3v point group

           -------------------------------------------------
          | TOTAL ENERGY              -12.553580454171 Eh   |
          | TOTAL ENTHALPY            -12.510418001310 Eh   |
          | TOTAL FREE ENERGY         -12.546043537638 Eh   |
          | GRADIENT NORM               0.000240861763 Eh/α |
          | HOMO-LUMO GAP               3.103824538282 eV   |
           -------------------------------------------------

------------------------------------------------------------------------
 * finished run on 2026/03/16 at 14:18:37.285     
------------------------------------------------------------------------
 total:
 * wall-time:     0 d,  0 h,  0 min,  0.080 sec
 *  cpu-time:     0 d,  0 h,  0 min,  0.400 sec
 * ratio c/w:     5.014 speedup
 SCF:
 * wall-time:     0 d,  0 h,  0 min,  0.046 sec
 *  cpu-time:     0 d,  0 h,  0 min,  0.156 sec
 * ratio c/w:     3.383 speedup
 analytical hessian:
 * wall-time:     0 d,  0 h,  0 min,  0.021 sec
 *  cpu-time:     0 d,  0 h,  0 min,  0.166 sec
 * ratio c/w:     7.922 speedup


-------------------------   --------------------
FINAL SINGLE POINT ENERGY       -12.553580454170
-------------------------   --------------------


-------------
DIPOLE MOMENT
-------------
                                X             Y             Z
Total Dipole Moment    :      0.00000       0.00000       2.18100
                        -----------------------------------------
Magnitude (a.u.)       :      2.18100
Magnitude (Debye)      :      5.54366


-----------------------
VIBRATIONAL FREQUENCIES
-----------------------

Scaling factor for frequencies =  1.000000000  (already applied!)

     0:       0.00 cm**-1
     1:       0.00 cm**-1
     2:       0.00 cm**-1
     3:       0.00 cm**-1
     4:       0.00 cm**-1
     5:       0.00 cm**-1
     6:      87.31 cm**-1
     7:      87.42 cm**-1
     8:     117.68 cm**-1
     9:     524.55 cm**-1
    10:     952.05 cm**-1
    11:     952.07 cm**-1
    12:    1295.22 cm**-1
    13:    1437.32 cm**-1
    14:    1437.42 cm**-1
    15:    3083.18 cm**-1
    16:    3099.58 cm**-1
    17:    3099.59 cm**-1


------------
NORMAL MODES
------------

These modes are the Cartesian displacements weighted by the diagonal matrix
M(i,i)=1/sqrt(m[i]) where m[i] is the mass of the displaced atom
Thus, these vectors are normalized but *not* orthogonal

                  0          1          2          3          4          5    
      0       0.000000   0.000000   0.000000   0.000000   0.000000   0.000000
      1       0.000000   0.000000   0.000000   0.000000   0.000000   0.000000
      2       0.000000   0.000000   0.000000   0.000000   0.000000   0.000000
      3       0.000000   0.000000   0.000000   0.000000   0.000000   0.000000
      4       0.000000   0.000000   0.000000   0.000000   0.000000   0.000000
      5       0.000000   0.000000   0.000000   0.000000   0.000000   0.000000
      6       0.000000   0.000000   0.000000   0.000000   0.000000   0.000000
      7       0.000000   0.000000   0.000000   0.000000   0.000000   0.000000
      8       0.000000   0.000000   0.000000   0.000000   0.000000   0.000000
      9       0.000000   0.000000   0.000000   0.000000   0.000000   0.000000
     10       0.000000   0.000000   0.000000   0.000000   0.000000   0.000000
     11       0.000000   0.000000   0.000000   0.000000   0.000000   0.000000
     12       0.000000   0.000000   0.000000   0.000000   0.000000   0.000000
     13       0.000000   0.000000   0.000000   0.000000   0.000000   0.000000
     14       0.000000   0.000000   0.000000   0.000000   0.000000   0.000000
     15       0.000000   0.000000   0.000000   0.000000   0.000000   0.000000
     16       0.000000   0.000000   0.000000   0.000000   0.000000   0.000000
     17       0.000000   0.000000   0.000000   0.000000   0.000000   0.000000
                  6          7          8          9         10         11    
      0      -0.414804   0.000435   0.000007  -0.000001  -0.110432  -0.002311
      1       0.000435   0.414825  -0.000754   0.000060  -0.002311   0.110432
      2       0.000000  -0.000022  -0.298827  -0.637946   0.000000   0.000009
      3      -0.488945   0.000514   0.000008  -0.000000   0.249982   0.005233
      4       0.000521   0.497310   0.007838   0.044818   0.003286  -0.157069
      5       0.000256   0.244981  -0.252263  -0.437619   0.015818  -0.755633
      6      -0.495196  -0.003091   0.007594   0.038727   0.181139  -0.036511
      7       0.004124   0.490999  -0.005230  -0.022403   0.044980  -0.225958
      8      -0.212324  -0.122318  -0.251611  -0.437602   0.646515   0.391531
      9      -0.495188   0.004128  -0.007577  -0.038728   0.179452   0.044057
     10      -0.003095   0.491008  -0.005230  -0.022403  -0.035487  -0.227642
     11       0.212069  -0.122760  -0.251617  -0.437605  -0.662336   0.364132
     12       0.045945  -0.000048  -0.000000   0.000000   0.008899   0.000186
     13      -0.000048  -0.045946   0.000084  -0.000006   0.000186  -0.008898
     14      -0.000001  -0.000063  -0.298113   0.111836  -0.000000  -0.000002
     15       0.079046  -0.000083  -0.000002   0.000000  -0.000002  -0.000000
     16      -0.000083  -0.079048   0.000142  -0.000008  -0.000000   0.000003
     17       0.000002   0.000153   0.794571   0.001409   0.000000   0.000001
                 12         13         14         15         16         17    
      0      -0.000000  -0.000378   0.070256   0.000000  -0.004960  -0.091436
      1       0.000003   0.070238   0.000378   0.000080   0.091439  -0.004961
      2      -0.096545   0.000010  -0.000000   0.038296  -0.000034   0.000002
      3       0.000003   0.004019  -0.746084   0.000001  -0.002228  -0.040948
      4       0.186692   0.125477   0.000681   0.552781  -0.770954   0.041831
      5       0.543483   0.301657   0.001626  -0.162781   0.252836  -0.013718
      6       0.161665  -0.376958  -0.094428   0.479539   0.381709   0.548567
      7      -0.093360  -0.526103  -0.380253  -0.276897  -0.180737  -0.342582
      8       0.543470  -0.152231   0.260384  -0.163103  -0.138073  -0.211989
      9      -0.161663   0.377947  -0.090359  -0.479543  -0.320117   0.586648
     10      -0.093361  -0.530173   0.374564  -0.276898  -0.142607   0.360117
     11       0.543469  -0.149417  -0.262006  -0.163103  -0.114326   0.225681
     12       0.000000  -0.000006   0.001099  -0.000000  -0.000005  -0.000088
     13      -0.000000   0.001100   0.000006   0.000000   0.000087  -0.000005
     14      -0.005119  -0.000002  -0.000000   0.000315  -0.000000   0.000000
     15      -0.000000  -0.000001   0.000188   0.000000   0.000003   0.000062
     16      -0.000000   0.000189   0.000001   0.000001  -0.000062   0.000003
     17      -0.002112   0.000001   0.000000   0.000220  -0.000000   0.000000


The first frequency considered to be a vibration is 6
The total number of vibrations considered is 12


--------------------------
THERMOCHEMISTRY AT 298.15K
--------------------------

Temperature         ...   298.15 K
Pressure            ...     1.00 atm
Total Mass          ...   130.39 AMU
Quasi RRHO          ...     True
Cut-Off Frequency   ...     1.00 cm^-1

Throughout the following assumptions are being made:
  (1) The electronic state is orbitally nondegenerate
  (2) There are no thermally accessible electronically excited states
  (3) Hindered rotations indicated by low frequency modes are not
      treated as such but are treated as vibrations and this may
      cause some error
  (4) All equations used are the standard statistical mechanics
      equations for an ideal gas
  (5) All vibrations are strictly harmonic

freq.      87.31  E(vib)   ...       0.48 
freq.      87.42  E(vib)   ...       0.48 
freq.     117.68  E(vib)   ...       0.44 
freq.     524.55  E(vib)   ...       0.13 
freq.     952.05  E(vib)   ...       0.03 
freq.     952.07  E(vib)   ...       0.03 
freq.    1295.22  E(vib)   ...       0.01 
freq.    1437.32  E(vib)   ...       0.00 
freq.    1437.42  E(vib)   ...       0.00 
freq.    3083.18  E(vib)   ...       0.00 
freq.    3099.58  E(vib)   ...       0.00 
freq.    3099.59  E(vib)   ...       0.00 

------------
INNER ENERGY
------------

The inner energy is: U= E(el) + E(ZPE) + E(vib) + E(rot) + E(trans)
    E(el)   - is the total energy from the electronic structure calculation
              = E(kin-el) + E(nuc-el) + E(el-el) + E(nuc-nuc)
    E(ZPE)  - the the zero temperature vibrational energy from the frequency calculation
    E(vib)  - the the finite temperature correction to E(ZPE) due to population
              of excited vibrational states
    E(rot)  - is the rotational thermal energy
    E(trans)- is the translational thermal energy

Summary of contributions to the inner energy U:
Electronic energy                ...    -12.55358045 Eh
Zero point energy                ...      0.03684570 Eh      23.12 kcal/mol
Thermal vibrational correction   ...      0.00253897 Eh       1.59 kcal/mol
Thermal rotational correction    ...      0.00141627 Eh       0.89 kcal/mol
Thermal translational correction ...      0.00141627 Eh       0.89 kcal/mol
-----------------------------------------------------------------------
Total thermal energy                    -12.51136325 Eh


Summary of corrections to the electronic energy:
(perhaps to be used in another calculation)
Total thermal correction                  0.00537151 Eh       3.37 kcal/mol
Non-thermal (ZPE) correction              0.03684570 Eh      23.12 kcal/mol
-----------------------------------------------------------------------
Total correction                          0.04221721 Eh      26.49 kcal/mol


--------
ENTHALPY
--------

The enthalpy is H = U + kB*T
                kB is Boltzmann's constant
Total thermal energy              ...    -12.51136325 Eh 
Thermal Enthalpy correction       ...      0.00094421 Eh       0.59 kcal/mol
-----------------------------------------------------------------------
Total Enthalpy                    ...    -12.51041904 Eh


WARNING (ORCA/SYM): The number of Z matrix atoms does not agree with
the number of centers in the basis set. The point group will therefore
be determined without considering basis set information.


Note: Rotational entropy computed according to Herzberg 
Infrared and Raman Spectra, Chapter V,1, Van Nostrand Reinhold, 1945 
Point Group:  C3v, Symmetry Number:   3  
Rotational constants in cm-1:     5.283198     0.029460     0.029460 

Vibrational entropy computed according to the QRRHO of S. Grimme
Chem.Eur.J. 2012 18 9955 using a reference frequency of 100.0 cm-1


-------
ENTROPY
-------

The entropy contributions are T*S = T*(S(el)+S(vib)+S(rot)+S(trans))
     S(el)   - electronic entropy
     S(vib)  - vibrational entropy
     S(rot)  - rotational entropy
     S(trans)- translational entropy
The entropies will be listed as multiplied by the temperature to get
units of energy

Electronic entropy                ...      0.00000000 Eh      0.00 kcal/mol
Vibrational entropy               ...      0.00493489 Eh      3.10 kcal/mol
Rotational entropy                ...      0.01101570 Eh      6.91 kcal/mol
Translational entropy             ...      0.01924704 Eh     12.08 kcal/mol
-----------------------------------------------------------------------
Final entropy term                ...      0.03519763 Eh     22.09 kcal/mol

In case the symmetry of your molecule has not been determined correctly
or in case you have a reason to use a different symmetry number we print 
out the resulting rotational entropy values for sn=1,12:

 non-linear molecules -----------------------------------
|  sn= 1 | S(rot)=       0.01205299 Eh      7.56 kcal/mol|
|  sn= 2 | S(rot)=       0.01139853 Eh      7.15 kcal/mol|
|  sn= 3 | S(rot)=       0.01101570 Eh      6.91 kcal/mol|
|  sn= 4 | S(rot)=       0.01074407 Eh      6.74 kcal/mol|
|  sn= 5 | S(rot)=       0.01053338 Eh      6.61 kcal/mol|
|  sn= 6 | S(rot)=       0.01036124 Eh      6.50 kcal/mol|
|  sn= 7 | S(rot)=       0.01021569 Eh      6.41 kcal/mol|
|  sn= 8 | S(rot)=       0.01008962 Eh      6.33 kcal/mol|
|  sn= 9 | S(rot)=       0.00997841 Eh      6.26 kcal/mol|
|  sn=10 | S(rot)=       0.00987893 Eh      6.20 kcal/mol|
|  sn=11 | S(rot)=       0.00978894 Eh      6.14 kcal/mol|
|  sn=12 | S(rot)=       0.00970678 Eh      6.09 kcal/mol|
 linear molecules ---------------------------------------
|  Dinfh | S(rot)=       0.00865379 Eh      5.43 kcal/mol|
|  Cinfv | S(rot)=       0.00930825 Eh      5.84 kcal/mol|
 --------------------------------------------------------


-------------------
GIBBS FREE ENERGY
-------------------

The Gibbs free energy is G = H - T*S

Total enthalpy                    ...    -12.51041904 Eh 
Total entropy correction          ...     -0.03519763 Eh    -22.09 kcal/mol
-----------------------------------------------------------------------
Final Gibbs free energy         ...    -12.54561667 Eh

For completeness - the Gibbs free energy minus the electronic energy
G-E(el)                           ...      0.00796378 Eh      5.00 kcal/mol


--------------------------------
SUGGESTED CITATIONS FOR THIS RUN
--------------------------------

Below you find a list of papers that are relevant to this ORCA run
We neither can nor want to force you to cite these papers, but we appreciate if you do
You receive ORCA, which is the product of decades of hard work by many enthusiastic individuals, for free
The only thing we kindly ask in return is that you cite our papers,
We deeply appreciate it, if you show your appreciation for ORCA by not just citing the generic ORCA reference.

Please note that relegating all ORCA citations to the supporting information does *not* help us.
SI sections are not indexed - citations you put there will not count into any citation statistics
But we need these citations in order to attract the funding resources that allow us to do what we are doing

Therefore, if you are a happy ORCA user, please consider citing a few of the papers listed below in the main body of your paper

In addition to the list printed below, the program has created the file product_optfreq.bibtex that contains the list in bibtex format
You can import this file easily into all common literature databanks and citation aid programs


List of essential papers. We consider these as the minimum necessary citations

  1. Bannwarth, C.; Ehlert, S.; Grimme, S.
     GFN2-xTB—An Accurate and Broadly Parametrized Self-Consistent Tight-Binding Quantum Chemical Method with Multipole Electrostatics and Density-Dependent Dispersion Contributions
     J. Chem. Theory Comput. 2019 15(3), 1652-1671
     doi.org/10.1021/acs.jctc.8b01176
  2. Neese, F.
     Software update: the ORCA program system, version 6.0
     WIRES Comput. Molec. Sci. 2025 15(1), e70019
     doi.org/10.1002/wcms.7019

List of papers to cite with high priority. The work reported in these papers was absolutely
necessary for this run to complete.
Our perspective: the developers of density functionals and basis sets usually get cited in chemistry papers
Good! But without the algorithms to do something with them, the functionals or basis sets would not do anything.
Hence, in our opinion, the algorithm design and method developments papers are equally worthy of getting cited

  1. Bykov, D.; Petrenko, T.; Izsak, R.; Kossmann, S.; Becker, U.; Valeev, E.; Neese, F.
     Efficient implementation of the analytic second derivatives of Hartree-Fock and hybrid DFT energies: a detailed analysis of different approximations
     Molec. Phys. 2015 113 , 1961-1977
     doi.org/10.1080/00268976.2015.1025114
  2. Bannwarth, C.; Caldeweyher, E.; Ehlert, S.; Hansen, A.; Pracht, P.; Seibert, J.; Spicher, S.; Grimme, S.
     Extended tight-binding quantum chemistry methods
     WIRES Comput. Molec. Sci. 2020 11(2), e1493
     doi.org/10.1002/wcms.1493

List of suggested additional citations. These are papers that are important in the 'surrounding' of 
of this run, or papers that preceded the highly important papers. If you like your results we are grateful for a citation.

  1. Neese, F.
     The ORCA program system
     WIRES Comput. Molec. Sci. 2012 2(1), 73-78
     doi.org/10.1002/wcms.81
  2. Neese, F.
     Software update: the ORCA program system, version 4.0
     WIRES Comput. Molec. Sci. 2018 8(1), 1-6
     doi.org/10.1002/wcms.1327
  3. Neese, F.; Wennmohs, F.; Becker, U.; Riplinger, C.
     The ORCA quantum chemistry program package
     J. Chem. Phys. 2020 152(22), 224108
     doi.org/10.1063/5.0004608
  4. Neese, F.
     Software update: The ORCA program system—Version 5.0
     WIRES Comput. Molec. Sci. 2022 12(1), e1606
     doi.org/10.1002/wcms.1606

List of optional additional citations

  1. Neese, F.
     Approximate second-order SCF convergence for spin unrestricted wavefunctions
     Chem. Phys. Lett. 2000 325(1-3), 93-98
     doi.org/10.1016/s0009-2614(00)00662-x

Timings for individual modules:

Sum of individual times          ...        0.390 sec (=   0.007 min)
Geometry relaxation              ...        0.013 sec (=   0.000 min)   3.4 %
XTB module                       ...        0.377 sec (=   0.006 min)  96.6 %
                             ****ORCA TERMINATED NORMALLY****
TOTAL RUN TIME: 0 days 0 hours 0 minutes 0 seconds 946 msec
