
                                 *****************
                                 * O   R   C   A *
                                 *****************

                                            #,                                       
                                            ###                                      
                                            ####                                     
                                            #####                                    
                                            ######                                   
                                           ########,                                 
                                     ,,################,,,,,                         
                               ,,#################################,,                 
                          ,,##########################################,,             
                       ,#########################################, ''#####,          
                    ,#############################################,,   '####,        
                  ,##################################################,,,,####,       
                ,###########''''           ''''###############################       
              ,#####''   ,,,,##########,,,,          '''####'''          '####       
            ,##' ,,,,###########################,,,                        '##       
           ' ,,###''''                  '''############,,,                           
         ,,##''                                '''############,,,,        ,,,,,,###''
      ,#''                                            '''#######################'''  
     '                                                          ''''####''''         
             ,#######,   #######,   ,#######,      ##                                
            ,#'     '#,  ##    ##  ,#'     '#,    #''#        ,####,    ,#,          
            ##       ##  ##   ,#'  ##            #'  '#       #'       ,# #          
            ##       ##  #######   ##           ,######,      #####,      #          
            '#,     ,#'  ##    ##  '#,     ,#' ,#      #,     #,   #      #          
             '#######'   ##     ##  '#######'  #'      '#     '####' #    #          



                #########################################################
                #                        -***-                          #
                #          Department of theory and spectroscopy        #
                #                                                       #
                #                      Frank Neese                      #
                #                                                       #
                #     Directorship, Architecture, Infrastructure        #
                #                    SHARK, DRIVERS                     #
                #        Core code/Algorithms in most modules           #
                #                                                       #
                #        Max Planck Institute fuer Kohlenforschung      #
                #                Kaiser Wilhelm Platz 1                 #
                #                 D-45470 Muelheim/Ruhr                 #
                #                      Germany                          #
                #                                                       #
                #                  All rights reserved                  #
                #                        -***-                          #
                #########################################################


                         Program Version 6.1.0  -  RELEASE   -
                                (GIT: $679e74b$)
                          ($2025-06-10 18:02:51 +0200$)


 With contributions from (in alphabetic order):
[Max-Planck-Institut fuer Kohlenforschung]                               
  Daniel Aravena         : Magnetic Suceptibility                        
  Michael Atanasov       : Ab Initio Ligand Field Theory (pilot matlab implementation)
  Alexander A. Auer      : GIAO ZORA, VPT2 properties, NMR spectrum      
  Ute Becker             : All parallelization in ORCA, NUMFREQ, NUMCALC 
  Giovanni Bistoni       : ED, misc. LED, open-shell LED, HFLD           
  Dmytro Bykov           : pre 5.0 version of the SCF Hessian            
  Marcos Casanova-Páez   : Triplet and SCS-CIS(D). UHF-(DLPNO)-IP/EA/STEOM-CCSD. UHF-CVS-IP/STEOM-CCSD   
  Vijay G. Chilkuri      : MRCI spin determinant printing, contributions to CSF-ICE 
  Pauline Colinet        : FMM embedding                                 
  Dipayan Datta          : RHF DLPNO-CCSD density                        
  Achintya Kumar Dutta   : EOM-CC, STEOM-CC                              
  Nicolas Foglia         : Exact transition moments, OPA infrastructure, MCD improvements    
  Dmitry Ganyushin       : Spin-Orbit,Spin-Spin,Magnetic field MRCI      
  Miquel Garcia-Rates    : C-PCM and meta-GGA Hessian, CCSD/C-PCM, Gaussian charge scheme 
  Tiago L. C. Gouveia    : GS-ROHF, GS-ROCIS                             
  Yang Guo               : DLPNO-NEVPT2, F12-NEVPT2, CIM, IAO-localization        
  Andreas Hansen         : Spin unrestricted coupled pair/coupled cluster methods 
  Ingolf Harden          : AUTO-CI MPn and infrastructure                
  Benjamin Helmich-Paris : MC-RPA, TRAH-(SCF,CASSCF), AVAS, COSX integrals, SCF dyn. polar., MC-PDFT, srDFT 
  Lee Huntington         : MR-EOM, pCC                                   
  Robert Izsak           : Overlap fitted RIJCOSX, COSX-SCS-MP3, EOM     
  Riya Kayal             : Wick's Theorem for AUTO-CI, AUTO-CI UHF-CCSDT 
  Emily Kempfer          : AUTO-CI RHF CISDT and CCSDT, approximate NEVPT4
  Christian Kollmar      : KDIIS, OOCD, Brueckner-CCSD(T), CCSD density, CASPT2, CASPT2-K, improved NEVPT2 
  Axel Koslowski         : Symmetry handling                             
  Simone Kossmann        : meta-GGA functionals, TD-DFT gradient, OOMP2, (MP2 Hessian; deprecated post 5.0) 
  Lucas Lang             : DCDCAS, Hyperfine gauge corrections, ICE-SOC+SSC
  Marvin Lechner         : AUTO-CI (C++ implementation), FIC-MRCC        
  Spencer Leger          : CASSCF response                               
  Dagmar Lenk            : GEPOL surface, SMD, ORCA-2-JSON               
  Dimitrios Liakos       : Extrapolation schemes; Compound Job, Property file
  Dimitrios Manganas     : Further ROCIS development; embedding schemes. LFT, Crystal Embedding 
  Dimitrios Pantazis     : SARC Basis sets                               
  Anastasios Papadopoulos: AUTO-CI, single reference methods and gradients 
  Taras Petrenko         : pre 6.0 DFT Hessian and TD-DFT gradient,  ECA, NRVS 
  Petra Pikulova         : Analytic Raman intensities                    
  Peter Pinski           : DLPNO-MP2, DLPNO-MP2 Gradient                 
  Shashank Vittal Rao    : ES-AILFT, MagRelax                            
  Christoph Reimann      : Effective Core Potentials                     
  Marius Retegan         : Local ZFS, SOC                                
  Christoph Riplinger    : Optimizer, TS searches, QM/MM, DLPNO-CCSD(T), (RO)-DLPNO pert. Triples 
  Michael Roemelt        : Original ROCIS implementation, recursive CI coupling coefficients
  Masaaki Saitow         : Open-shell DLPNO-CCSD energy and density      
  Barbara Sandhoefer     : DKH picture change effects                    
  Yorick L. A. Schmerwitz: GMF and freeze-and-release deltaSCF, NEB S-IDPP initial path                    
  Kantharuban Sivalingam : CASSCF convergence/infrastructure, NEVPT2, NEVPT3, NEVPT4(SD), FIC-MRCI and CEPA variants
  Bernardo de Souza      : ESD, SOC TD-DFT                               
  Georgi L. Stoychev     : AutoAux, RI-MP2 NMR, DLPNO-MP2 response, X2C  
  Van Anh Tran           : RI-MP2 g-tensors                              
  Willem Van den Heuvel  : Paramagnetic NMR                              
  Zikuan Wang            : NOTCH, Electric field optimization            
  Frank Wennmohs         : Technical directorship and infrastructure     
  Hang Xu                : AUTO-CI-Response properties                   
                                                                         
[FACCTs GmbH]                                                            
  Markus Bursch, Nicolas Foglia, Miquel Garcia-Rates, Ingolf Harden, Hagen Neugebauer, Anastasios Papadopoulos, 
  Christoph Riplinger, Bernardo de Souza, Georgi L. Stoychev                                                    
                                                                 
  APM, various basis sets, CI-OPT, improved COSX, DLPNO-Multilevel,           
  DOCKER, DRACO, updates on ESD, Fragmentator, GOAT, IRC, LR-CPCM, L-BFGS, MBIS, meta-GGA TD-DFT gradient, ML-optimized integration grids, 
  MM, NACMEs, nearIR, NEB, NEB-TS, NL-DFT gradient (VV10), 2- and 3-layer-ONIOM, interface openCOSMO-RS, QMMM,   
  Crystal-QMMM, RESP, rigid body optimization, SF, symmetry and pop. for TD-DFT, various functionals, SOLVATOR                                   
                                                                         
[Other institutions]                                                     
  V. Asgeirsson          : NEB                                           
  Christoph Bannwarth    : sTDA-DFT, sTD-DFT, PBEh-3c, B97-3c, D3        
  Giovanni Bistoni       : ETS/NOCV, ADLD/ADEX, COVALED                  
  Martin Brehm           : Molecular dynamics                            
  Ronald Cardenas        : ETS/NOCV                                      
  Martina Colucci        : COVALED                                       
  Sebastian Ehlert       : rSCAN, r2SCAN, r2SCAN-3c, D4, dhf basis sets  
  Marvin Friede          : D4 for Fr, Ra, Ac-Lr                          
  Lars Goerigk           : TD-DFT with DH, B97 family of functionals     
  Stefan Grimme          : VdW corrections, initial TS optimization, DFT functionals, gCP, sTDA/sTD-DF 
  Waldemar Hujo          : DFT-NL                                        
  H. Jonsson             : NEB                                           
  Holger Kruse           : gCP                                           
  Marcel Mueller         : wB97X-3c, vDZP basis set                      
  Hagen Neugebauer       : wr2SCAN, Native XTB                           
  Gianluca Regni         : ADLD/ADEX                                     
  Tobias Risthaus        : pre 6.0 range-separated hybrid DFT and stability analysis
  Lukas Wittmann         : regularized MP2, r2SCAN double-hybrids, wr2SCAN        
                                                                         
We gratefully acknowledge several colleagues who have allowed us to      
interface, adapt or use parts of their codes:                            
  Ed Valeev, F. Pavosevic, A. Kumar             : LibInt (2-el integral package), F12 methods 
  Garnet Chan, S. Sharma, J. Yang, R. Olivares  : DMRG                   
  Ulf Ekstrom                                   : XCFun DFT Library      
  Mihaly Kallay                                 : mrcc  (arbitrary order and MRCC methods)
  Frank Weinhold                                : gennbo (NPA and NBO analysis)           
  Simon Mueller                                 : openCOSMO-RS                            
  Christopher J. Cramer and Donald G. Truhlar   : smd solvation model                     
  S Lehtola, MJT Oliveira, MAL Marques          : LibXC Library                           
  Liviu Ungur et al                             : ANISO software                          


 Your calculation uses the libint2 library for the computation of 2-el integrals
 For citations please refer to: http://libint.valeyev.net

 Your ORCA version has been built with support for libXC version: 7.0.0
 For citations please refer to: https://libxc.gitlab.io

 This ORCA versions uses:
   CBLAS   interface :  Fast vector & matrix operations
   LAPACKE interface :  Fast linear algebra routines
   SCALAPACK package :  Parallel linear algebra routines
   Shared memory     :  Shared parallel matrices
   BLAS/LAPACK       :  OpenBLAS 0.3.29  USE64BITINT DYNAMIC_ARCH NO_AFFINITY SkylakeX SINGLE_THREADED
        Core in use  :  SkylakeX
   Copyright (c) 2011-2014, The OpenBLAS Project


  ***********************************
  * Starting time: Mon Mar 16 14:18:35 2026
  * Host name:     midway3-login4.rcc.local
  * Process ID:    104486
  * Working dir.:  /home/rzhu16/evans-polanyi-principle-validation/runs/sn2_br_cl/geo_opt_reactant_product
  ***********************************

Your calculation utilizes the semiempirical GFN2-xTB method
Please cite in your paper:
Bannwarth, C.; Ehlert S.; Grimme, S. J. Chem. Theory Comput. 2019, 15, 1652.
   

================================================================================

================================================================================
                                        WARNINGS
                       Please study these warnings very carefully!
================================================================================


WARNING: Analytical Hessian for XTB is limited in the analysis of the data.
       : If you want to obtain extensive IR and deltaG analysis, please use ! XTB NumFreq. 


WARNING: Geometry Optimization
  ===> : Switching off AutoStart
         For restart on a previous wavefunction, please use MOREAD

WARNING: Found dipole moment calculation with XTB calculation
  ===> : Switching off dipole moment calculation


WARNING: Found frequency calculation in combination with XTB calculation
  ===> : Need to redirect dipole moment calculation to properties.out


================================================================================
                                       INPUT FILE
================================================================================
NAME = reactant_optfreq.inp
|  1> ! XTB2 Opt Freq PAL8
|  2> 
|  3> %geom
|  4>   MaxIter 500
|  5> end
|  6> 
|  7> * xyz -1 1
|  8>   C       0.000159      0.000281     -0.396764
|  9>   H      -0.000006      1.027478     -0.054599
| 10>   H       0.889957     -0.513827     -0.054544
| 11>   H      -0.890103     -0.513904     -0.054488
| 12>   Br      0.000002      0.000002      2.664501
| 13>   Cl     -0.000008     -0.000012     -2.178492
| 14> *
| 15> 
| 16>                          ****END OF INPUT****
================================================================================

                       *****************************
                       * Geometry Optimization Run *
                       *****************************

Geometry optimization settings:
Update method            Update   .... BFGS
Choice of coordinates    CoordSys .... (2022) Redundant Internals
Initial Hessian          InHess   .... Almloef's Model
Max. no of cycles        MaxIter  .... 500

Convergence Tolerances:
Energy Change            TolE     ....  5.0000e-06 Eh
Max. Gradient            TolMAXG  ....  3.0000e-04 Eh/bohr
RMS Gradient             TolRMSG  ....  1.0000e-04 Eh/bohr
Max. Displacement        TolMAXD  ....  4.0000e-03 bohr
RMS Displacement         TolRMSD  ....  2.0000e-03 bohr
Strict Convergence                .... False

------------------------------------------------------------------------------
                        ORCA OPTIMIZATION COORDINATE SETUP
------------------------------------------------------------------------------

The optimization will be done in redundant internal coordinates (2022)
Making redundant internal coordinates   ...  (2022 redundants) done
Evaluating the initial hessian          ...  (Almloef) done
Evaluating the coordinates              ...  done
Calculating the B-matrix                .... done
Calculating the G-matrix                .... done
The number of degrees of freedom        ....   17

    -----------------------------------------------------------------
                    Redundant Internal Coordinates


    -----------------------------------------------------------------
         Definition                    Initial Value    Approx d2E/dq
    -----------------------------------------------------------------
      1. B(H   1,C   0)                  1.0827         0.369906   
      2. B(H   2,C   0)                  1.0831         0.369309   
      3. B(H   3,C   0)                  1.0836         0.368719   
      4. B(Br  4,H   2)                  2.9068         0.010000   
      5. B(Br  4,H   1)                  2.9068         0.010000   
      6. B(Br  4,H   3)                  2.9068         0.010000   
      7. B(Br  4,C   0)                  3.0613         0.010000   
      8. B(Cl  5,C   0)                  1.7817         0.332474   
      9. A(H   1,C   0,H   3)          110.5031         0.293161   
     10. A(H   2,C   0,H   3)          110.4822         0.293086   
     11. A(H   1,C   0,Cl  5)          108.4326         0.332892   
     12. A(H   2,C   0,Cl  5)          108.4185         0.332803   
     13. A(H   3,C   0,Cl  5)          108.4046         0.332714   
     14. A(H   1,C   0,Br  4)           71.5820         0.183608   
     15. A(H   2,C   0,Br  4)           71.5814         0.183573   
     16. A(H   3,C   0,Br  4)           71.5809         0.183539   
     17. A(H   1,C   0,H   2)          110.5239         0.293234   
    -----------------------------------------------------------------

Number of atoms                         .... 6
Number of degrees of freedom            .... 17


         *************************************************************
         *                GEOMETRY OPTIMIZATION CYCLE   1            *
         *************************************************************
---------------------------------
CARTESIAN COORDINATES (ANGSTROEM)
---------------------------------
  C     0.000159    0.000281   -0.396764
  H    -0.000006    1.027478   -0.054599
  H     0.889957   -0.513827   -0.054544
  H    -0.890103   -0.513904   -0.054488
  Br    0.000002    0.000002    2.664501
  Cl   -0.000008   -0.000012   -2.178492

----------------------------
CARTESIAN COORDINATES (A.U.)
----------------------------
  NO LB    ZA    FRAG    MASS        X           Y           Z
   0 C   6.0000    0    12.011    0.000300    0.000531   -0.749775
   1 H   1.0000    0     1.008   -0.000011    1.941652   -0.103177
   2 H   1.0000    0     1.008    1.681775   -0.970992   -0.103073
   3 H   1.0000    0     1.008   -1.682051   -0.971138   -0.102967
   4 Br 35.0000    0    79.900    0.000004    0.000004    5.035177
   5 Cl 17.0000    0    35.453   -0.000015   -0.000023   -4.116753

      -----------------------------------------------------------      
     |                   =====================                   |     
     |                           x T B                           |     
     |                   =====================                   |     
     |                         S. Grimme                         |     
     |          Mulliken Center for Theoretical Chemistry        |     
     |                    University of Bonn                     |     
      -----------------------------------------------------------      

   * xtb version 6.7.1 (edcfbbe) compiled by 'albert@albert-system' on 2024-07-22

   xtb is free software: you can redistribute it and/or modify it under
   the terms of the GNU Lesser General Public License as published by
   the Free Software Foundation, either version 3 of the License, or
   (at your option) any later version.
   
   xtb is distributed in the hope that it will be useful,
   but WITHOUT ANY WARRANTY; without even the implied warranty of
   MERCHANTABILITY or FITNESS FOR A PARTICULAR PURPOSE.  See the
   GNU Lesser General Public License for more details.
   
   Cite this work as:
   * C. Bannwarth, E. Caldeweyher, S. Ehlert, A. Hansen, P. Pracht,
     J. Seibert, S. Spicher, S. Grimme, WIREs Comput. Mol. Sci., 2020, 11,
     e01493. DOI: 10.1002/wcms.1493
   
   for GFN2-xTB:
   * C. Bannwarth, S. Ehlert and S. Grimme., J. Chem. Theory Comput., 2019,
     15, 1652-1671. DOI: 10.1021/acs.jctc.8b01176
   for GFN1-xTB:
   * S. Grimme, C. Bannwarth, P. Shushkov, J. Chem. Theory Comput., 2017,
     13, 1989-2009. DOI: 10.1021/acs.jctc.7b00118
   for GFN0-xTB:
   * P. Pracht, E. Caldeweyher, S. Ehlert, S. Grimme, ChemRxiv, 2019, preprint.
     DOI: 10.26434/chemrxiv.8326202.v1
   for GFN-FF:
   * S. Spicher and S. Grimme, Angew. Chem. Int. Ed., 2020, 59, 15665-15673.
     DOI: 10.1002/anie.202004239
   
   for ALPB and GBSA implicit solvation:
   * S. Ehlert, M. Stahn, S. Spicher, S. Grimme, J. Chem. Theory Comput.,
     2021, 17, 4250-4261. DOI: 10.1021/acs.jctc.1c00471
   
   for ddCOSMO and CPCM-X implicit solvation:
   * M. Stahn, S. Ehlert, S. Grimme, J. Phys. Chem. A,
     2023, XX, XXXX-XXXX. DOI: 10.1021/acs.jpca.3c04382
   
   for DFT-D4:
   * E. Caldeweyher, C. Bannwarth and S. Grimme, J. Chem. Phys., 2017,
     147, 034112. DOI: 10.1063/1.4993215
   * E. Caldeweyher, S. Ehlert, A. Hansen, H. Neugebauer, S. Spicher,
     C. Bannwarth and S. Grimme, J. Chem. Phys., 2019, 150, 154122.
     DOI: 10.1063/1.5090222
   * E. Caldeweyher, J.-M. Mewes, S. Ehlert and S. Grimme, Phys. Chem. Chem. Phys.
     2020, 22, 8499-8512. DOI: 10.1039/D0CP00502A
   
   for sTDA-xTB:
   * S. Grimme and C. Bannwarth, J. Chem. Phys., 2016, 145, 054103.
     DOI: 10.1063/1.4959605
   
   in the mass-spec context:
   * V. Asgeirsson, C. Bauer and S. Grimme, Chem. Sci., 2017, 8, 4879.
     DOI: 10.1039/c7sc00601b
   * J. Koopman and S. Grimme, ACS Omega 2019, 4, 12, 15120-15133.
     DOI: 10.1021/acsomega.9b02011
   
   for metadynamics refer to:
   * S. Grimme, J. Chem. Theory Comput., 2019, 155, 2847-2862
     DOI: 10.1021/acs.jctc.9b00143
   
   for SPH calculations refer to:
   * S. Spicher and S. Grimme, J. Chem. Theory Comput., 2021, 17, 1701-1714
     DOI: 10.1021/acs.jctc.0c01306
   
   for ONIOM refer to:
   * C. Plett, A. Katbashev, S. Ehlert, S. Grimme, M. Bursch,
     Phys. Chem. Chem. Phys., 2023, 25, 17860-17868. DOI: 10.1039/D3CP02178E
   
   for DIPRO refer to:
   * J. Kohn, N. Gildemeister, S. Grimme, D. Fazzi, A. Hansen,
     J. Chem. Phys., 2023, just accepted.
   
   for PTB refer to:
   * S. Grimme, M. Mueller, A. Hansen, J. Chem. Phys., 2023, 158, 124111.
     DOI: 10.1063/5.0137838
   
   with help from (in alphabetical order)
   P. Atkinson, C. Bannwarth, F. Bohle, G. Brandenburg, E. Caldeweyher
   M. Checinski, S. Dohm, S. Ehlert, S. Ehrlich, I. Gerasimov, C. Hölzer
   A. Katbashev, J. Kohn, J. Koopman, C. Lavigne, S. Lehtola, F. März, M. Müller,
   F. Musil, H. Neugebauer, J. Pisarek, C. Plett, P. Pracht, F. Pultar,
   J. Seibert, P. Shushkov, S. Spicher, M. Stahn, M. Steiner, T. Strunk,
   J. Stückrath, T. Rose, and J. Unsleber
   
 * started run on 2026/03/16 at 14:18:35.832     
   ID    Z sym.   atoms
    1    6 C      1
    2    1 H      2-4
    3   35 Br     5
    4   17 Cl     6

           -------------------------------------------------
          |                Calculation Setup                |
           -------------------------------------------------

          program call               : /software/orca-6.1.0-el8-x86_64/bin/otool_xtb reactant_optfreq_XTB.xyz --grad -c -1 -u 0 -P 8 --namespace reactant_optfreq --input reactant_optfreq_XTB.input.tmp --acc 0.200000
          hostname                   : midway3-login4.rcc.local
          calculation namespace      : reactant_optfreq
          coordinate file            : reactant_optfreq_XTB.xyz
          omp threads                :                     8


molecular fragmentation (1/2 indicates fragments):
111121
# atoms in fragment 1/2:     5     1
 fragment masses (1/2) :       50.49       79.90
CMA distance (Bohr)    :   8.111
constraining FC (au)   :  0.0500

           -------------------------------------------------
          |                 G F N 2 - x T B                 |
           -------------------------------------------------

        Reference                      10.1021/acs.jctc.8b01176
      * Hamiltonian:
        H0-scaling (s, p, d)           1.850000    2.230000    2.230000
        zeta-weighting                 0.500000
      * Dispersion:
        s8                             2.700000
        a1                             0.520000
        a2                             5.000000
        s9                             5.000000
      * Repulsion:
        kExp                           1.500000    1.000000
        rExp                           1.000000
      * Coulomb:
        alpha                          2.000000
        third order                    shell-resolved
        anisotropic                    true
        a3                             3.000000
        a5                             4.000000
        cn-shift                       1.200000
        cn-exp                         4.000000
        max-rad                        5.000000


          ...................................................
          :                      SETUP                      :
          :.................................................:
          :  # basis functions                  27          :
          :  # atomic orbitals                  25          :
          :  # shells                           11          :
          :  # electrons                        22          :
          :  max. iterations                   250          :
          :  Hamiltonian                  GFN2-xTB          :
          :  restarted?                      false          :
          :  GBSA solvation                  false          :
          :  PC potential                    false          :
          :  electronic temp.          300.0000000     K    :
          :  accuracy                    0.2000000          :
          :  -> integral cutoff          0.3198970E+02      :
          :  -> integral neglect         0.2000000E-08      :
          :  -> SCF convergence          0.2000000E-06 Eh   :
          :  -> wf. convergence          0.2000000E-04 e    :
          :  Broyden damping             0.4000000          :
          :  net charge                         -1          :
          :  unpaired electrons                  0          :
          ...................................................

 iter      E             dE          RMSdq      gap      omega  full diag
   1    -12.5705854 -0.125706E+02  0.560E+00    5.05       0.0  T
   2    -12.6134090 -0.428236E-01  0.311E+00    3.68       1.0  T
   3    -12.6142753 -0.866320E-03  0.152E+00    3.55       1.0  T
   4    -12.6146582 -0.382845E-03  0.304E-01    3.30       1.0  T
   5    -12.6148053 -0.147116E-03  0.185E-01    3.31       1.0  T
   6    -12.6148933 -0.880604E-04  0.128E-01    3.22       1.0  T
   7    -12.6149380 -0.446129E-04  0.318E-02    3.21       1.3  T
   8    -12.6149385 -0.563368E-06  0.212E-02    3.20       1.9  T
   9    -12.6149394 -0.909544E-06  0.845E-03    3.21       4.8  T
  10    -12.6149395 -0.667474E-07  0.179E-03    3.21      22.7  T
  11    -12.6149395 -0.277243E-08  0.254E-04    3.21     160.5  T
  12    -12.6149395 -0.135943E-09  0.323E-05    3.21    1264.2  T
  13    -12.6149395 -0.339284E-12  0.210E-06    3.21   19422.5  T

   *** convergence criteria satisfied after 13 iterations ***

         #    Occupation            Energy/Eh            Energy/eV
      -------------------------------------------------------------
         1        2.0000           -0.9375842             -25.5130
       ...           ...                  ...                  ...
         5        2.0000           -0.3766731             -10.2498
         6        2.0000           -0.3718438             -10.1184
         7        2.0000           -0.2959585              -8.0534
         8        2.0000           -0.2959450              -8.0531
         9        2.0000           -0.1566615              -4.2630
        10        2.0000           -0.1531318              -4.1669
        11        2.0000           -0.1531317              -4.1669 (HOMO)
        12                         -0.0352960              -0.9605 (LUMO)
        13                          0.1430661               3.8930
        14                          0.1430917               3.8937
        15                          0.1468970               3.9973
        16                          0.1468975               3.9973
       ...                                ...                  ...
        25                          0.3942682              10.7286
      -------------------------------------------------------------
                  HL-Gap            0.1178358 Eh            3.2065 eV
             Fermi-level           -0.0942138 Eh           -2.5637 eV

 SCC (total)                   0 d,  0 h,  0 min,  0.031 sec
 SCC setup                      ...        0 min,  0.000 sec (  0.676%)
 Dispersion                     ...        0 min,  0.000 sec (  0.183%)
 classical contributions        ...        0 min,  0.000 sec (  0.118%)
 integral evaluation            ...        0 min,  0.028 sec ( 90.396%)
 iterations                     ...        0 min,  0.002 sec (  6.176%)
 molecular gradient             ...        0 min,  0.001 sec (  1.874%)
 printout                       ...        0 min,  0.000 sec (  0.522%)

         :::::::::::::::::::::::::::::::::::::::::::::::::::::
         ::                     SUMMARY                     ::
         :::::::::::::::::::::::::::::::::::::::::::::::::::::
         :: total energy             -12.557765381240 Eh    ::
         :: gradient norm              0.001928205611 Eh/a0 ::
         :: HOMO-LUMO gap              3.206474012354 eV    ::
         ::.................................................::
         :: SCC energy               -12.614940151132 Eh    ::
         :: -> isotropic ES            0.165507004885 Eh    ::
         :: -> anisotropic ES         -0.001743617274 Eh    ::
         :: -> anisotropic XC          0.001114912404 Eh    ::
         :: -> dispersion             -0.002680370739 Eh    ::
         :: repulsion energy           0.057174769892 Eh    ::
         :: add. restraining           0.000000000000 Eh    ::
         :: total charge              -1.000000000000 e     ::
         :::::::::::::::::::::::::::::::::::::::::::::::::::::


Property printout bound to 'properties.out'

           -------------------------------------------------
          | TOTAL ENERGY              -12.557765381240 Eh   |
          | GRADIENT NORM               0.001928205611 Eh/α |
          | HOMO-LUMO GAP               3.206474012354 eV   |
           -------------------------------------------------

------------------------------------------------------------------------
 * finished run on 2026/03/16 at 14:18:35.878     
------------------------------------------------------------------------
 total:
 * wall-time:     0 d,  0 h,  0 min,  0.045 sec
 *  cpu-time:     0 d,  0 h,  0 min,  0.301 sec
 * ratio c/w:     6.626 speedup
 SCF:
 * wall-time:     0 d,  0 h,  0 min,  0.031 sec
 *  cpu-time:     0 d,  0 h,  0 min,  0.224 sec
 * ratio c/w:     7.137 speedup


-------------------------   --------------------
FINAL SINGLE POINT ENERGY       -12.557765381240
-------------------------   --------------------


-------------
DIPOLE MOMENT
-------------
                                X             Y             Z
Total Dipole Moment    :      0.00000       0.00000      -3.50800
                        -----------------------------------------
Magnitude (a.u.)       :      3.50800
Magnitude (Debye)      :      8.91663


------------------
CARTESIAN GRADIENT
------------------

   1   C   :    0.000234396    0.000409361    0.000424632
   2   H   :   -0.000009661   -0.000276495    0.000246678
   3   H   :   -0.000034448   -0.000002543    0.000321935
   4   H   :   -0.000182535   -0.000116663    0.000396486
   5   Br  :   -0.000000533   -0.000000936   -0.001670288
   6   Cl  :   -0.000007218   -0.000012724    0.000280556

Difference to translation invariance:
           :   -0.0000000000    0.0000000000    0.0000000000

Difference to rotation invariance:
           :   -0.0000000046    0.0000000027    0.0000000000

Norm of the Cartesian gradient     ...    0.0019282056
RMS gradient                       ...    0.0004544824
MAX gradient                       ...    0.0016702875
------------------------------------------------------------------------------
                         ORCA GEOMETRY RELAXATION STEP
------------------------------------------------------------------------------

Reading the OPT-File                    .... done
Getting information on internals        .... done
Copying old internal coords+grads       .... done
Making the new internal coordinates     .... (2022 redundants) done
Validating the new internal coordinates .... (2022 redundants) done
Calculating the B-matrix                .... done
Calculating the G,G- and P matrices     .... done
Transforming gradient to internals      .... done
Projecting the internal gradient        .... done
Number of atoms                         ....   6
Number of internal coordinates          ....  17
Current Energy                          ....   -12.557765381 Eh
Current gradient norm                   ....     0.001928206 Eh/bohr
Maximum allowed component of the step   ....  0.300
Current trust radius                    ....  0.300
Evaluating the initial hessian          ....  (Almloef) done
Projecting the Hessian                  .... done
Forming the augmented Hessian           .... done
Diagonalizing the augmented Hessian     .... done
Last element of RFO vector              ....  0.996230659
Lowest eigenvalues of augmented Hessian:
 -0.000077255  0.010076371  0.043469790  0.043502346  0.195810506
Length of the computed step             ....  0.087071929
The final length of the internal step   ....  0.087071929
Converting the step to Cartesian space:
 Initial RMS(Int)=    0.0211180448
Transforming coordinates:
 Iter   0:  RMS(Cart)=    0.0099197089 RMS(Int)=    0.0211268649
done
Storing new coordinates                 .... done

                                .--------------------.
          ----------------------|Geometry convergence|-------------------------
          Item                value                   Tolerance       Converged
          ---------------------------------------------------------------------
          RMS gradient        0.0002484316            0.0001000000      NO
          MAX gradient        0.0005550585            0.0003000000      NO
          RMS step            0.0211180448            0.0020000000      NO
          MAX step            0.0462018412            0.0040000000      NO
          -------------------------------------------------------------------------
          ........................................................
          Max(Bonds)      0.0244      Max(Angles)    0.02
          Max(Dihed)        0.00      Max(Improp)    0.00
          ---------------------------------------------------------------------

The optimization has not yet converged - more geometry cycles are needed


    ---------------------------------------------------------------------------
                         Redundant Internal Coordinates
                            (Angstroem and degrees)

        Definition                    Value    dE/dq     Step     New-Value
    ----------------------------------------------------------------------------
     1. B(H   1,C   0)                1.0827 -0.000169  0.0002    1.0829   
     2. B(H   2,C   0)                1.0831  0.000090 -0.0001    1.0830   
     3. B(H   3,C   0)                1.0836  0.000346 -0.0005    1.0831   
     4. B(Br  4,H   2)                2.9068 -0.000397  0.0225    2.9293   
     5. B(Br  4,H   1)                2.9068 -0.000398  0.0225    2.9293   
     6. B(Br  4,H   3)                2.9068 -0.000397  0.0225    2.9293   
     7. B(Br  4,C   0)                3.0613 -0.000555  0.0244    3.0857   
     8. B(Cl  5,C   0)                1.7817 -0.000281  0.0004    1.7822   
     9. A(H   1,C   0,H   3)          110.50  0.000056   -0.02    110.49   
    10. A(H   2,C   0,H   3)          110.48  0.000033   -0.01    110.47   
    11. A(H   1,C   0,Cl  5)          108.43 -0.000029    0.01    108.44   
    12. A(H   2,C   0,Cl  5)          108.42 -0.000058    0.02    108.44   
    13. A(H   3,C   0,Cl  5)          108.40 -0.000086    0.02    108.43   
    14. A(H   1,C   0,Br  4)           71.58  0.000063   -0.02     71.56   
    15. A(H   2,C   0,Br  4)           71.58  0.000058   -0.02     71.56   
    16. A(H   3,C   0,Br  4)           71.58  0.000053   -0.02     71.56   
    17. A(H   1,C   0,H   2)          110.52  0.000078   -0.02    110.50   
    ----------------------------------------------------------------------------

Geometry step timings:
Preparation and reading OPT file:      0.000 s ( 2.175 %)
Internal coordinates            :      0.000 s ( 3.335 %)
B/P matrices and projection     :      0.000 s ( 8.362 %)
Hessian update/contruction      :      0.001 s (49.396 %)
Making the step                 :      0.000 s ( 8.313 %)
Converting the step to Cartesian:      0.000 s ( 2.948 %)
Storing new data                :      0.000 s ( 5.075 %)
Checking convergence            :      0.000 s ( 5.220 %)
Final printing                  :      0.000 s (14.838 %)
Total time                      :      0.002 s

Time for energy+gradient        :      0.057 s
Time for complete geometry iter :      0.061 s

         *************************************************************
         *                GEOMETRY OPTIMIZATION CYCLE   2            *
         *************************************************************
---------------------------------
CARTESIAN COORDINATES (ANGSTROEM)
---------------------------------
  C     0.000075    0.000134   -0.400897
  H    -0.000053    1.027465   -0.058377
  H     0.889713   -0.513795   -0.058409
  H    -0.889698   -0.513725   -0.058440
  Br   -0.000001   -0.000003    2.684809
  Cl   -0.000035   -0.000057   -2.183072

----------------------------
CARTESIAN COORDINATES (A.U.)
----------------------------
  NO LB    ZA    FRAG    MASS        X           Y           Z
   0 C   6.0000    0    12.011    0.000141    0.000253   -0.757586
   1 H   1.0000    0     1.008   -0.000100    1.941627   -0.110317
   2 H   1.0000    0     1.008    1.681314   -0.970933   -0.110378
   3 H   1.0000    0     1.008   -1.681286   -0.970800   -0.110436
   4 Br 35.0000    0    79.900   -0.000002   -0.000005    5.073555
   5 Cl 17.0000    0    35.453   -0.000065   -0.000108   -4.125408

      -----------------------------------------------------------      
     |                   =====================                   |     
     |                           x T B                           |     
     |                   =====================                   |     
     |                         S. Grimme                         |     
     |          Mulliken Center for Theoretical Chemistry        |     
     |                    University of Bonn                     |     
      -----------------------------------------------------------      

   * xtb version 6.7.1 (edcfbbe) compiled by 'albert@albert-system' on 2024-07-22

   xtb is free software: you can redistribute it and/or modify it under
   the terms of the GNU Lesser General Public License as published by
   the Free Software Foundation, either version 3 of the License, or
   (at your option) any later version.
   
   xtb is distributed in the hope that it will be useful,
   but WITHOUT ANY WARRANTY; without even the implied warranty of
   MERCHANTABILITY or FITNESS FOR A PARTICULAR PURPOSE.  See the
   GNU Lesser General Public License for more details.
   
   Cite this work as:
   * C. Bannwarth, E. Caldeweyher, S. Ehlert, A. Hansen, P. Pracht,
     J. Seibert, S. Spicher, S. Grimme, WIREs Comput. Mol. Sci., 2020, 11,
     e01493. DOI: 10.1002/wcms.1493
   
   for GFN2-xTB:
   * C. Bannwarth, S. Ehlert and S. Grimme., J. Chem. Theory Comput., 2019,
     15, 1652-1671. DOI: 10.1021/acs.jctc.8b01176
   for GFN1-xTB:
   * S. Grimme, C. Bannwarth, P. Shushkov, J. Chem. Theory Comput., 2017,
     13, 1989-2009. DOI: 10.1021/acs.jctc.7b00118
   for GFN0-xTB:
   * P. Pracht, E. Caldeweyher, S. Ehlert, S. Grimme, ChemRxiv, 2019, preprint.
     DOI: 10.26434/chemrxiv.8326202.v1
   for GFN-FF:
   * S. Spicher and S. Grimme, Angew. Chem. Int. Ed., 2020, 59, 15665-15673.
     DOI: 10.1002/anie.202004239
   
   for ALPB and GBSA implicit solvation:
   * S. Ehlert, M. Stahn, S. Spicher, S. Grimme, J. Chem. Theory Comput.,
     2021, 17, 4250-4261. DOI: 10.1021/acs.jctc.1c00471
   
   for ddCOSMO and CPCM-X implicit solvation:
   * M. Stahn, S. Ehlert, S. Grimme, J. Phys. Chem. A,
     2023, XX, XXXX-XXXX. DOI: 10.1021/acs.jpca.3c04382
   
   for DFT-D4:
   * E. Caldeweyher, C. Bannwarth and S. Grimme, J. Chem. Phys., 2017,
     147, 034112. DOI: 10.1063/1.4993215
   * E. Caldeweyher, S. Ehlert, A. Hansen, H. Neugebauer, S. Spicher,
     C. Bannwarth and S. Grimme, J. Chem. Phys., 2019, 150, 154122.
     DOI: 10.1063/1.5090222
   * E. Caldeweyher, J.-M. Mewes, S. Ehlert and S. Grimme, Phys. Chem. Chem. Phys.
     2020, 22, 8499-8512. DOI: 10.1039/D0CP00502A
   
   for sTDA-xTB:
   * S. Grimme and C. Bannwarth, J. Chem. Phys., 2016, 145, 054103.
     DOI: 10.1063/1.4959605
   
   in the mass-spec context:
   * V. Asgeirsson, C. Bauer and S. Grimme, Chem. Sci., 2017, 8, 4879.
     DOI: 10.1039/c7sc00601b
   * J. Koopman and S. Grimme, ACS Omega 2019, 4, 12, 15120-15133.
     DOI: 10.1021/acsomega.9b02011
   
   for metadynamics refer to:
   * S. Grimme, J. Chem. Theory Comput., 2019, 155, 2847-2862
     DOI: 10.1021/acs.jctc.9b00143
   
   for SPH calculations refer to:
   * S. Spicher and S. Grimme, J. Chem. Theory Comput., 2021, 17, 1701-1714
     DOI: 10.1021/acs.jctc.0c01306
   
   for ONIOM refer to:
   * C. Plett, A. Katbashev, S. Ehlert, S. Grimme, M. Bursch,
     Phys. Chem. Chem. Phys., 2023, 25, 17860-17868. DOI: 10.1039/D3CP02178E
   
   for DIPRO refer to:
   * J. Kohn, N. Gildemeister, S. Grimme, D. Fazzi, A. Hansen,
     J. Chem. Phys., 2023, just accepted.
   
   for PTB refer to:
   * S. Grimme, M. Mueller, A. Hansen, J. Chem. Phys., 2023, 158, 124111.
     DOI: 10.1063/5.0137838
   
   with help from (in alphabetical order)
   P. Atkinson, C. Bannwarth, F. Bohle, G. Brandenburg, E. Caldeweyher
   M. Checinski, S. Dohm, S. Ehlert, S. Ehrlich, I. Gerasimov, C. Hölzer
   A. Katbashev, J. Kohn, J. Koopman, C. Lavigne, S. Lehtola, F. März, M. Müller,
   F. Musil, H. Neugebauer, J. Pisarek, C. Plett, P. Pracht, F. Pultar,
   J. Seibert, P. Shushkov, S. Spicher, M. Stahn, M. Steiner, T. Strunk,
   J. Stückrath, T. Rose, and J. Unsleber
   
 * started run on 2026/03/16 at 14:18:35.893     
   ID    Z sym.   atoms
    1    6 C      1
    2    1 H      2-4
    3   35 Br     5
    4   17 Cl     6

           -------------------------------------------------
          |                Calculation Setup                |
           -------------------------------------------------

          program call               : /software/orca-6.1.0-el8-x86_64/bin/otool_xtb reactant_optfreq_XTB.xyz --grad -c -1 -u 0 -P 8 --namespace reactant_optfreq --input reactant_optfreq_XTB.input.tmp --acc 0.200000
          hostname                   : midway3-login4.rcc.local
          calculation namespace      : reactant_optfreq
          coordinate file            : reactant_optfreq_XTB.xyz
          omp threads                :                     8


molecular fragmentation (1/2 indicates fragments):
111121
# atoms in fragment 1/2:     5     1
 fragment masses (1/2) :       50.49       79.90
CMA distance (Bohr)    :   8.157
constraining FC (au)   :  0.0500

           -------------------------------------------------
          |                 G F N 2 - x T B                 |
           -------------------------------------------------

        Reference                      10.1021/acs.jctc.8b01176
      * Hamiltonian:
        H0-scaling (s, p, d)           1.850000    2.230000    2.230000
        zeta-weighting                 0.500000
      * Dispersion:
        s8                             2.700000
        a1                             0.520000
        a2                             5.000000
        s9                             5.000000
      * Repulsion:
        kExp                           1.500000    1.000000
        rExp                           1.000000
      * Coulomb:
        alpha                          2.000000
        third order                    shell-resolved
        anisotropic                    true
        a3                             3.000000
        a5                             4.000000
        cn-shift                       1.200000
        cn-exp                         4.000000
        max-rad                        5.000000

q/qsh data taken from xtbrestart
CAMM data taken from xtbrestart

          ...................................................
          :                      SETUP                      :
          :.................................................:
          :  # basis functions                  27          :
          :  # atomic orbitals                  25          :
          :  # shells                           11          :
          :  # electrons                        22          :
          :  max. iterations                   250          :
          :  Hamiltonian                  GFN2-xTB          :
          :  restarted?                       true          :
          :  GBSA solvation                  false          :
          :  PC potential                    false          :
          :  electronic temp.          300.0000000     K    :
          :  accuracy                    0.2000000          :
          :  -> integral cutoff          0.3198970E+02      :
          :  -> integral neglect         0.2000000E-08      :
          :  -> SCF convergence          0.2000000E-06 Eh   :
          :  -> wf. convergence          0.2000000E-04 e    :
          :  Broyden damping             0.4000000          :
          :  net charge                         -1          :
          :  unpaired electrons                  0          :
          ...................................................

 iter      E             dE          RMSdq      gap      omega  full diag
   1    -12.6150405 -0.126150E+02  0.770E-02    3.17       0.0  T
   2    -12.6150412 -0.724567E-06  0.412E-02    3.17       1.0  T
   3    -12.6150415 -0.275057E-06  0.119E-02    3.16       3.4  T
   4    -12.6150415 -0.675204E-07  0.885E-03    3.16       4.6  T
   5    -12.6150416 -0.730243E-07  0.243E-03    3.16      16.8  T
   6    -12.6150416 -0.527498E-08  0.851E-04    3.16      48.0  T
   7    -12.6150416 -0.123948E-08  0.526E-04    3.16      77.6  T
   8    -12.6150416 -0.727770E-09  0.312E-04    3.16     130.9  T
   9    -12.6150416 -0.282224E-09  0.103E-05    3.16    3960.2  T
  10    -12.6150416 -0.104805E-12  0.111E-06    3.16   36674.1  T

   *** convergence criteria satisfied after 10 iterations ***

         #    Occupation            Energy/Eh            Energy/eV
      -------------------------------------------------------------
         1        2.0000           -0.9382905             -25.5322
       ...           ...                  ...                  ...
         5        2.0000           -0.3774993             -10.2723
         6        2.0000           -0.3726704             -10.1409
         7        2.0000           -0.2967087              -8.0739
         8        2.0000           -0.2966999              -8.0736
         9        2.0000           -0.1560418              -4.2461
        10        2.0000           -0.1526358              -4.1534
        11        2.0000           -0.1526357              -4.1534 (HOMO)
        12                         -0.0364075              -0.9907 (LUMO)
        13                          0.1422401               3.8705
        14                          0.1422452               3.8707
        15                          0.1460604               3.9745
        16                          0.1460611               3.9745
       ...                                ...                  ...
        25                          0.3927066              10.6861
      -------------------------------------------------------------
                  HL-Gap            0.1162282 Eh            3.1627 eV
             Fermi-level           -0.0945216 Eh           -2.5721 eV

 SCC (total)                   0 d,  0 h,  0 min,  0.049 sec
 SCC setup                      ...        0 min,  0.000 sec (  0.463%)
 Dispersion                     ...        0 min,  0.000 sec (  0.110%)
 classical contributions        ...        0 min,  0.000 sec (  0.063%)
 integral evaluation            ...        0 min,  0.046 sec ( 94.075%)
 iterations                     ...        0 min,  0.002 sec (  3.541%)
 molecular gradient             ...        0 min,  0.001 sec (  1.383%)
 printout                       ...        0 min,  0.000 sec (  0.335%)

         :::::::::::::::::::::::::::::::::::::::::::::::::::::
         ::                     SUMMARY                     ::
         :::::::::::::::::::::::::::::::::::::::::::::::::::::
         :: total energy             -12.557826966902 Eh    ::
         :: gradient norm              0.001316747350 Eh/a0 ::
         :: HOMO-LUMO gap              3.162729700419 eV    ::
         ::.................................................::
         :: SCC energy               -12.615042279042 Eh    ::
         :: -> isotropic ES            0.165950050016 Eh    ::
         :: -> anisotropic ES         -0.001665861095 Eh    ::
         :: -> anisotropic XC          0.001202252895 Eh    ::
         :: -> dispersion             -0.002666805099 Eh    ::
         :: repulsion energy           0.057215312140 Eh    ::
         :: add. restraining           0.000000000000 Eh    ::
         :: total charge              -1.000000000000 e     ::
         :::::::::::::::::::::::::::::::::::::::::::::::::::::


Property printout bound to 'properties.out'

           -------------------------------------------------
          | TOTAL ENERGY              -12.557826966902 Eh   |
          | GRADIENT NORM               0.001316747350 Eh/α |
          | HOMO-LUMO GAP               3.162729700419 eV   |
           -------------------------------------------------

------------------------------------------------------------------------
 * finished run on 2026/03/16 at 14:18:35.966     
------------------------------------------------------------------------
 total:
 * wall-time:     0 d,  0 h,  0 min,  0.072 sec
 *  cpu-time:     0 d,  0 h,  0 min,  0.258 sec
 * ratio c/w:     3.573 speedup
 SCF:
 * wall-time:     0 d,  0 h,  0 min,  0.050 sec
 *  cpu-time:     0 d,  0 h,  0 min,  0.183 sec
 * ratio c/w:     3.694 speedup


-------------------------   --------------------
FINAL SINGLE POINT ENERGY       -12.557826966900
-------------------------   --------------------


-------------
DIPOLE MOMENT
-------------
                                X             Y             Z
Total Dipole Moment    :      0.00000       0.00000      -3.55700
                        -----------------------------------------
Magnitude (a.u.)       :      3.55700
Magnitude (Debye)      :      9.04118


------------------
CARTESIAN GRADIENT
------------------

   1   C   :    0.000054133    0.000094458    0.000650886
   2   H   :   -0.000013667   -0.000176100    0.000199786
   3   H   :   -0.000138480    0.000048294    0.000206394
   4   H   :    0.000104257    0.000044317    0.000213059
   5   Br  :   -0.000000124   -0.000000220   -0.001021138
   6   Cl  :   -0.000006119   -0.000010749   -0.000248987

Difference to translation invariance:
           :    0.0000000000    0.0000000000   -0.0000000000

Difference to rotation invariance:
           :    0.0000000077   -0.0000000056    0.0000000000

Norm of the Cartesian gradient     ...    0.0013167473
RMS gradient                       ...    0.0003103603
MAX gradient                       ...    0.0010211384
------------------------------------------------------------------------------
                         ORCA GEOMETRY RELAXATION STEP
------------------------------------------------------------------------------

Reading the OPT-File                    .... done
Getting information on internals        .... done
Copying old internal coords+grads       .... done
Making the new internal coordinates     .... (2022 redundants) done
Validating the new internal coordinates .... (2022 redundants) done
Calculating the B-matrix                .... done
Calculating the G,G- and P matrices     .... done
Transforming gradient to internals      .... done
Projecting the internal gradient        .... done
Number of atoms                         ....   6
Number of internal coordinates          ....  17
Current Energy                          ....   -12.557826967 Eh
Current gradient norm                   ....     0.001316747 Eh/bohr
Maximum allowed component of the step   ....  0.300
Current trust radius                    ....  0.300
Updating the Hessian (BFGS)             .... done
Forming the augmented Hessian           .... done
Diagonalizing the augmented Hessian     .... done
Last element of RFO vector              ....  0.990827295
Lowest eigenvalues of augmented Hessian:
 -0.000073668  0.003948130  0.043469789  0.043502345  0.196147277
Length of the computed step             ....  0.136385291
The final length of the internal step   ....  0.136385291
Converting the step to Cartesian space:
 Initial RMS(Int)=    0.0330782917
Transforming coordinates:
 Iter   0:  RMS(Cart)=    0.0153210205 RMS(Int)=    0.0330978575
done
Storing new coordinates                 .... done
The predicted energy change is          ....    -0.000037519
Previously predicted energy change      ....    -0.000038920
Actually observed energy change         ....    -0.000061586
Ratio of predicted to observed change   ....     1.582360839
New trust radius                        ....     0.200000000

                                .--------------------.
          ----------------------|Geometry convergence|-------------------------
          Item                value                   Tolerance       Converged
          ---------------------------------------------------------------------
          Energy change      -0.0000615857            0.0000050000      NO
          RMS gradient        0.0001470277            0.0001000000      NO
          MAX gradient        0.0002972638            0.0003000000      YES
          RMS step            0.0330782917            0.0020000000      NO
          MAX step            0.0718376122            0.0040000000      NO
          -------------------------------------------------------------------------
          ........................................................
          Max(Bonds)      0.0380      Max(Angles)    0.02
          Max(Dihed)        0.00      Max(Improp)    0.00
          ---------------------------------------------------------------------

The optimization has not yet converged - more geometry cycles are needed


    ---------------------------------------------------------------------------
                         Redundant Internal Coordinates
                            (Angstroem and degrees)

        Definition                    Value    dE/dq     Step     New-Value
    ----------------------------------------------------------------------------
     1. B(H   1,C   0)                1.0829 -0.000094  0.0003    1.0833   
     2. B(H   2,C   0)                1.0830 -0.000062  0.0002    1.0832   
     3. B(H   3,C   0)                1.0831 -0.000030  0.0001    1.0831   
     4. B(Br  4,H   2)                2.9293 -0.000258  0.0354    2.9647   
     5. B(Br  4,H   1)                2.9293 -0.000258  0.0354    2.9647   
     6. B(Br  4,H   3)                2.9293 -0.000258  0.0354    2.9647   
     7. B(Br  4,C   0)                3.0857 -0.000297  0.0380    3.1237   
     8. B(Cl  5,C   0)                1.7822  0.000249 -0.0010    1.7812   
     9. A(H   1,C   0,H   3)          110.49  0.000011   -0.01    110.48   
    10. A(H   2,C   0,H   3)          110.47 -0.000021    0.01    110.48   
    11. A(H   1,C   0,Cl  5)          108.44  0.000013   -0.00    108.44   
    12. A(H   2,C   0,Cl  5)          108.44 -0.000011    0.01    108.45   
    13. A(H   3,C   0,Cl  5)          108.43 -0.000035    0.02    108.45   
    14. A(H   1,C   0,Br  4)           71.56  0.000012   -0.01     71.55   
    15. A(H   2,C   0,Br  4)           71.56  0.000011   -0.01     71.55   
    16. A(H   3,C   0,Br  4)           71.56  0.000011   -0.01     71.56   
    17. A(H   1,C   0,H   2)          110.50  0.000043   -0.02    110.48   
    ----------------------------------------------------------------------------

Geometry step timings:
Preparation and reading OPT file:      0.000 s ( 2.446 %)
Internal coordinates            :      0.000 s ( 3.193 %)
B/P matrices and projection     :      0.000 s (12.840 %)
Hessian update/contruction      :      0.000 s (28.668 %)
Making the step                 :      0.000 s ( 8.967 %)
Converting the step to Cartesian:      0.000 s ( 3.329 %)
Storing new data                :      0.000 s ( 7.065 %)
Checking convergence            :      0.000 s ( 8.764 %)
Final printing                  :      0.000 s (24.660 %)
Total time                      :      0.001 s

Time for energy+gradient        :      0.084 s
Time for complete geometry iter :      0.087 s

         *************************************************************
         *                GEOMETRY OPTIMIZATION CYCLE   3            *
         *************************************************************
---------------------------------
CARTESIAN COORDINATES (ANGSTROEM)
---------------------------------
  C    -0.000018   -0.000028   -0.407511
  H    -0.000022    1.027592   -0.064756
  H     0.889866   -0.513813   -0.064777
  H    -0.889847   -0.513777   -0.064798
  Br    0.000016    0.000028    2.716184
  Cl    0.000007    0.000016   -2.188729

----------------------------
CARTESIAN COORDINATES (A.U.)
----------------------------
  NO LB    ZA    FRAG    MASS        X           Y           Z
   0 C   6.0000    0    12.011   -0.000034   -0.000053   -0.770084
   1 H   1.0000    0     1.008   -0.000042    1.941867   -0.122370
   2 H   1.0000    0     1.008    1.681603   -0.970967   -0.122411
   3 H   1.0000    0     1.008   -1.681568   -0.970897   -0.122450
   4 Br 35.0000    0    79.900    0.000030    0.000053    5.132844
   5 Cl 17.0000    0    35.453    0.000013    0.000031   -4.136098

      -----------------------------------------------------------      
     |                   =====================                   |     
     |                           x T B                           |     
     |                   =====================                   |     
     |                         S. Grimme                         |     
     |          Mulliken Center for Theoretical Chemistry        |     
     |                    University of Bonn                     |     
      -----------------------------------------------------------      

   * xtb version 6.7.1 (edcfbbe) compiled by 'albert@albert-system' on 2024-07-22

   xtb is free software: you can redistribute it and/or modify it under
   the terms of the GNU Lesser General Public License as published by
   the Free Software Foundation, either version 3 of the License, or
   (at your option) any later version.
   
   xtb is distributed in the hope that it will be useful,
   but WITHOUT ANY WARRANTY; without even the implied warranty of
   MERCHANTABILITY or FITNESS FOR A PARTICULAR PURPOSE.  See the
   GNU Lesser General Public License for more details.
   
   Cite this work as:
   * C. Bannwarth, E. Caldeweyher, S. Ehlert, A. Hansen, P. Pracht,
     J. Seibert, S. Spicher, S. Grimme, WIREs Comput. Mol. Sci., 2020, 11,
     e01493. DOI: 10.1002/wcms.1493
   
   for GFN2-xTB:
   * C. Bannwarth, S. Ehlert and S. Grimme., J. Chem. Theory Comput., 2019,
     15, 1652-1671. DOI: 10.1021/acs.jctc.8b01176
   for GFN1-xTB:
   * S. Grimme, C. Bannwarth, P. Shushkov, J. Chem. Theory Comput., 2017,
     13, 1989-2009. DOI: 10.1021/acs.jctc.7b00118
   for GFN0-xTB:
   * P. Pracht, E. Caldeweyher, S. Ehlert, S. Grimme, ChemRxiv, 2019, preprint.
     DOI: 10.26434/chemrxiv.8326202.v1
   for GFN-FF:
   * S. Spicher and S. Grimme, Angew. Chem. Int. Ed., 2020, 59, 15665-15673.
     DOI: 10.1002/anie.202004239
   
   for ALPB and GBSA implicit solvation:
   * S. Ehlert, M. Stahn, S. Spicher, S. Grimme, J. Chem. Theory Comput.,
     2021, 17, 4250-4261. DOI: 10.1021/acs.jctc.1c00471
   
   for ddCOSMO and CPCM-X implicit solvation:
   * M. Stahn, S. Ehlert, S. Grimme, J. Phys. Chem. A,
     2023, XX, XXXX-XXXX. DOI: 10.1021/acs.jpca.3c04382
   
   for DFT-D4:
   * E. Caldeweyher, C. Bannwarth and S. Grimme, J. Chem. Phys., 2017,
     147, 034112. DOI: 10.1063/1.4993215
   * E. Caldeweyher, S. Ehlert, A. Hansen, H. Neugebauer, S. Spicher,
     C. Bannwarth and S. Grimme, J. Chem. Phys., 2019, 150, 154122.
     DOI: 10.1063/1.5090222
   * E. Caldeweyher, J.-M. Mewes, S. Ehlert and S. Grimme, Phys. Chem. Chem. Phys.
     2020, 22, 8499-8512. DOI: 10.1039/D0CP00502A
   
   for sTDA-xTB:
   * S. Grimme and C. Bannwarth, J. Chem. Phys., 2016, 145, 054103.
     DOI: 10.1063/1.4959605
   
   in the mass-spec context:
   * V. Asgeirsson, C. Bauer and S. Grimme, Chem. Sci., 2017, 8, 4879.
     DOI: 10.1039/c7sc00601b
   * J. Koopman and S. Grimme, ACS Omega 2019, 4, 12, 15120-15133.
     DOI: 10.1021/acsomega.9b02011
   
   for metadynamics refer to:
   * S. Grimme, J. Chem. Theory Comput., 2019, 155, 2847-2862
     DOI: 10.1021/acs.jctc.9b00143
   
   for SPH calculations refer to:
   * S. Spicher and S. Grimme, J. Chem. Theory Comput., 2021, 17, 1701-1714
     DOI: 10.1021/acs.jctc.0c01306
   
   for ONIOM refer to:
   * C. Plett, A. Katbashev, S. Ehlert, S. Grimme, M. Bursch,
     Phys. Chem. Chem. Phys., 2023, 25, 17860-17868. DOI: 10.1039/D3CP02178E
   
   for DIPRO refer to:
   * J. Kohn, N. Gildemeister, S. Grimme, D. Fazzi, A. Hansen,
     J. Chem. Phys., 2023, just accepted.
   
   for PTB refer to:
   * S. Grimme, M. Mueller, A. Hansen, J. Chem. Phys., 2023, 158, 124111.
     DOI: 10.1063/5.0137838
   
   with help from (in alphabetical order)
   P. Atkinson, C. Bannwarth, F. Bohle, G. Brandenburg, E. Caldeweyher
   M. Checinski, S. Dohm, S. Ehlert, S. Ehrlich, I. Gerasimov, C. Hölzer
   A. Katbashev, J. Kohn, J. Koopman, C. Lavigne, S. Lehtola, F. März, M. Müller,
   F. Musil, H. Neugebauer, J. Pisarek, C. Plett, P. Pracht, F. Pultar,
   J. Seibert, P. Shushkov, S. Spicher, M. Stahn, M. Steiner, T. Strunk,
   J. Stückrath, T. Rose, and J. Unsleber
   
 * started run on 2026/03/16 at 14:18:35.980     
   ID    Z sym.   atoms
    1    6 C      1
    2    1 H      2-4
    3   35 Br     5
    4   17 Cl     6

           -------------------------------------------------
          |                Calculation Setup                |
           -------------------------------------------------

          program call               : /software/orca-6.1.0-el8-x86_64/bin/otool_xtb reactant_optfreq_XTB.xyz --grad -c -1 -u 0 -P 8 --namespace reactant_optfreq --input reactant_optfreq_XTB.input.tmp --acc 0.200000
          hostname                   : midway3-login4.rcc.local
          calculation namespace      : reactant_optfreq
          coordinate file            : reactant_optfreq_XTB.xyz
          omp threads                :                     8


molecular fragmentation (1/2 indicates fragments):
111121
# atoms in fragment 1/2:     5     1
 fragment masses (1/2) :       50.49       79.90
CMA distance (Bohr)    :   8.228
constraining FC (au)   :  0.0500

           -------------------------------------------------
          |                 G F N 2 - x T B                 |
           -------------------------------------------------

        Reference                      10.1021/acs.jctc.8b01176
      * Hamiltonian:
        H0-scaling (s, p, d)           1.850000    2.230000    2.230000
        zeta-weighting                 0.500000
      * Dispersion:
        s8                             2.700000
        a1                             0.520000
        a2                             5.000000
        s9                             5.000000
      * Repulsion:
        kExp                           1.500000    1.000000
        rExp                           1.000000
      * Coulomb:
        alpha                          2.000000
        third order                    shell-resolved
        anisotropic                    true
        a3                             3.000000
        a5                             4.000000
        cn-shift                       1.200000
        cn-exp                         4.000000
        max-rad                        5.000000

q/qsh data taken from xtbrestart
CAMM data taken from xtbrestart

          ...................................................
          :                      SETUP                      :
          :.................................................:
          :  # basis functions                  27          :
          :  # atomic orbitals                  25          :
          :  # shells                           11          :
          :  # electrons                        22          :
          :  max. iterations                   250          :
          :  Hamiltonian                  GFN2-xTB          :
          :  restarted?                       true          :
          :  GBSA solvation                  false          :
          :  PC potential                    false          :
          :  electronic temp.          300.0000000     K    :
          :  accuracy                    0.2000000          :
          :  -> integral cutoff          0.3198970E+02      :
          :  -> integral neglect         0.2000000E-08      :
          :  -> SCF convergence          0.2000000E-06 Eh   :
          :  -> wf. convergence          0.2000000E-04 e    :
          :  Broyden damping             0.4000000          :
          :  net charge                         -1          :
          :  unpaired electrons                  0          :
          ...................................................

 iter      E             dE          RMSdq      gap      omega  full diag
   1    -12.6150236 -0.126150E+02  0.109E-01    3.13       0.0  T
   2    -12.6150250 -0.139396E-05  0.578E-02    3.12       1.0  T
   3    -12.6150255 -0.505400E-06  0.155E-02    3.11       2.6  T
   4    -12.6150256 -0.965353E-07  0.113E-02    3.11       3.6  T
   5    -12.6150257 -0.916042E-07  0.344E-03    3.11      11.9  T
   6    -12.6150257 -0.653759E-08  0.607E-04    3.11      67.2  T
   7    -12.6150257 -0.345372E-09  0.375E-04    3.11     108.7  T
   8    -12.6150257 -0.276051E-09  0.236E-04    3.11     173.3  T
   9    -12.6150257 -0.199343E-09  0.155E-05    3.11    2634.9  T
  10    -12.6150257 -0.198952E-12  0.104E-06    3.11   39358.3  T

   *** convergence criteria satisfied after 10 iterations ***

         #    Occupation            Energy/Eh            Energy/eV
      -------------------------------------------------------------
         1        2.0000           -0.9394751             -25.5644
       ...           ...                  ...                  ...
         5        2.0000           -0.3789003             -10.3104
         6        2.0000           -0.3740574             -10.1786
         7        2.0000           -0.2978658              -8.1053
         8        2.0000           -0.2978653              -8.1053
         9        2.0000           -0.1550748              -4.2198
        10        2.0000           -0.1518685              -4.1326
        11        2.0000           -0.1518684              -4.1326 (HOMO)
        12                         -0.0375938              -1.0230 (LUMO)
        13                          0.1408445               3.8326
        14                          0.1408478               3.8327
        15                          0.1446936               3.9373
        16                          0.1446936               3.9373
       ...                                ...                  ...
        25                          0.3903415              10.6217
      -------------------------------------------------------------
                  HL-Gap            0.1142746 Eh            3.1096 eV
             Fermi-level           -0.0947311 Eh           -2.5778 eV

 SCC (total)                   0 d,  0 h,  0 min,  0.060 sec
 SCC setup                      ...        0 min,  0.000 sec (  0.402%)
 Dispersion                     ...        0 min,  0.000 sec (  0.095%)
 classical contributions        ...        0 min,  0.000 sec (  0.059%)
 integral evaluation            ...        0 min,  0.057 sec ( 95.482%)
 iterations                     ...        0 min,  0.002 sec (  2.730%)
 molecular gradient             ...        0 min,  0.001 sec (  0.966%)
 printout                       ...        0 min,  0.000 sec (  0.232%)

         :::::::::::::::::::::::::::::::::::::::::::::::::::::
         ::                     SUMMARY                     ::
         :::::::::::::::::::::::::::::::::::::::::::::::::::::
         :: total energy             -12.557869329677 Eh    ::
         :: gradient norm              0.000748960713 Eh/a0 ::
         :: HOMO-LUMO gap              3.109571101978 eV    ::
         ::.................................................::
         :: SCC energy               -12.615026443299 Eh    ::
         :: -> isotropic ES            0.166650847923 Eh    ::
         :: -> anisotropic ES         -0.001576951558 Eh    ::
         :: -> anisotropic XC          0.001265192465 Eh    ::
         :: -> dispersion             -0.002646674423 Eh    ::
         :: repulsion energy           0.057157113622 Eh    ::
         :: add. restraining           0.000000000000 Eh    ::
         :: total charge              -1.000000000000 e     ::
         :::::::::::::::::::::::::::::::::::::::::::::::::::::


Property printout bound to 'properties.out'

           -------------------------------------------------
          | TOTAL ENERGY              -12.557869329677 Eh   |
          | GRADIENT NORM               0.000748960713 Eh/α |
          | HOMO-LUMO GAP               3.109571101978 eV   |
           -------------------------------------------------

------------------------------------------------------------------------
 * finished run on 2026/03/16 at 14:18:36.056     
------------------------------------------------------------------------
 total:
 * wall-time:     0 d,  0 h,  0 min,  0.076 sec
 *  cpu-time:     0 d,  0 h,  0 min,  0.294 sec
 * ratio c/w:     3.858 speedup
 SCF:
 * wall-time:     0 d,  0 h,  0 min,  0.060 sec
 *  cpu-time:     0 d,  0 h,  0 min,  0.211 sec
 * ratio c/w:     3.509 speedup


-------------------------   --------------------
FINAL SINGLE POINT ENERGY       -12.557869329680
-------------------------   --------------------


-------------
DIPOLE MOMENT
-------------
                                X             Y             Z
Total Dipole Moment    :     -0.00000      -0.00000      -3.63400
                        -----------------------------------------
Magnitude (a.u.)       :      3.63400
Magnitude (Debye)      :      9.23689


------------------
CARTESIAN GRADIENT
------------------

   1   C   :   -0.000032944   -0.000057303    0.000537053
   2   H   :   -0.000002064   -0.000011531    0.000046641
   3   H   :   -0.000047605    0.000022710    0.000034906
   4   H   :    0.000081917    0.000044903    0.000023226
   5   Br  :    0.000000116    0.000000201   -0.000168275
   6   Cl  :    0.000000581    0.000001019   -0.000473551

Difference to translation invariance:
           :    0.0000000000   -0.0000000000    0.0000000000

Difference to rotation invariance:
           :    0.0000000005   -0.0000000002   -0.0000000000

Norm of the Cartesian gradient     ...    0.0007489607
RMS gradient                       ...    0.0001765317
MAX gradient                       ...    0.0005370531
------------------------------------------------------------------------------
                         ORCA GEOMETRY RELAXATION STEP
------------------------------------------------------------------------------

Reading the OPT-File                    .... done
Getting information on internals        .... done
Copying old internal coords+grads       .... done
Making the new internal coordinates     .... (2022 redundants) done
Validating the new internal coordinates .... (2022 redundants) done
Calculating the B-matrix                .... done
Calculating the G,G- and P matrices     .... done
Transforming gradient to internals      .... done
Projecting the internal gradient        .... done
Number of atoms                         ....   6
Number of internal coordinates          ....  17
Current Energy                          ....   -12.557869330 Eh
Current gradient norm                   ....     0.000748961 Eh/bohr
Maximum allowed component of the step   ....  0.300
Current trust radius                    ....  0.200
Updating the Hessian (BFGS)             .... done
Forming the augmented Hessian           .... done
Diagonalizing the augmented Hessian     .... done
Last element of RFO vector              ....  0.999556125
Lowest eigenvalues of augmented Hessian:
 -0.000003560  0.003258447  0.043469792  0.043502347  0.196157341
Length of the computed step             ....  0.029805061
The final length of the internal step   ....  0.029805061
Converting the step to Cartesian space:
 Initial RMS(Int)=    0.0072287892
Transforming coordinates:
 Iter   0:  RMS(Cart)=    0.0032895434 RMS(Int)=    0.0072296625
done
Storing new coordinates                 .... done
The predicted energy change is          ....    -0.000001782
Previously predicted energy change      ....    -0.000037519
Actually observed energy change         ....    -0.000042363
Ratio of predicted to observed change   ....     1.129091277
New trust radius                        ....     0.300000000

                                .--------------------.
          ----------------------|Geometry convergence|-------------------------
          Item                value                   Tolerance       Converged
          ---------------------------------------------------------------------
          Energy change      -0.0000423628            0.0000050000      NO
          RMS gradient        0.0001188197            0.0001000000      NO
          MAX gradient        0.0004735508            0.0003000000      NO
          RMS step            0.0072287892            0.0020000000      NO
          MAX step            0.0156121155            0.0040000000      NO
          -------------------------------------------------------------------------
          ........................................................
          Max(Bonds)      0.0083      Max(Angles)    0.00
          Max(Dihed)        0.00      Max(Improp)    0.00
          ---------------------------------------------------------------------

The optimization has not yet converged - more geometry cycles are needed


    ---------------------------------------------------------------------------
                         Redundant Internal Coordinates
                            (Angstroem and degrees)

        Definition                    Value    dE/dq     Step     New-Value
    ----------------------------------------------------------------------------
     1. B(H   1,C   0)                1.0833  0.000005  0.0000    1.0833   
     2. B(H   2,C   0)                1.0832 -0.000037  0.0001    1.0833   
     3. B(H   3,C   0)                1.0831 -0.000080  0.0001    1.0833   
     4. B(Br  4,H   2)                2.9647 -0.000045  0.0077    2.9725   
     5. B(Br  4,H   1)                2.9647 -0.000045  0.0077    2.9724   
     6. B(Br  4,H   3)                2.9647 -0.000045  0.0077    2.9725   
     7. B(Br  4,C   0)                3.1237 -0.000040  0.0083    3.1320   
     8. B(Cl  5,C   0)                1.7812  0.000474 -0.0010    1.7802   
     9. A(H   1,C   0,H   3)          110.48 -0.000003   -0.00    110.48   
    10. A(H   2,C   0,H   3)          110.48 -0.000008    0.00    110.48   
    11. A(H   1,C   0,Cl  5)          108.44  0.000001   -0.00    108.44   
    12. A(H   2,C   0,Cl  5)          108.45  0.000003    0.00    108.45   
    13. A(H   3,C   0,Cl  5)          108.45  0.000005    0.00    108.45   
    14. A(H   1,C   0,Br  4)           71.55 -0.000004   -0.00     71.55   
    15. A(H   2,C   0,Br  4)           71.55 -0.000003   -0.00     71.55   
    16. A(H   3,C   0,Br  4)           71.56 -0.000002   -0.00     71.55   
    17. A(H   1,C   0,H   2)          110.48  0.000002   -0.00    110.47   
    ----------------------------------------------------------------------------

Geometry step timings:
Preparation and reading OPT file:      0.000 s ( 2.816 %)
Internal coordinates            :      0.000 s ( 4.183 %)
B/P matrices and projection     :      0.000 s (12.792 %)
Hessian update/contruction      :      0.000 s (28.560 %)
Making the step                 :      0.000 s ( 8.528 %)
Converting the step to Cartesian:      0.000 s ( 3.057 %)
Storing new data                :      0.000 s ( 7.321 %)
Checking convergence            :      0.000 s ( 8.367 %)
Final printing                  :      0.000 s (24.296 %)
Total time                      :      0.001 s

Time for energy+gradient        :      0.086 s
Time for complete geometry iter :      0.088 s

         *************************************************************
         *                GEOMETRY OPTIMIZATION CYCLE   4            *
         *************************************************************
---------------------------------
CARTESIAN COORDINATES (ANGSTROEM)
---------------------------------
  C    -0.000020   -0.000033   -0.409077
  H    -0.000001    1.027623   -0.066300
  H     0.889955   -0.513815   -0.066302
  H    -0.889966   -0.513821   -0.066303
  Br    0.000017    0.000030    2.722875
  Cl    0.000017    0.000034   -2.189277

----------------------------
CARTESIAN COORDINATES (A.U.)
----------------------------
  NO LB    ZA    FRAG    MASS        X           Y           Z
   0 C   6.0000    0    12.011   -0.000039   -0.000062   -0.773044
   1 H   1.0000    0     1.008   -0.000002    1.941926   -0.125290
   2 H   1.0000    0     1.008    1.681771   -0.970970   -0.125294
   3 H   1.0000    0     1.008   -1.681793   -0.970980   -0.125295
   4 Br 35.0000    0    79.900    0.000032    0.000057    5.145488
   5 Cl 17.0000    0    35.453    0.000031    0.000063   -4.137135

      -----------------------------------------------------------      
     |                   =====================                   |     
     |                           x T B                           |     
     |                   =====================                   |     
     |                         S. Grimme                         |     
     |          Mulliken Center for Theoretical Chemistry        |     
     |                    University of Bonn                     |     
      -----------------------------------------------------------      

   * xtb version 6.7.1 (edcfbbe) compiled by 'albert@albert-system' on 2024-07-22

[...]
        25                          0.3897291              10.6051
      -------------------------------------------------------------
                  HL-Gap            0.1141701 Eh            3.1067 eV
             Fermi-level           -0.0945737 Eh           -2.5735 eV

 SCC (total)                   0 d,  0 h,  0 min,  0.068 sec
 SCC setup                      ...        0 min,  0.000 sec (  0.293%)
 Dispersion                     ...        0 min,  0.000 sec (  0.090%)
 classical contributions        ...        0 min,  0.000 sec (  0.053%)
 integral evaluation            ...        0 min,  0.066 sec ( 96.884%)
 iterations                     ...        0 min,  0.001 sec (  1.586%)
 molecular gradient             ...        0 min,  0.001 sec (  0.860%)
 printout                       ...        0 min,  0.000 sec (  0.209%)

         :::::::::::::::::::::::::::::::::::::::::::::::::::::
         ::                     SUMMARY                     ::
         :::::::::::::::::::::::::::::::::::::::::::::::::::::
         :: total energy             -12.557871636459 Eh    ::
         :: gradient norm              0.000229512034 Eh/a0 ::
         :: HOMO-LUMO gap              3.106727104459 eV    ::
         ::.................................................::
         :: SCC energy               -12.615024350970 Eh    ::
         :: -> isotropic ES            0.166854504422 Eh    ::
         :: -> anisotropic ES         -0.001572280106 Eh    ::
         :: -> anisotropic XC          0.001226791203 Eh    ::
         :: -> dispersion             -0.002642251567 Eh    ::
         :: repulsion energy           0.057152714511 Eh    ::
         :: add. restraining           0.000000000000 Eh    ::
         :: total charge              -1.000000000000 e     ::
         :::::::::::::::::::::::::::::::::::::::::::::::::::::

           ------------------------------------------------- 
          |                Numerical Hessian                |
           ------------------------------------------------- 
step length          :   0.00500
SCC accuracy         :   0.30000
Hessian scale factor :   1.00000
frozen atoms in %    :   0.00000    0
RMS gradient         :   0.00023
estimated CPU  time      0.00 min
estimated wall time      0.00 min

writing file <hessian>.

 projected vibrational frequencies (cm⁻¹)
eigval :       -0.00    -0.00    -0.00     0.00     0.00     0.00
eigval :       87.93    87.94    94.13   642.65   984.63   984.64
eigval :     1312.67  1438.42  1438.55  3061.15  3074.22  3074.31

Property printout bound to 'properties.out'
Molecule has the following symmetry elements: (C3) 3*(sigma) 
It seems to be the C3v point group

           -------------------------------------------------
          | TOTAL ENERGY              -12.557871636459 Eh   |
          | TOTAL ENTHALPY            -12.514502004724 Eh   |
          | TOTAL FREE ENERGY         -12.550276330318 Eh   |
          | GRADIENT NORM               0.000229520761 Eh/α |
          | HOMO-LUMO GAP               3.106726549057 eV   |
           -------------------------------------------------

------------------------------------------------------------------------
 * finished run on 2026/03/16 at 14:18:36.370     
------------------------------------------------------------------------
 total:
 * wall-time:     0 d,  0 h,  0 min,  0.100 sec
 *  cpu-time:     0 d,  0 h,  0 min,  0.381 sec
 * ratio c/w:     3.802 speedup
 SCF:
 * wall-time:     0 d,  0 h,  0 min,  0.068 sec
 *  cpu-time:     0 d,  0 h,  0 min,  0.183 sec
 * ratio c/w:     2.686 speedup
 analytical hessian:
 * wall-time:     0 d,  0 h,  0 min,  0.015 sec
 *  cpu-time:     0 d,  0 h,  0 min,  0.120 sec
 * ratio c/w:     7.875 speedup


-------------------------   --------------------
FINAL SINGLE POINT ENERGY       -12.557871636460
-------------------------   --------------------


-------------
DIPOLE MOMENT
-------------
                                X             Y             Z
Total Dipole Moment    :     -0.00000      -0.00000      -3.65400
                        -----------------------------------------
Magnitude (a.u.)       :      3.65400
Magnitude (Debye)      :      9.28773


-----------------------
VIBRATIONAL FREQUENCIES
-----------------------

Scaling factor for frequencies =  1.000000000  (already applied!)

     0:       0.00 cm**-1
     1:       0.00 cm**-1
     2:       0.00 cm**-1
     3:       0.00 cm**-1
     4:       0.00 cm**-1
     5:       0.00 cm**-1
     6:      87.93 cm**-1
     7:      87.94 cm**-1
     8:      94.13 cm**-1
     9:     642.64 cm**-1
    10:     984.60 cm**-1
    11:     984.61 cm**-1
    12:    1312.63 cm**-1
    13:    1438.38 cm**-1
    14:    1438.51 cm**-1
    15:    3061.06 cm**-1
    16:    3074.13 cm**-1
    17:    3074.22 cm**-1


------------
NORMAL MODES
------------

These modes are the Cartesian displacements weighted by the diagonal matrix
M(i,i)=1/sqrt(m[i]) where m[i] is the mass of the displaced atom
Thus, these vectors are normalized but *not* orthogonal

                  0          1          2          3          4          5    
      0       0.000000   0.000000   0.000000   0.000000   0.000000   0.000000
      1       0.000000   0.000000   0.000000   0.000000   0.000000   0.000000
      2       0.000000   0.000000   0.000000   0.000000   0.000000   0.000000
      3       0.000000   0.000000   0.000000   0.000000   0.000000   0.000000
      4       0.000000   0.000000   0.000000   0.000000   0.000000   0.000000
      5       0.000000   0.000000   0.000000   0.000000   0.000000   0.000000
      6       0.000000   0.000000   0.000000   0.000000   0.000000   0.000000
      7       0.000000   0.000000   0.000000   0.000000   0.000000   0.000000
      8       0.000000   0.000000   0.000000   0.000000   0.000000   0.000000
      9       0.000000   0.000000   0.000000   0.000000   0.000000   0.000000
     10       0.000000   0.000000   0.000000   0.000000   0.000000   0.000000
     11       0.000000   0.000000   0.000000   0.000000   0.000000   0.000000
     12       0.000000   0.000000   0.000000   0.000000   0.000000   0.000000
     13       0.000000   0.000000   0.000000   0.000000   0.000000   0.000000
     14       0.000000   0.000000   0.000000   0.000000   0.000000   0.000000
     15       0.000000   0.000000   0.000000   0.000000   0.000000   0.000000
     16       0.000000   0.000000   0.000000   0.000000   0.000000   0.000000
     17       0.000000   0.000000   0.000000   0.000000   0.000000   0.000000
                  6          7          8          9         10         11    
      0      -0.018037   0.393296  -0.000068  -0.000006  -0.055475  -0.099303
      1       0.393298   0.018037  -0.000370   0.000093  -0.099312   0.055482
      2       0.000023   0.000019   0.445621   0.631221   0.000002  -0.000007
      3      -0.022206   0.483272  -0.000083   0.000002   0.117991   0.211213
      4       0.489578   0.022451   0.004561   0.040751   0.136681  -0.076365
      5      -0.284374  -0.013027   0.420772   0.421882  -0.661731   0.369680
      6      -0.025116   0.487802   0.004266   0.035417   0.119077   0.137291
      7       0.484937   0.019420  -0.002967  -0.020191   0.210689  -0.075360
      8       0.153550  -0.239765   0.420414   0.421765   0.010735  -0.757989
      9      -0.019595   0.488058  -0.004435  -0.035418   0.054482   0.173403
     10       0.484607   0.025044  -0.002968  -0.020194   0.174649  -0.139918
     11       0.130957   0.252849   0.420331   0.421800   0.651109   0.388282
     12       0.001398  -0.030493   0.000005  -0.000000  -0.000032  -0.000057
     13      -0.030493  -0.001398   0.000028  -0.000008  -0.000057   0.000032
     14      -0.000052  -0.000012  -0.278103   0.000333   0.000000   0.000000
     15       0.004862  -0.106007   0.000019   0.000003   0.010576   0.018932
     16      -0.106007  -0.004861   0.000101  -0.000025   0.018931  -0.010576
     17       0.000105   0.000019   0.439920  -0.250578  -0.000004   0.000003
                 12         13         14         15         16         17    
      0      -0.000004   0.004805   0.071147   0.000089   0.014977  -0.089986
      1      -0.000017  -0.071127   0.004806   0.000634  -0.089985  -0.014977
      2       0.100652  -0.000034   0.000004   0.037689   0.000278   0.000087
      3       0.000025  -0.050437  -0.746624   0.000037   0.007037  -0.042191
      4       0.187773  -0.123151   0.008334  -0.558601   0.756706   0.125362
      5      -0.542817   0.296240  -0.020014  -0.165180   0.249630   0.041375
      6       0.162701   0.370169  -0.119777  -0.477308  -0.444257   0.501024
      7      -0.093786   0.503747  -0.412351   0.275865   0.218356  -0.320632
      8      -0.542833  -0.165359  -0.246430  -0.162753  -0.162710   0.195956
      9      -0.162692  -0.382912  -0.068902   0.476202   0.257846   0.618895
     10      -0.093810   0.554627   0.340839   0.275183   0.102629   0.374644
     11      -0.542812  -0.130694   0.266395  -0.162329  -0.090408  -0.238437
     12      -0.000000   0.000003   0.000052  -0.000000  -0.000003   0.000019
     13      -0.000000  -0.000052   0.000004  -0.000000   0.000019   0.000003
     14       0.000725  -0.000000   0.000000   0.000066   0.000000   0.000000
     15       0.000000   0.000161   0.002373   0.000000   0.000033  -0.000198
     16       0.000001  -0.002377   0.000160   0.000001  -0.000198  -0.000033
     17       0.010566   0.000007  -0.000000   0.001023   0.000004   0.000002


The first frequency considered to be a vibration is 6
The total number of vibrations considered is 12


--------------------------
THERMOCHEMISTRY AT 298.15K
--------------------------

Temperature         ...   298.15 K
Pressure            ...     1.00 atm
Total Mass          ...   130.39 AMU
Quasi RRHO          ...     True
Cut-Off Frequency   ...     1.00 cm^-1

Throughout the following assumptions are being made:
  (1) The electronic state is orbitally nondegenerate
  (2) There are no thermally accessible electronically excited states
  (3) Hindered rotations indicated by low frequency modes are not
      treated as such but are treated as vibrations and this may
      cause some error
  (4) All equations used are the standard statistical mechanics
      equations for an ideal gas
  (5) All vibrations are strictly harmonic

freq.      87.93  E(vib)   ...       0.48 
freq.      87.94  E(vib)   ...       0.48 
freq.      94.13  E(vib)   ...       0.47 
freq.     642.64  E(vib)   ...       0.09 
freq.     984.60  E(vib)   ...       0.02 
freq.     984.61  E(vib)   ...       0.02 
freq.    1312.63  E(vib)   ...       0.01 
freq.    1438.38  E(vib)   ...       0.00 
freq.    1438.51  E(vib)   ...       0.00 
freq.    3061.06  E(vib)   ...       0.00 
freq.    3074.13  E(vib)   ...       0.00 
freq.    3074.22  E(vib)   ...       0.00 

------------
INNER ENERGY
------------

The inner energy is: U= E(el) + E(ZPE) + E(vib) + E(rot) + E(trans)
    E(el)   - is the total energy from the electronic structure calculation
              = E(kin-el) + E(nuc-el) + E(el-el) + E(nuc-nuc)
    E(ZPE)  - the the zero temperature vibrational energy from the frequency calculation
    E(vib)  - the the finite temperature correction to E(ZPE) due to population
              of excited vibrational states
    E(rot)  - is the rotational thermal energy
    E(trans)- is the translational thermal energy

Summary of contributions to the inner energy U:
Electronic energy                ...    -12.55787164 Eh
Zero point energy                ...      0.03709036 Eh      23.27 kcal/mol
Thermal vibrational correction   ...      0.00250147 Eh       1.57 kcal/mol
Thermal rotational correction    ...      0.00141627 Eh       0.89 kcal/mol
Thermal translational correction ...      0.00141627 Eh       0.89 kcal/mol
-----------------------------------------------------------------------
Total thermal energy                    -12.51544726 Eh


Summary of corrections to the electronic energy:
(perhaps to be used in another calculation)
Total thermal correction                  0.00533401 Eh       3.35 kcal/mol
Non-thermal (ZPE) correction              0.03709036 Eh      23.27 kcal/mol
-----------------------------------------------------------------------
Total correction                          0.04242438 Eh      26.62 kcal/mol


--------
ENTHALPY
--------

The enthalpy is H = U + kB*T
                kB is Boltzmann's constant
Total thermal energy              ...    -12.51544726 Eh 
Thermal Enthalpy correction       ...      0.00094421 Eh       0.59 kcal/mol
-----------------------------------------------------------------------
Total Enthalpy                    ...    -12.51450305 Eh


WARNING (ORCA/SYM): The number of Z matrix atoms does not agree with
the number of centers in the basis set. The point group will therefore
be determined without considering basis set information.


Note: Rotational entropy computed according to Herzberg 
Infrared and Raman Spectra, Chapter V,1, Van Nostrand Reinhold, 1945 
Point Group:  C3v, Symmetry Number:   3  
Rotational constants in cm-1:     5.278775     0.026894     0.026894 

Vibrational entropy computed according to the QRRHO of S. Grimme
Chem.Eur.J. 2012 18 9955 using a reference frequency of 100.0 cm-1


-------
ENTROPY
-------

The entropy contributions are T*S = T*(S(el)+S(vib)+S(rot)+S(trans))
     S(el)   - electronic entropy
     S(vib)  - vibrational entropy
     S(rot)  - rotational entropy
     S(trans)- translational entropy
The entropies will be listed as multiplied by the temperature to get
units of energy

Electronic entropy                ...      0.00000000 Eh      0.00 kcal/mol
Vibrational entropy               ...      0.00491671 Eh      3.09 kcal/mol
Rotational entropy                ...      0.01110211 Eh      6.97 kcal/mol
Translational entropy             ...      0.01924704 Eh     12.08 kcal/mol
-----------------------------------------------------------------------
Final entropy term                ...      0.03526587 Eh     22.13 kcal/mol

In case the symmetry of your molecule has not been determined correctly
or in case you have a reason to use a different symmetry number we print 
out the resulting rotational entropy values for sn=1,12:

 non-linear molecules -----------------------------------
|  sn= 1 | S(rot)=       0.01213940 Eh      7.62 kcal/mol|
|  sn= 2 | S(rot)=       0.01148495 Eh      7.21 kcal/mol|
|  sn= 3 | S(rot)=       0.01110211 Eh      6.97 kcal/mol|
|  sn= 4 | S(rot)=       0.01083049 Eh      6.80 kcal/mol|
|  sn= 5 | S(rot)=       0.01061980 Eh      6.66 kcal/mol|
|  sn= 6 | S(rot)=       0.01044766 Eh      6.56 kcal/mol|
|  sn= 7 | S(rot)=       0.01030211 Eh      6.46 kcal/mol|
|  sn= 8 | S(rot)=       0.01017603 Eh      6.39 kcal/mol|
|  sn= 9 | S(rot)=       0.01006482 Eh      6.32 kcal/mol|
|  sn=10 | S(rot)=       0.00996535 Eh      6.25 kcal/mol|
|  sn=11 | S(rot)=       0.00987536 Eh      6.20 kcal/mol|
|  sn=12 | S(rot)=       0.00979320 Eh      6.15 kcal/mol|
 linear molecules ---------------------------------------
|  Dinfh | S(rot)=       0.00873981 Eh      5.48 kcal/mol|
|  Cinfv | S(rot)=       0.00939427 Eh      5.89 kcal/mol|
 --------------------------------------------------------


-------------------
GIBBS FREE ENERGY
-------------------

The Gibbs free energy is G = H - T*S

Total enthalpy                    ...    -12.51450305 Eh 
Total entropy correction          ...     -0.03526587 Eh    -22.13 kcal/mol
-----------------------------------------------------------------------
Final Gibbs free energy         ...    -12.54976892 Eh

For completeness - the Gibbs free energy minus the electronic energy
G-E(el)                           ...      0.00810272 Eh      5.08 kcal/mol


--------------------------------
SUGGESTED CITATIONS FOR THIS RUN
--------------------------------

Below you find a list of papers that are relevant to this ORCA run
We neither can nor want to force you to cite these papers, but we appreciate if you do
You receive ORCA, which is the product of decades of hard work by many enthusiastic individuals, for free
The only thing we kindly ask in return is that you cite our papers,
We deeply appreciate it, if you show your appreciation for ORCA by not just citing the generic ORCA reference.

Please note that relegating all ORCA citations to the supporting information does *not* help us.
SI sections are not indexed - citations you put there will not count into any citation statistics
But we need these citations in order to attract the funding resources that allow us to do what we are doing

Therefore, if you are a happy ORCA user, please consider citing a few of the papers listed below in the main body of your paper

In addition to the list printed below, the program has created the file reactant_optfreq.bibtex that contains the list in bibtex format
You can import this file easily into all common literature databanks and citation aid programs


List of essential papers. We consider these as the minimum necessary citations

  1. Bannwarth, C.; Ehlert, S.; Grimme, S.
     GFN2-xTB—An Accurate and Broadly Parametrized Self-Consistent Tight-Binding Quantum Chemical Method with Multipole Electrostatics and Density-Dependent Dispersion Contributions
     J. Chem. Theory Comput. 2019 15(3), 1652-1671
     doi.org/10.1021/acs.jctc.8b01176
  2. Neese, F.
     Software update: the ORCA program system, version 6.0
     WIRES Comput. Molec. Sci. 2025 15(1), e70019
     doi.org/10.1002/wcms.7019

List of papers to cite with high priority. The work reported in these papers was absolutely
necessary for this run to complete.
Our perspective: the developers of density functionals and basis sets usually get cited in chemistry papers
Good! But without the algorithms to do something with them, the functionals or basis sets would not do anything.
Hence, in our opinion, the algorithm design and method developments papers are equally worthy of getting cited

  1. Bykov, D.; Petrenko, T.; Izsak, R.; Kossmann, S.; Becker, U.; Valeev, E.; Neese, F.
     Efficient implementation of the analytic second derivatives of Hartree-Fock and hybrid DFT energies: a detailed analysis of different approximations
     Molec. Phys. 2015 113 , 1961-1977
     doi.org/10.1080/00268976.2015.1025114
  2. Bannwarth, C.; Caldeweyher, E.; Ehlert, S.; Hansen, A.; Pracht, P.; Seibert, J.; Spicher, S.; Grimme, S.
     Extended tight-binding quantum chemistry methods
     WIRES Comput. Molec. Sci. 2020 11(2), e1493
     doi.org/10.1002/wcms.1493

List of suggested additional citations. These are papers that are important in the 'surrounding' of 
of this run, or papers that preceded the highly important papers. If you like your results we are grateful for a citation.

  1. Neese, F.
     The ORCA program system
     WIRES Comput. Molec. Sci. 2012 2(1), 73-78
     doi.org/10.1002/wcms.81
  2. Neese, F.
     Software update: the ORCA program system, version 4.0
     WIRES Comput. Molec. Sci. 2018 8(1), 1-6
     doi.org/10.1002/wcms.1327
  3. Neese, F.; Wennmohs, F.; Becker, U.; Riplinger, C.
     The ORCA quantum chemistry program package
     J. Chem. Phys. 2020 152(22), 224108
     doi.org/10.1063/5.0004608
  4. Neese, F.
     Software update: The ORCA program system—Version 5.0
     WIRES Comput. Molec. Sci. 2022 12(1), e1606
     doi.org/10.1002/wcms.1606

List of optional additional citations

  1. Neese, F.
     Approximate second-order SCF convergence for spin unrestricted wavefunctions
     Chem. Phys. Lett. 2000 325(1-3), 93-98
     doi.org/10.1016/s0009-2614(00)00662-x

Timings for individual modules:

Sum of individual times          ...        0.541 sec (=   0.009 min)
Geometry relaxation              ...        0.011 sec (=   0.000 min)   2.1 %
XTB module                       ...        0.530 sec (=   0.009 min)  97.9 %
                             ****ORCA TERMINATED NORMALLY****
TOTAL RUN TIME: 0 days 0 hours 0 minutes 1 seconds 335 msec
