
                                 *****************
                                 * O   R   C   A *
                                 *****************

                                            #,                                       
                                            ###                                      
                                            ####                                     
                                            #####                                    
                                            ######                                   
                                           ########,                                 
                                     ,,################,,,,,                         
                               ,,#################################,,                 
                          ,,##########################################,,             
                       ,#########################################, ''#####,          
                    ,#############################################,,   '####,        
                  ,##################################################,,,,####,       
                ,###########''''           ''''###############################       
              ,#####''   ,,,,##########,,,,          '''####'''          '####       
            ,##' ,,,,###########################,,,                        '##       
           ' ,,###''''                  '''############,,,                           
         ,,##''                                '''############,,,,        ,,,,,,###''
      ,#''                                            '''#######################'''  
     '                                                          ''''####''''         
             ,#######,   #######,   ,#######,      ##                                
            ,#'     '#,  ##    ##  ,#'     '#,    #''#        ,####,    ,#,          
            ##       ##  ##   ,#'  ##            #'  '#       #'       ,# #          
            ##       ##  #######   ##           ,######,      #####,      #          
            '#,     ,#'  ##    ##  '#,     ,#' ,#      #,     #,   #      #          
             '#######'   ##     ##  '#######'  #'      '#     '####' #    #          



                #########################################################
                #                        -***-                          #
                #          Department of theory and spectroscopy        #
                #                                                       #
                #                      Frank Neese                      #
                #                                                       #
                #     Directorship, Architecture, Infrastructure        #
                #                    SHARK, DRIVERS                     #
                #        Core code/Algorithms in most modules           #
                #                                                       #
                #        Max Planck Institute fuer Kohlenforschung      #
                #                Kaiser Wilhelm Platz 1                 #
                #                 D-45470 Muelheim/Ruhr                 #
                #                      Germany                          #
                #                                                       #
                #                  All rights reserved                  #
                #                        -***-                          #
                #########################################################


                         Program Version 6.1.0  -  RELEASE   -
                                (GIT: $679e74b$)
                          ($2025-06-10 18:02:51 +0200$)


 With contributions from (in alphabetic order):
[Max-Planck-Institut fuer Kohlenforschung]                               
  Daniel Aravena         : Magnetic Suceptibility                        
  Michael Atanasov       : Ab Initio Ligand Field Theory (pilot matlab implementation)
  Alexander A. Auer      : GIAO ZORA, VPT2 properties, NMR spectrum      
  Ute Becker             : All parallelization in ORCA, NUMFREQ, NUMCALC 
  Giovanni Bistoni       : ED, misc. LED, open-shell LED, HFLD           
  Dmytro Bykov           : pre 5.0 version of the SCF Hessian            
  Marcos Casanova-Páez   : Triplet and SCS-CIS(D). UHF-(DLPNO)-IP/EA/STEOM-CCSD. UHF-CVS-IP/STEOM-CCSD   
  Vijay G. Chilkuri      : MRCI spin determinant printing, contributions to CSF-ICE 
  Pauline Colinet        : FMM embedding                                 
  Dipayan Datta          : RHF DLPNO-CCSD density                        
  Achintya Kumar Dutta   : EOM-CC, STEOM-CC                              
  Nicolas Foglia         : Exact transition moments, OPA infrastructure, MCD improvements    
  Dmitry Ganyushin       : Spin-Orbit,Spin-Spin,Magnetic field MRCI      
  Miquel Garcia-Rates    : C-PCM and meta-GGA Hessian, CCSD/C-PCM, Gaussian charge scheme 
  Tiago L. C. Gouveia    : GS-ROHF, GS-ROCIS                             
  Yang Guo               : DLPNO-NEVPT2, F12-NEVPT2, CIM, IAO-localization        
  Andreas Hansen         : Spin unrestricted coupled pair/coupled cluster methods 
  Ingolf Harden          : AUTO-CI MPn and infrastructure                
  Benjamin Helmich-Paris : MC-RPA, TRAH-(SCF,CASSCF), AVAS, COSX integrals, SCF dyn. polar., MC-PDFT, srDFT 
  Lee Huntington         : MR-EOM, pCC                                   
  Robert Izsak           : Overlap fitted RIJCOSX, COSX-SCS-MP3, EOM     
  Riya Kayal             : Wick's Theorem for AUTO-CI, AUTO-CI UHF-CCSDT 
  Emily Kempfer          : AUTO-CI RHF CISDT and CCSDT, approximate NEVPT4
  Christian Kollmar      : KDIIS, OOCD, Brueckner-CCSD(T), CCSD density, CASPT2, CASPT2-K, improved NEVPT2 
  Axel Koslowski         : Symmetry handling                             
  Simone Kossmann        : meta-GGA functionals, TD-DFT gradient, OOMP2, (MP2 Hessian; deprecated post 5.0) 
  Lucas Lang             : DCDCAS, Hyperfine gauge corrections, ICE-SOC+SSC
  Marvin Lechner         : AUTO-CI (C++ implementation), FIC-MRCC        
  Spencer Leger          : CASSCF response                               
  Dagmar Lenk            : GEPOL surface, SMD, ORCA-2-JSON               
  Dimitrios Liakos       : Extrapolation schemes; Compound Job, Property file
  Dimitrios Manganas     : Further ROCIS development; embedding schemes. LFT, Crystal Embedding 
  Dimitrios Pantazis     : SARC Basis sets                               
  Anastasios Papadopoulos: AUTO-CI, single reference methods and gradients 
  Taras Petrenko         : pre 6.0 DFT Hessian and TD-DFT gradient,  ECA, NRVS 
  Petra Pikulova         : Analytic Raman intensities                    
  Peter Pinski           : DLPNO-MP2, DLPNO-MP2 Gradient                 
  Shashank Vittal Rao    : ES-AILFT, MagRelax                            
  Christoph Reimann      : Effective Core Potentials                     
  Marius Retegan         : Local ZFS, SOC                                
  Christoph Riplinger    : Optimizer, TS searches, QM/MM, DLPNO-CCSD(T), (RO)-DLPNO pert. Triples 
  Michael Roemelt        : Original ROCIS implementation, recursive CI coupling coefficients
  Masaaki Saitow         : Open-shell DLPNO-CCSD energy and density      
  Barbara Sandhoefer     : DKH picture change effects                    
  Yorick L. A. Schmerwitz: GMF and freeze-and-release deltaSCF, NEB S-IDPP initial path                    
  Kantharuban Sivalingam : CASSCF convergence/infrastructure, NEVPT2, NEVPT3, NEVPT4(SD), FIC-MRCI and CEPA variants
  Bernardo de Souza      : ESD, SOC TD-DFT                               
  Georgi L. Stoychev     : AutoAux, RI-MP2 NMR, DLPNO-MP2 response, X2C  
  Van Anh Tran           : RI-MP2 g-tensors                              
  Willem Van den Heuvel  : Paramagnetic NMR                              
  Zikuan Wang            : NOTCH, Electric field optimization            
  Frank Wennmohs         : Technical directorship and infrastructure     
  Hang Xu                : AUTO-CI-Response properties                   
                                                                         
[FACCTs GmbH]                                                            
  Markus Bursch, Nicolas Foglia, Miquel Garcia-Rates, Ingolf Harden, Hagen Neugebauer, Anastasios Papadopoulos, 
  Christoph Riplinger, Bernardo de Souza, Georgi L. Stoychev                                                    
                                                                 
  APM, various basis sets, CI-OPT, improved COSX, DLPNO-Multilevel,           
  DOCKER, DRACO, updates on ESD, Fragmentator, GOAT, IRC, LR-CPCM, L-BFGS, MBIS, meta-GGA TD-DFT gradient, ML-optimized integration grids, 
  MM, NACMEs, nearIR, NEB, NEB-TS, NL-DFT gradient (VV10), 2- and 3-layer-ONIOM, interface openCOSMO-RS, QMMM,   
  Crystal-QMMM, RESP, rigid body optimization, SF, symmetry and pop. for TD-DFT, various functionals, SOLVATOR                                   
                                                                         
[Other institutions]                                                     
  V. Asgeirsson          : NEB                                           
  Christoph Bannwarth    : sTDA-DFT, sTD-DFT, PBEh-3c, B97-3c, D3        
  Giovanni Bistoni       : ETS/NOCV, ADLD/ADEX, COVALED                  
  Martin Brehm           : Molecular dynamics                            
  Ronald Cardenas        : ETS/NOCV                                      
  Martina Colucci        : COVALED                                       
  Sebastian Ehlert       : rSCAN, r2SCAN, r2SCAN-3c, D4, dhf basis sets  
  Marvin Friede          : D4 for Fr, Ra, Ac-Lr                          
  Lars Goerigk           : TD-DFT with DH, B97 family of functionals     
  Stefan Grimme          : VdW corrections, initial TS optimization, DFT functionals, gCP, sTDA/sTD-DF 
  Waldemar Hujo          : DFT-NL                                        
  H. Jonsson             : NEB                                           
  Holger Kruse           : gCP                                           
  Marcel Mueller         : wB97X-3c, vDZP basis set                      
  Hagen Neugebauer       : wr2SCAN, Native XTB                           
  Gianluca Regni         : ADLD/ADEX                                     
  Tobias Risthaus        : pre 6.0 range-separated hybrid DFT and stability analysis
  Lukas Wittmann         : regularized MP2, r2SCAN double-hybrids, wr2SCAN        
                                                                         
We gratefully acknowledge several colleagues who have allowed us to      
interface, adapt or use parts of their codes:                            
  Ed Valeev, F. Pavosevic, A. Kumar             : LibInt (2-el integral package), F12 methods 
  Garnet Chan, S. Sharma, J. Yang, R. Olivares  : DMRG                   
  Ulf Ekstrom                                   : XCFun DFT Library      
  Mihaly Kallay                                 : mrcc  (arbitrary order and MRCC methods)
  Frank Weinhold                                : gennbo (NPA and NBO analysis)           
  Simon Mueller                                 : openCOSMO-RS                            
  Christopher J. Cramer and Donald G. Truhlar   : smd solvation model                     
  S Lehtola, MJT Oliveira, MAL Marques          : LibXC Library                           
  Liviu Ungur et al                             : ANISO software                          


 Your calculation uses the libint2 library for the computation of 2-el integrals
 For citations please refer to: http://libint.valeyev.net

 Your ORCA version has been built with support for libXC version: 7.0.0
 For citations please refer to: https://libxc.gitlab.io

 This ORCA versions uses:
   CBLAS   interface :  Fast vector & matrix operations
   LAPACKE interface :  Fast linear algebra routines
   SCALAPACK package :  Parallel linear algebra routines
   Shared memory     :  Shared parallel matrices
   BLAS/LAPACK       :  OpenBLAS 0.3.29  USE64BITINT DYNAMIC_ARCH NO_AFFINITY SkylakeX SINGLE_THREADED
        Core in use  :  SkylakeX
   Copyright (c) 2011-2014, The OpenBLAS Project


  ***********************************
  * Starting time: Mon Mar 16 14:15:33 2026
  * Host name:     midway3-login4.rcc.local
  * Process ID:    66107
  * Working dir.:  /home/rzhu16/evans-polanyi-principle-validation/runs/sn2_f_i/geo_opt_reactant_product
  ***********************************

Your calculation utilizes the semiempirical GFN2-xTB method
Please cite in your paper:
Bannwarth, C.; Ehlert S.; Grimme, S. J. Chem. Theory Comput. 2019, 15, 1652.
   

================================================================================

cite the ECPs for I  [Def2-ECP] as follows:
Ce-Yb(ecp-28): M. Dolg, H. Stoll, H.Preuss, J. Chem. Phys., 1989, 90, 1730-1734.
Y-Cd(ecp-28), Hf-Hg(ecp-46): D. Andrae,U. Haeussermann, M. Dolg, H. Stoll, H. Preuss, Theor. Chim. Acta, 1990, 77, 123-141.
In-Sb(ecp-28), Tl-Bi(ecp-46): B. Metz, H. Stoll, M. Dolg, J. Chem. Phys., 2000, 113, 2563-2569.
Te-Xe(ecp-28), Po-Rn(ecp-46): K. A. Peterson, D. Figgen, E. Goll, H. Stoll, M. Dolg, J. Chem. Phys., 2003, 119, 11113-11123.
Rb(ecp-28), Cs(ecp-46): T. Leininger, A. Nicklass, W. Kuechle, H. Stoll, M. Dolg, A. Bergner, Chem. Phys. Lett., 1996, 255, 274-280.
Sr(ecp-28), Ba(ecp-46): M. Kaupp, P. V. Schleyer, H. Stoll and H. Preuss, J. Chem. Phys., 1991, 94, 1360-1366.
La(ecp-46): M. Dolg, H. Stoll, A. Savin, H. Preuss, Theor. Chim. Acta, 1989, 75, 173-194.
Lu(ecp-28): X. Cao, M. Dolg, J. Chem. Phys., 2001, 115, 7348-7355.

ECP parameters for I  [Def2-ECP] have been obtained from:
TURBOMOLE (7.0.2)

================================================================================
                                        WARNINGS
                       Please study these warnings very carefully!
================================================================================


WARNING: Analytical Hessian for XTB is limited in the analysis of the data.
       : If you want to obtain extensive IR and deltaG analysis, please use ! XTB NumFreq. 


WARNING: Geometry Optimization
  ===> : Switching off AutoStart
         For restart on a previous wavefunction, please use MOREAD

WARNING: Found dipole moment calculation with XTB calculation
  ===> : Switching off dipole moment calculation


WARNING: Found frequency calculation in combination with XTB calculation
  ===> : Need to redirect dipole moment calculation to properties.out


================================================================================
                                       INPUT FILE
================================================================================
NAME = product_optfreq.inp
|  1> ! XTB2 Opt Freq PAL8
|  2> 
|  3> %geom
|  4>   MaxIter 500
|  5> end
|  6> 
|  7> * xyz -1 1
|  8>   C      -0.008379      0.153484      0.079963
|  9>   H      -0.065529      1.193490      0.290731
| 10>   H       0.928052     -0.345073      0.210435
| 11>   H      -0.883751     -0.445225      0.213168
| 12>   F      -0.018572      0.389070      2.158514
| 13>   I      -0.021301      0.320687     -2.347663
| 14> *
| 15> 
| 16>                          ****END OF INPUT****
================================================================================

                       *****************************
                       * Geometry Optimization Run *
                       *****************************

Geometry optimization settings:
Update method            Update   .... BFGS
Choice of coordinates    CoordSys .... (2022) Redundant Internals
Initial Hessian          InHess   .... Almloef's Model
Max. no of cycles        MaxIter  .... 500

Convergence Tolerances:
Energy Change            TolE     ....  5.0000e-06 Eh
Max. Gradient            TolMAXG  ....  3.0000e-04 Eh/bohr
RMS Gradient             TolRMSG  ....  1.0000e-04 Eh/bohr
Max. Displacement        TolMAXD  ....  4.0000e-03 bohr
RMS Displacement         TolRMSD  ....  2.0000e-03 bohr
Strict Convergence                .... False

------------------------------------------------------------------------------
                        ORCA OPTIMIZATION COORDINATE SETUP
------------------------------------------------------------------------------

The optimization will be done in redundant internal coordinates (2022)
Making redundant internal coordinates   ...  (2022 redundants) done
Evaluating the initial hessian          ...  (Almloef) done
Evaluating the coordinates              ...  done
Calculating the B-matrix                .... done
Calculating the G-matrix                .... done
The number of degrees of freedom        ....   21

    -----------------------------------------------------------------
                    Redundant Internal Coordinates


    -----------------------------------------------------------------
         Definition                    Initial Value    Approx d2E/dq
    -----------------------------------------------------------------
      1. B(H   1,C   0)                  1.0627         0.398108   
      2. B(H   2,C   0)                  1.0689         0.389165   
      3. B(H   3,C   0)                  1.0689         0.389173   
      4. B(F   4,H   3)                  2.2867         0.010000   
      5. B(F   4,C   0)                  2.0919         0.039460   
      6. B(F   4,H   2)                  2.2869         0.010000   
      7. B(F   4,H   1)                  2.0342         0.010000   
      8. B(I   5,H   3)                  2.8086         0.010000   
      9. B(I   5,H   1)                  2.7794         0.010000   
     10. B(I   5,H   2)                  2.8086         0.010000   
     11. B(I   5,C   0)                  2.4334         0.045450   
     12. A(H   1,C   0,H   3)          118.6475         0.299136   
     13. A(H   2,C   0,H   3)          116.1689         0.298059   
     14. A(H   1,C   0,F   4)           72.0884         0.231739   
     15. A(H   2,C   0,F   4)           86.3025         0.231007   
     16. A(H   3,C   0,F   4)           86.2882         0.231008   
     17. A(H   1,C   0,I   5)           97.4888         0.251133   
     18. A(H   2,C   0,I   5)           99.1185         0.250301   
     19. A(H   3,C   0,I   5)           99.1178         0.250302   
     20. A(F   4,C   0,I   5)          169.5773         0.198568   
     21. A(H   1,C   0,H   2)          118.6452         0.299135   
    -----------------------------------------------------------------

Number of atoms                         .... 6
Number of degrees of freedom            .... 21


         *************************************************************
         *                GEOMETRY OPTIMIZATION CYCLE   1            *
         *************************************************************
---------------------------------
CARTESIAN COORDINATES (ANGSTROEM)
---------------------------------
  C    -0.008379    0.153484    0.079963
  H    -0.065529    1.193490    0.290731
  H     0.928052   -0.345073    0.210435
  H    -0.883751   -0.445225    0.213168
  F    -0.018572    0.389070    2.158514
  I    -0.021301    0.320687   -2.347663

----------------------------
CARTESIAN COORDINATES (A.U.)
----------------------------
  NO LB    ZA    FRAG    MASS        X           Y           Z
   0 C   6.0000    0    12.011   -0.015834    0.290043    0.151108
   1 H   1.0000    0     1.008   -0.123832    2.255369    0.549402
   2 H   1.0000    0     1.008    1.753764   -0.652093    0.397665
   3 H   1.0000    0     1.008   -1.670047   -0.841353    0.402829
   4 F   9.0000    0    18.998   -0.035096    0.735236    4.079000
   5 I  53.0000    0   126.900   -0.040253    0.606011   -4.436440

      -----------------------------------------------------------      
     |                   =====================                   |     
     |                           x T B                           |     
     |                   =====================                   |     
     |                         S. Grimme                         |     
     |          Mulliken Center for Theoretical Chemistry        |     
     |                    University of Bonn                     |     
      -----------------------------------------------------------      

   * xtb version 6.7.1 (edcfbbe) compiled by 'albert@albert-system' on 2024-07-22

   xtb is free software: you can redistribute it and/or modify it under
   the terms of the GNU Lesser General Public License as published by
   the Free Software Foundation, either version 3 of the License, or
   (at your option) any later version.
   
   xtb is distributed in the hope that it will be useful,
   but WITHOUT ANY WARRANTY; without even the implied warranty of
   MERCHANTABILITY or FITNESS FOR A PARTICULAR PURPOSE.  See the
   GNU Lesser General Public License for more details.
   
   Cite this work as:
   * C. Bannwarth, E. Caldeweyher, S. Ehlert, A. Hansen, P. Pracht,
     J. Seibert, S. Spicher, S. Grimme, WIREs Comput. Mol. Sci., 2020, 11,
     e01493. DOI: 10.1002/wcms.1493
   
   for GFN2-xTB:
   * C. Bannwarth, S. Ehlert and S. Grimme., J. Chem. Theory Comput., 2019,
     15, 1652-1671. DOI: 10.1021/acs.jctc.8b01176
   for GFN1-xTB:
   * S. Grimme, C. Bannwarth, P. Shushkov, J. Chem. Theory Comput., 2017,
     13, 1989-2009. DOI: 10.1021/acs.jctc.7b00118
   for GFN0-xTB:
   * P. Pracht, E. Caldeweyher, S. Ehlert, S. Grimme, ChemRxiv, 2019, preprint.
     DOI: 10.26434/chemrxiv.8326202.v1
   for GFN-FF:
   * S. Spicher and S. Grimme, Angew. Chem. Int. Ed., 2020, 59, 15665-15673.
     DOI: 10.1002/anie.202004239
   
   for ALPB and GBSA implicit solvation:
   * S. Ehlert, M. Stahn, S. Spicher, S. Grimme, J. Chem. Theory Comput.,
     2021, 17, 4250-4261. DOI: 10.1021/acs.jctc.1c00471
   
   for ddCOSMO and CPCM-X implicit solvation:
   * M. Stahn, S. Ehlert, S. Grimme, J. Phys. Chem. A,
     2023, XX, XXXX-XXXX. DOI: 10.1021/acs.jpca.3c04382
   
   for DFT-D4:
   * E. Caldeweyher, C. Bannwarth and S. Grimme, J. Chem. Phys., 2017,
     147, 034112. DOI: 10.1063/1.4993215
   * E. Caldeweyher, S. Ehlert, A. Hansen, H. Neugebauer, S. Spicher,
     C. Bannwarth and S. Grimme, J. Chem. Phys., 2019, 150, 154122.
     DOI: 10.1063/1.5090222
   * E. Caldeweyher, J.-M. Mewes, S. Ehlert and S. Grimme, Phys. Chem. Chem. Phys.
     2020, 22, 8499-8512. DOI: 10.1039/D0CP00502A
   
   for sTDA-xTB:
   * S. Grimme and C. Bannwarth, J. Chem. Phys., 2016, 145, 054103.
     DOI: 10.1063/1.4959605
   
   in the mass-spec context:
   * V. Asgeirsson, C. Bauer and S. Grimme, Chem. Sci., 2017, 8, 4879.
     DOI: 10.1039/c7sc00601b
   * J. Koopman and S. Grimme, ACS Omega 2019, 4, 12, 15120-15133.
     DOI: 10.1021/acsomega.9b02011
   
   for metadynamics refer to:
   * S. Grimme, J. Chem. Theory Comput., 2019, 155, 2847-2862
     DOI: 10.1021/acs.jctc.9b00143
   
   for SPH calculations refer to:
   * S. Spicher and S. Grimme, J. Chem. Theory Comput., 2021, 17, 1701-1714
     DOI: 10.1021/acs.jctc.0c01306
   
   for ONIOM refer to:
   * C. Plett, A. Katbashev, S. Ehlert, S. Grimme, M. Bursch,
     Phys. Chem. Chem. Phys., 2023, 25, 17860-17868. DOI: 10.1039/D3CP02178E
   
   for DIPRO refer to:
   * J. Kohn, N. Gildemeister, S. Grimme, D. Fazzi, A. Hansen,
     J. Chem. Phys., 2023, just accepted.
   
   for PTB refer to:
   * S. Grimme, M. Mueller, A. Hansen, J. Chem. Phys., 2023, 158, 124111.
     DOI: 10.1063/5.0137838
   
   with help from (in alphabetical order)
   P. Atkinson, C. Bannwarth, F. Bohle, G. Brandenburg, E. Caldeweyher
   M. Checinski, S. Dohm, S. Ehlert, S. Ehrlich, I. Gerasimov, C. Hölzer
   A. Katbashev, J. Kohn, J. Koopman, C. Lavigne, S. Lehtola, F. März, M. Müller,
   F. Musil, H. Neugebauer, J. Pisarek, C. Plett, P. Pracht, F. Pultar,
   J. Seibert, P. Shushkov, S. Spicher, M. Stahn, M. Steiner, T. Strunk,
   J. Stückrath, T. Rose, and J. Unsleber
   
 * started run on 2026/03/16 at 14:15:34.503     
   ID    Z sym.   atoms
    1    6 C      1
    2    1 H      2-4
    3    9 F      5
    4   53 I      6

           -------------------------------------------------
          |                Calculation Setup                |
           -------------------------------------------------

          program call               : /software/orca-6.1.0-el8-x86_64/bin/otool_xtb product_optfreq_XTB.xyz --grad -c -1 -u 0 -P 8 --namespace product_optfreq --input product_optfreq_XTB.input.tmp --acc 0.200000
          hostname                   : midway3-login4.rcc.local
          calculation namespace      : product_optfreq
          coordinate file            : product_optfreq_XTB.xyz
          omp threads                :                     8


molecular fragmentation (1/2 indicates fragments):
111121
# atoms in fragment 1/2:     5     1
 fragment masses (1/2) :      141.94       19.00
CMA distance (Bohr)    :   8.025
constraining FC (au)   :  0.0500

           -------------------------------------------------
          |                 G F N 2 - x T B                 |
           -------------------------------------------------

        Reference                      10.1021/acs.jctc.8b01176
      * Hamiltonian:
        H0-scaling (s, p, d)           1.850000    2.230000    2.230000
        zeta-weighting                 0.500000
      * Dispersion:
        s8                             2.700000
        a1                             0.520000
        a2                             5.000000
        s9                             5.000000
      * Repulsion:
        kExp                           1.500000    1.000000
        rExp                           1.000000
      * Coulomb:
        alpha                          2.000000
        third order                    shell-resolved
        anisotropic                    true
        a3                             3.000000
        a5                             4.000000
        cn-shift                       1.200000
        cn-exp                         4.000000
        max-rad                        5.000000


          ...................................................
          :                      SETUP                      :
          :.................................................:
          :  # basis functions                  21          :
          :  # atomic orbitals                  20          :
          :  # shells                           10          :
          :  # electrons                        22          :
          :  max. iterations                   250          :
          :  Hamiltonian                  GFN2-xTB          :
          :  restarted?                      false          :
          :  GBSA solvation                  false          :
          :  PC potential                    false          :
          :  electronic temp.          300.0000000     K    :
          :  accuracy                    0.2000000          :
          :  -> integral cutoff          0.3198970E+02      :
          :  -> integral neglect         0.2000000E-08      :
          :  -> SCF convergence          0.2000000E-06 Eh   :
          :  -> wf. convergence          0.2000000E-04 e    :
          :  Broyden damping             0.4000000          :
          :  net charge                         -1          :
          :  unpaired electrons                  0          :
          ...................................................

 iter      E             dE          RMSdq      gap      omega  full diag
   1    -12.4491837 -0.124492E+02  0.106E+01    3.70       0.0  T
   2    -12.4841248 -0.349411E-01  0.404E+00    2.65       1.0  T
   3    -12.4851219 -0.997103E-03  0.162E+00    2.52       1.0  T
   4    -12.4851858 -0.638434E-04  0.671E-01    2.83       1.0  T
   5    -12.4852691 -0.833189E-04  0.642E-01    2.47       1.0  T
   6    -12.4856700 -0.400920E-03  0.256E-01    2.73       1.0  T
   7    -12.4856156  0.544613E-04  0.263E-01    2.51       1.0  T
   8    -12.4859088 -0.293250E-03  0.191E-02    2.62       2.1  T
   9    -12.4859095 -0.674517E-06  0.668E-03    2.62       6.1  T
  10    -12.4859096 -0.831727E-07  0.659E-04    2.62      62.0  T
  11    -12.4859096 -0.103182E-08  0.273E-04    2.62     149.8  T
  12    -12.4859096 -0.129948E-09  0.789E-05    2.62     517.4  T
  13    -12.4859096  0.108358E-12  0.359E-05    2.62    1138.2  T

   *** convergence criteria satisfied after 13 iterations ***

         #    Occupation            Energy/Eh            Energy/eV
      -------------------------------------------------------------
         1        2.0000           -0.5368312             -14.6079
       ...           ...                  ...                  ...
         5        2.0000           -0.3288805              -8.9493
         6        2.0000           -0.2748382              -7.4787
         7        2.0000           -0.2284277              -6.2158
         8        2.0000           -0.2283563              -6.2139
         9        2.0000           -0.1785857              -4.8596
        10        2.0000           -0.1751765              -4.7668
        11        2.0000           -0.1745773              -4.7505 (HOMO)
        12                         -0.0782230              -2.1286 (LUMO)
        13                          0.2441950               6.6449
        14                          0.2445886               6.6556
        15                          0.2574895               7.0066
        16                          0.2576232               7.0103
       ...                                ...                  ...
        20                          0.4611798              12.5493
      -------------------------------------------------------------
                  HL-Gap            0.0963544 Eh            2.6219 eV
             Fermi-level           -0.1264002 Eh           -3.4395 eV

 SCC (total)                   0 d,  0 h,  0 min,  0.110 sec
 SCC setup                      ...        0 min,  0.000 sec (  0.246%)
 Dispersion                     ...        0 min,  0.000 sec (  0.073%)
 classical contributions        ...        0 min,  0.000 sec (  0.052%)
 integral evaluation            ...        0 min,  0.106 sec ( 96.972%)
 iterations                     ...        0 min,  0.002 sec (  2.052%)
 molecular gradient             ...        0 min,  0.000 sec (  0.456%)
 printout                       ...        0 min,  0.000 sec (  0.128%)

         :::::::::::::::::::::::::::::::::::::::::::::::::::::
         ::                     SUMMARY                     ::
         :::::::::::::::::::::::::::::::::::::::::::::::::::::
         :: total energy             -12.424714548558 Eh    ::
         :: gradient norm              0.014752913482 Eh/a0 ::
         :: HOMO-LUMO gap              2.621935593648 eV    ::
         ::.................................................::
         :: SCC energy               -12.485909773459 Eh    ::
         :: -> isotropic ES            0.184077428914 Eh    ::
         :: -> anisotropic ES         -0.004322992356 Eh    ::
         :: -> anisotropic XC          0.000196884728 Eh    ::
         :: -> dispersion             -0.002520462174 Eh    ::
         :: repulsion energy           0.061195224901 Eh    ::
         :: add. restraining           0.000000000000 Eh    ::
         :: total charge              -1.000000000000 e     ::
         :::::::::::::::::::::::::::::::::::::::::::::::::::::


Property printout bound to 'properties.out'

           -------------------------------------------------
          | TOTAL ENERGY              -12.424714548558 Eh   |
          | GRADIENT NORM               0.014752913482 Eh/α |
          | HOMO-LUMO GAP               2.621935593648 eV   |
           -------------------------------------------------

------------------------------------------------------------------------
 * finished run on 2026/03/16 at 14:15:34.676     
------------------------------------------------------------------------
 total:
 * wall-time:     0 d,  0 h,  0 min,  0.130 sec
 *  cpu-time:     0 d,  0 h,  0 min,  0.345 sec
 * ratio c/w:     2.643 speedup
 SCF:
 * wall-time:     0 d,  0 h,  0 min,  0.110 sec
 *  cpu-time:     0 d,  0 h,  0 min,  0.265 sec
 * ratio c/w:     2.414 speedup


-------------------------   --------------------
FINAL SINGLE POINT ENERGY       -12.424714548560
-------------------------   --------------------


-------------
DIPOLE MOMENT
-------------
                                X             Y             Z
Total Dipole Moment    :      0.04400      -0.77800       0.38300
                        -----------------------------------------
Magnitude (a.u.)       :      0.86828
Magnitude (Debye)      :      2.20699


------------------
CARTESIAN GRADIENT
------------------

   1   C   :    0.000151503   -0.002952626   -0.009330218
   2   H   :    0.000154127   -0.002673299    0.003442267
   3   H   :   -0.001152774   -0.001285211   -0.001528051
   4   H   :    0.001285373   -0.001150933   -0.001527392
   5   F   :   -0.000333944    0.006140827    0.006784079
   6   I   :   -0.000104285    0.001921243    0.002159315

Difference to translation invariance:
           :    0.0000000000   -0.0000000000    0.0000000000

Difference to rotation invariance:
           :    0.0000000328    0.0000000018   -0.0000000000

Norm of the Cartesian gradient     ...    0.0147529135
RMS gradient                       ...    0.0034772951
MAX gradient                       ...    0.0093302184
------------------------------------------------------------------------------
                         ORCA GEOMETRY RELAXATION STEP
------------------------------------------------------------------------------

Reading the OPT-File                    .... done
Getting information on internals        .... done
Copying old internal coords+grads       .... done
Making the new internal coordinates     .... (2022 redundants) done
Validating the new internal coordinates .... (2022 redundants) done
Calculating the B-matrix                .... done
Calculating the G,G- and P matrices     .... done
Transforming gradient to internals      .... done
Projecting the internal gradient        .... done
Number of atoms                         ....   6
Number of internal coordinates          ....  21
Current Energy                          ....   -12.424714549 Eh
Current gradient norm                   ....     0.014752913 Eh/bohr
Maximum allowed component of the step   ....  0.300
Current trust radius                    ....  0.300
Evaluating the initial hessian          ....  (Almloef) done
Projecting the Hessian                  .... done
Forming the augmented Hessian           .... done
Diagonalizing the augmented Hessian     .... done
Last element of RFO vector              ....  0.976711117
Lowest eigenvalues of augmented Hessian:
 -0.001675173  0.019125559  0.019600567  0.059064993  0.062223903
Length of the computed step             ....  0.219674577
The final length of the internal step   ....  0.219674577
Converting the step to Cartesian space:
 Initial RMS(Int)=    0.0479369228
Transforming coordinates:
 Iter   0:  RMS(Cart)=    0.0325993258 RMS(Int)=    0.0476507048
done
Storing new coordinates                 .... done

                                .--------------------.
          ----------------------|Geometry convergence|-------------------------
          Item                value                   Tolerance       Converged
          ---------------------------------------------------------------------
          RMS gradient        0.0023296791            0.0001000000      NO
          MAX gradient        0.0045411019            0.0003000000      NO
          RMS step            0.0479369228            0.0020000000      NO
          MAX step            0.1210362251            0.0040000000      NO
          -------------------------------------------------------------------------
          ........................................................
          Max(Bonds)      0.0640      Max(Angles)    2.15
          Max(Dihed)        0.00      Max(Improp)    0.00
          ---------------------------------------------------------------------

The optimization has not yet converged - more geometry cycles are needed


    ---------------------------------------------------------------------------
                         Redundant Internal Coordinates
                            (Angstroem and degrees)

        Definition                    Value    dE/dq     Step     New-Value
    ----------------------------------------------------------------------------
     1. B(H   1,C   0)                1.0627 -0.000407  0.0024    1.0651   
     2. B(H   2,C   0)                1.0689 -0.002292  0.0015    1.0703   
     3. B(H   3,C   0)                1.0689 -0.002290  0.0015    1.0703   
     4. B(F   4,H   3)                2.2867  0.003370 -0.0640    2.2227   
     5. B(F   4,C   0)                2.0919  0.004541 -0.0603    2.0315   
     6. B(F   4,H   2)                2.2869  0.003376 -0.0640    2.2229   
     7. B(F   4,H   1)                2.0342 -0.003542 -0.0128    2.0214   
     8. B(I   5,H   3)                2.8086  0.000610  0.0078    2.8164   
     9. B(I   5,H   1)                2.7794 -0.001621  0.0149    2.7943   
    10. B(I   5,H   2)                2.8086  0.000611  0.0078    2.8164   
    11. B(I   5,C   0)                2.4334 -0.001653  0.0157    2.4491   
    12. A(H   1,C   0,H   3)          118.65  0.000241   -0.02    118.63   
    13. A(H   2,C   0,H   3)          116.17 -0.002412    0.52    116.69   
    14. A(H   1,C   0,F   4)           72.09 -0.003765    2.15     74.24   
    15. A(H   2,C   0,F   4)           86.30  0.000160   -0.66     85.64   
    16. A(H   3,C   0,F   4)           86.29  0.000156   -0.66     85.63   
    17. A(H   1,C   0,I   5)           97.49  0.000063   -0.05     97.44   
    18. A(H   2,C   0,I   5)           99.12  0.001927   -0.47     98.65   
    19. A(H   3,C   0,I   5)           99.12  0.001926   -0.47     98.64   
    20. A(F   4,C   0,I   5)          169.58 -0.003702    2.10    171.68   
    21. A(H   1,C   0,H   2)          118.65  0.000236   -0.02    118.63   
    ----------------------------------------------------------------------------

Geometry step timings:
Preparation and reading OPT file:      0.000 s ( 2.426 %)
Internal coordinates            :      0.000 s ( 3.573 %)
B/P matrices and projection     :      0.000 s (11.601 %)
Hessian update/contruction      :      0.001 s (31.319 %)
Making the step                 :      0.000 s (10.940 %)
Converting the step to Cartesian:      0.000 s ( 4.191 %)
Storing new data                :      0.000 s ( 7.587 %)
Checking convergence            :      0.000 s ( 5.779 %)
Final printing                  :      0.001 s (22.320 %)
Total time                      :      0.002 s

Time for energy+gradient        :      0.253 s
Time for complete geometry iter :      0.257 s

         *************************************************************
         *                GEOMETRY OPTIMIZATION CYCLE   2            *
         *************************************************************
---------------------------------
CARTESIAN COORDINATES (ANGSTROEM)
---------------------------------
  C    -0.009045    0.165798    0.094879
  H    -0.066522    1.211199    0.290577
  H     0.930971   -0.329236    0.224718
  H    -0.888378   -0.429800    0.227446
  F    -0.016364    0.348576    2.118036
  I    -0.020143    0.299896   -2.350508

----------------------------
CARTESIAN COORDINATES (A.U.)
----------------------------
  NO LB    ZA    FRAG    MASS        X           Y           Z
   0 C   6.0000    0    12.011   -0.017093    0.313313    0.179296
   1 H   1.0000    0     1.008   -0.125707    2.288834    0.549111
   2 H   1.0000    0     1.008    1.759281   -0.622166    0.424655
   3 H   1.0000    0     1.008   -1.678791   -0.812204    0.429812
   4 F   9.0000    0    18.998   -0.030923    0.658713    4.002508
   5 I  53.0000    0   126.900   -0.038064    0.566721   -4.441817

      -----------------------------------------------------------      
     |                   =====================                   |     
     |                           x T B                           |     
     |                   =====================                   |     
     |                         S. Grimme                         |     
     |          Mulliken Center for Theoretical Chemistry        |     
     |                    University of Bonn                     |     
      -----------------------------------------------------------      

   * xtb version 6.7.1 (edcfbbe) compiled by 'albert@albert-system' on 2024-07-22

   xtb is free software: you can redistribute it and/or modify it under
   the terms of the GNU Lesser General Public License as published by
   the Free Software Foundation, either version 3 of the License, or
   (at your option) any later version.
   
   xtb is distributed in the hope that it will be useful,
   but WITHOUT ANY WARRANTY; without even the implied warranty of
   MERCHANTABILITY or FITNESS FOR A PARTICULAR PURPOSE.  See the
   GNU Lesser General Public License for more details.
   
   Cite this work as:
   * C. Bannwarth, E. Caldeweyher, S. Ehlert, A. Hansen, P. Pracht,
     J. Seibert, S. Spicher, S. Grimme, WIREs Comput. Mol. Sci., 2020, 11,
     e01493. DOI: 10.1002/wcms.1493
   
   for GFN2-xTB:
   * C. Bannwarth, S. Ehlert and S. Grimme., J. Chem. Theory Comput., 2019,
     15, 1652-1671. DOI: 10.1021/acs.jctc.8b01176
   for GFN1-xTB:
   * S. Grimme, C. Bannwarth, P. Shushkov, J. Chem. Theory Comput., 2017,
     13, 1989-2009. DOI: 10.1021/acs.jctc.7b00118
   for GFN0-xTB:
   * P. Pracht, E. Caldeweyher, S. Ehlert, S. Grimme, ChemRxiv, 2019, preprint.
     DOI: 10.26434/chemrxiv.8326202.v1
   for GFN-FF:
   * S. Spicher and S. Grimme, Angew. Chem. Int. Ed., 2020, 59, 15665-15673.
     DOI: 10.1002/anie.202004239
   
   for ALPB and GBSA implicit solvation:
   * S. Ehlert, M. Stahn, S. Spicher, S. Grimme, J. Chem. Theory Comput.,
     2021, 17, 4250-4261. DOI: 10.1021/acs.jctc.1c00471
   
   for ddCOSMO and CPCM-X implicit solvation:
   * M. Stahn, S. Ehlert, S. Grimme, J. Phys. Chem. A,
     2023, XX, XXXX-XXXX. DOI: 10.1021/acs.jpca.3c04382
   
   for DFT-D4:
   * E. Caldeweyher, C. Bannwarth and S. Grimme, J. Chem. Phys., 2017,
     147, 034112. DOI: 10.1063/1.4993215
   * E. Caldeweyher, S. Ehlert, A. Hansen, H. Neugebauer, S. Spicher,
     C. Bannwarth and S. Grimme, J. Chem. Phys., 2019, 150, 154122.
     DOI: 10.1063/1.5090222
   * E. Caldeweyher, J.-M. Mewes, S. Ehlert and S. Grimme, Phys. Chem. Chem. Phys.
     2020, 22, 8499-8512. DOI: 10.1039/D0CP00502A
   
   for sTDA-xTB:
   * S. Grimme and C. Bannwarth, J. Chem. Phys., 2016, 145, 054103.
     DOI: 10.1063/1.4959605
   
   in the mass-spec context:
   * V. Asgeirsson, C. Bauer and S. Grimme, Chem. Sci., 2017, 8, 4879.
     DOI: 10.1039/c7sc00601b
   * J. Koopman and S. Grimme, ACS Omega 2019, 4, 12, 15120-15133.
     DOI: 10.1021/acsomega.9b02011
   
   for metadynamics refer to:
   * S. Grimme, J. Chem. Theory Comput., 2019, 155, 2847-2862
     DOI: 10.1021/acs.jctc.9b00143
   
   for SPH calculations refer to:
   * S. Spicher and S. Grimme, J. Chem. Theory Comput., 2021, 17, 1701-1714
     DOI: 10.1021/acs.jctc.0c01306
   
   for ONIOM refer to:
   * C. Plett, A. Katbashev, S. Ehlert, S. Grimme, M. Bursch,
     Phys. Chem. Chem. Phys., 2023, 25, 17860-17868. DOI: 10.1039/D3CP02178E
   
   for DIPRO refer to:
   * J. Kohn, N. Gildemeister, S. Grimme, D. Fazzi, A. Hansen,
     J. Chem. Phys., 2023, just accepted.
   
   for PTB refer to:
   * S. Grimme, M. Mueller, A. Hansen, J. Chem. Phys., 2023, 158, 124111.
     DOI: 10.1063/5.0137838
   
   with help from (in alphabetical order)
   P. Atkinson, C. Bannwarth, F. Bohle, G. Brandenburg, E. Caldeweyher
   M. Checinski, S. Dohm, S. Ehlert, S. Ehrlich, I. Gerasimov, C. Hölzer
   A. Katbashev, J. Kohn, J. Koopman, C. Lavigne, S. Lehtola, F. März, M. Müller,
   F. Musil, H. Neugebauer, J. Pisarek, C. Plett, P. Pracht, F. Pultar,
   J. Seibert, P. Shushkov, S. Spicher, M. Stahn, M. Steiner, T. Strunk,
   J. Stückrath, T. Rose, and J. Unsleber
   
 * started run on 2026/03/16 at 14:15:34.761     
   ID    Z sym.   atoms
    1    6 C      1
    2    1 H      2-4
    3    9 F      5
    4   53 I      6

           -------------------------------------------------
          |                Calculation Setup                |
           -------------------------------------------------

          program call               : /software/orca-6.1.0-el8-x86_64/bin/otool_xtb product_optfreq_XTB.xyz --grad -c -1 -u 0 -P 8 --namespace product_optfreq --input product_optfreq_XTB.input.tmp --acc 0.200000
          hostname                   : midway3-login4.rcc.local
          calculation namespace      : product_optfreq
          coordinate file            : product_optfreq_XTB.xyz
          omp threads                :                     8


molecular fragmentation (1/2 indicates fragments):
111121
# atoms in fragment 1/2:     5     1
 fragment masses (1/2) :      141.94       19.00
CMA distance (Bohr)    :   7.950
constraining FC (au)   :  0.0500

           -------------------------------------------------
          |                 G F N 2 - x T B                 |
           -------------------------------------------------

        Reference                      10.1021/acs.jctc.8b01176
      * Hamiltonian:
        H0-scaling (s, p, d)           1.850000    2.230000    2.230000
        zeta-weighting                 0.500000
      * Dispersion:
        s8                             2.700000
        a1                             0.520000
        a2                             5.000000
        s9                             5.000000
      * Repulsion:
        kExp                           1.500000    1.000000
        rExp                           1.000000
      * Coulomb:
        alpha                          2.000000
        third order                    shell-resolved
        anisotropic                    true
        a3                             3.000000
        a5                             4.000000
        cn-shift                       1.200000
        cn-exp                         4.000000
        max-rad                        5.000000

q/qsh data taken from xtbrestart
CAMM data taken from xtbrestart

          ...................................................
          :                      SETUP                      :
          :.................................................:
          :  # basis functions                  21          :
          :  # atomic orbitals                  20          :
          :  # shells                           10          :
          :  # electrons                        22          :
          :  max. iterations                   250          :
          :  Hamiltonian                  GFN2-xTB          :
          :  restarted?                       true          :
          :  GBSA solvation                  false          :
          :  PC potential                    false          :
          :  electronic temp.          300.0000000     K    :
          :  accuracy                    0.2000000          :
          :  -> integral cutoff          0.3198970E+02      :
          :  -> integral neglect         0.2000000E-08      :
          :  -> SCF convergence          0.2000000E-06 Eh   :
          :  -> wf. convergence          0.2000000E-04 e    :
          :  Broyden damping             0.4000000          :
          :  net charge                         -1          :
          :  unpaired electrons                  0          :
          ...................................................

 iter      E             dE          RMSdq      gap      omega  full diag
   1    -12.4857496 -0.124857E+02  0.611E-01    2.78       0.0  T
   2    -12.4865217 -0.772146E-03  0.265E-01    3.01       1.0  T
   3    -12.4865731 -0.514131E-04  0.107E-01    2.96       1.0  T
   4    -12.4865719  0.117974E-05  0.375E-02    2.97       1.1  T
   5    -12.4865745 -0.251968E-05  0.177E-02    2.96       2.3  T
   6    -12.4865745 -0.137593E-07  0.675E-03    2.96       6.0  T
   7    -12.4865745 -0.562823E-07  0.347E-03    2.96      11.8  T
   8    -12.4865745 -0.267344E-07  0.591E-04    2.96      69.1  T
   9    -12.4865745 -0.200631E-09  0.117E-04    2.96     349.0  T
  10    -12.4865745 -0.251354E-11  0.717E-05    2.96     569.1  T

   *** convergence criteria satisfied after 10 iterations ***

         #    Occupation            Energy/Eh            Energy/eV
      -------------------------------------------------------------
         1        2.0000           -0.5308009             -14.4438
       ...           ...                  ...                  ...
         5        2.0000           -0.3283407              -8.9346
         6        2.0000           -0.2723130              -7.4100
         7        2.0000           -0.2242878              -6.1032
         8        2.0000           -0.2241986              -6.1008
         9        2.0000           -0.1854744              -5.0470
        10        2.0000           -0.1832652              -4.9869
        11        2.0000           -0.1824195              -4.9639 (HOMO)
        12                         -0.0735753              -2.0021 (LUMO)
        13                          0.2515070               6.8439
        14                          0.2518566               6.8534
        15                          0.2640253               7.1845
        16                          0.2641527               7.1880
       ...                                ...                  ...
        20                          0.4563681              12.4184
      -------------------------------------------------------------
                  HL-Gap            0.1088442 Eh            2.9618 eV
             Fermi-level           -0.1279974 Eh           -3.4830 eV

 SCC (total)                   0 d,  0 h,  0 min,  0.118 sec
 SCC setup                      ...        0 min,  0.010 sec (  8.429%)
 Dispersion                     ...        0 min,  0.000 sec (  0.064%)
 classical contributions        ...        0 min,  0.000 sec (  0.039%)
 integral evaluation            ...        0 min,  0.106 sec ( 89.694%)
 iterations                     ...        0 min,  0.001 sec (  1.185%)
 molecular gradient             ...        0 min,  0.001 sec (  0.433%)
 printout                       ...        0 min,  0.000 sec (  0.132%)

         :::::::::::::::::::::::::::::::::::::::::::::::::::::
         ::                     SUMMARY                     ::
         :::::::::::::::::::::::::::::::::::::::::::::::::::::
         :: total energy             -12.426280161463 Eh    ::
         :: gradient norm              0.017417778879 Eh/a0 ::
         :: HOMO-LUMO gap              2.961801515722 eV    ::
         ::.................................................::
         :: SCC energy               -12.486574724054 Eh    ::
         :: -> isotropic ES            0.180522547928 Eh    ::
         :: -> anisotropic ES         -0.004344899037 Eh    ::
         :: -> anisotropic XC          0.000299768287 Eh    ::
         :: -> dispersion             -0.002524538505 Eh    ::
         :: repulsion energy           0.060294562591 Eh    ::
         :: add. restraining           0.000000000000 Eh    ::
         :: total charge              -1.000000000000 e     ::
         :::::::::::::::::::::::::::::::::::::::::::::::::::::


Property printout bound to 'properties.out'

           -------------------------------------------------
          | TOTAL ENERGY              -12.426280161463 Eh   |
          | GRADIENT NORM               0.017417778879 Eh/α |
          | HOMO-LUMO GAP               2.961801515722 eV   |
           -------------------------------------------------

------------------------------------------------------------------------
 * finished run on 2026/03/16 at 14:15:35.051     
------------------------------------------------------------------------
 total:
 * wall-time:     0 d,  0 h,  0 min,  0.290 sec
 *  cpu-time:     0 d,  0 h,  0 min,  0.401 sec
 * ratio c/w:     1.383 speedup
 SCF:
 * wall-time:     0 d,  0 h,  0 min,  0.119 sec
 *  cpu-time:     0 d,  0 h,  0 min,  0.291 sec
 * ratio c/w:     2.451 speedup


-------------------------   --------------------
FINAL SINGLE POINT ENERGY       -12.426280161460
-------------------------   --------------------


-------------
DIPOLE MOMENT
-------------
                                X             Y             Z
Total Dipole Moment    :      0.04000      -0.69600       0.58800
                        -----------------------------------------
Magnitude (a.u.)       :      0.91201
Magnitude (Debye)      :      2.31814


------------------
CARTESIAN GRADIENT
------------------

   1   C   :    0.000129411   -0.002664165   -0.013871259
   2   H   :    0.000092466   -0.001505875    0.005729288
   3   H   :    0.000074726   -0.001492307    0.000268985
   4   H   :    0.000093152   -0.001491252    0.000273904
   5   F   :   -0.000308279    0.005620312    0.004582393
   6   I   :   -0.000081476    0.001533287    0.003016688

Difference to translation invariance:
           :   -0.0000000000    0.0000000000    0.0000000000

Difference to rotation invariance:
           :    0.0000001062    0.0000000059   -0.0000000002

Norm of the Cartesian gradient     ...    0.0174177789
RMS gradient                       ...    0.0041054099
MAX gradient                       ...    0.0138712585
------------------------------------------------------------------------------
                         ORCA GEOMETRY RELAXATION STEP
------------------------------------------------------------------------------

Reading the OPT-File                    .... done
Getting information on internals        .... done
Copying old internal coords+grads       .... done
Making the new internal coordinates     .... (2022 redundants) done
Validating the new internal coordinates .... (2022 redundants) done
Calculating the B-matrix                .... done
Calculating the G,G- and P matrices     .... done
Transforming gradient to internals      .... done
Projecting the internal gradient        .... done
Number of atoms                         ....   6
Number of internal coordinates          ....  21
Current Energy                          ....   -12.426280161 Eh
Current gradient norm                   ....     0.017417779 Eh/bohr
Maximum allowed component of the step   ....  0.300
Current trust radius                    ....  0.300
Updating the Hessian (BFGS)             .... done
Forming the augmented Hessian           .... done
Diagonalizing the augmented Hessian     .... done
Last element of RFO vector              ....  0.801034714
Lowest eigenvalues of augmented Hessian:
 -0.006007828  0.008667660  0.020913160  0.046319079  0.059065001
Length of the computed step             ....  0.747305811
Warning: the length of the step is outside the trust region - taking restricted step instead
The input lambda is                     ....     0.002547
   iter:   5  x=   -0.003877  g=  791.188690 f(x)=     1.907138
   iter:  10  x=   -0.021002  g=    8.005055 f(x)=     0.009171
The output lambda is                    ....    -0.021091 (14 iterations)
The final length of the internal step   ....  0.300000000
Converting the step to Cartesian space:
 Initial RMS(Int)=    0.0654653671
Transforming coordinates:
 Iter   0:  RMS(Cart)=    0.0549166123 RMS(Int)=    0.0647552726
done
Storing new coordinates                 .... done
The predicted energy change is          ....    -0.002281177
Previously predicted energy change      ....    -0.000878006
Actually observed energy change         ....    -0.001565613
Ratio of predicted to observed change   ....     1.783145800
New trust radius                        ....     0.200000000

                                .--------------------.
          ----------------------|Geometry convergence|-------------------------
          Item                value                   Tolerance       Converged
          ---------------------------------------------------------------------
          Energy change      -0.0015656129            0.0000050000      NO
          RMS gradient        0.0023280793            0.0001000000      NO
          MAX gradient        0.0043950643            0.0003000000      NO
          RMS step            0.0654653671            0.0020000000      NO
          MAX step            0.1470660063            0.0040000000      NO
          -------------------------------------------------------------------------
          ........................................................
          Max(Bonds)      0.0778      Max(Angles)    5.11
          Max(Dihed)        0.00      Max(Improp)    0.00
          ---------------------------------------------------------------------

The optimization has not yet converged - more geometry cycles are needed


    ---------------------------------------------------------------------------
                         Redundant Internal Coordinates
                            (Angstroem and degrees)

        Definition                    Value    dE/dq     Step     New-Value
    ----------------------------------------------------------------------------
     1. B(H   1,C   0)                1.0651  0.001122  0.0019    1.0670   
     2. B(H   2,C   0)                1.0703 -0.000613  0.0015    1.0718   
     3. B(H   3,C   0)                1.0703 -0.000611  0.0015    1.0718   
     4. B(F   4,H   3)                2.2227  0.002464 -0.0777    2.1450   
     5. B(F   4,C   0)                2.0314  0.004395 -0.0759    1.9555   
     6. B(F   4,H   2)                2.2230  0.002470 -0.0778    2.1451   
     7. B(F   4,H   1)                2.0214 -0.004239  0.0274    2.0488   
     8. B(I   5,H   3)                2.8164  0.000750  0.0076    2.8240   
     9. B(I   5,H   1)                2.7943 -0.000961  0.0226    2.8168   
    10. B(I   5,H   2)                2.8164  0.000752  0.0076    2.8240   
    11. B(I   5,C   0)                2.4491 -0.003430  0.0362    2.4853   
    12. A(H   1,C   0,H   3)          118.63 -0.000211    0.28    118.90   
    13. A(H   2,C   0,H   3)          116.69 -0.002371    1.46    118.15   
    14. A(H   1,C   0,F   4)           74.25 -0.004270    5.11     79.36   
    15. A(H   2,C   0,F   4)           85.64 -0.000614   -0.69     84.95   
    16. A(H   3,C   0,F   4)           85.63 -0.000618   -0.68     84.95   
    17. A(H   1,C   0,I   5)           97.44  0.000949   -0.74     96.70   
    18. A(H   2,C   0,I   5)           98.65  0.002441   -1.67     96.98   
    19. A(H   3,C   0,I   5)           98.65  0.002439   -1.67     96.98   
    20. A(F   4,C   0,I   5)          171.69 -0.003321    4.37    176.06   
    21. A(H   1,C   0,H   2)          118.62 -0.000214    0.28    118.90   
    ----------------------------------------------------------------------------

Geometry step timings:
Preparation and reading OPT file:      0.000 s ( 2.477 %)
Internal coordinates            :      0.000 s ( 3.670 %)
B/P matrices and projection     :      0.000 s (12.523 %)
Hessian update/contruction      :      0.001 s (31.560 %)
Making the step                 :      0.000 s (13.073 %)
Converting the step to Cartesian:      0.000 s ( 1.927 %)
Storing new data                :      0.000 s ( 7.064 %)
Checking convergence            :      0.000 s ( 5.183 %)
Final printing                  :      0.000 s (22.431 %)
Total time                      :      0.002 s

Time for energy+gradient        :      0.301 s
Time for complete geometry iter :      0.306 s

         *************************************************************
         *                GEOMETRY OPTIMIZATION CYCLE   3            *
         *************************************************************
---------------------------------
CARTESIAN COORDINATES (ANGSTROEM)
---------------------------------
  C    -0.010371    0.190285    0.125077
  H    -0.068430    1.244874    0.277879
  H     0.937098   -0.297062    0.240068
  H    -0.898015   -0.398486    0.242791
  F    -0.012022    0.270073    2.078685
  I    -0.017741    0.256748   -2.359352

----------------------------
CARTESIAN COORDINATES (A.U.)
----------------------------
  NO LB    ZA    FRAG    MASS        X           Y           Z
   0 C   6.0000    0    12.011   -0.019598    0.359587    0.236361
   1 H   1.0000    0     1.008   -0.129314    2.352471    0.525115
   2 H   1.0000    0     1.008    1.770859   -0.561365    0.453663
   3 H   1.0000    0     1.008   -1.697002   -0.753029    0.458808
   4 F   9.0000    0    18.998   -0.022719    0.510365    3.928145
   5 I  53.0000    0   126.900   -0.033525    0.485183   -4.458529

      -----------------------------------------------------------      
     |                   =====================                   |     
     |                           x T B                           |     
     |                   =====================                   |     
     |                         S. Grimme                         |     
     |          Mulliken Center for Theoretical Chemistry        |     
     |                    University of Bonn                     |     
      -----------------------------------------------------------      

   * xtb version 6.7.1 (edcfbbe) compiled by 'albert@albert-system' on 2024-07-22

   xtb is free software: you can redistribute it and/or modify it under
   the terms of the GNU Lesser General Public License as published by
   the Free Software Foundation, either version 3 of the License, or
   (at your option) any later version.
   
   xtb is distributed in the hope that it will be useful,
   but WITHOUT ANY WARRANTY; without even the implied warranty of
   MERCHANTABILITY or FITNESS FOR A PARTICULAR PURPOSE.  See the
   GNU Lesser General Public License for more details.
   
   Cite this work as:
   * C. Bannwarth, E. Caldeweyher, S. Ehlert, A. Hansen, P. Pracht,
     J. Seibert, S. Spicher, S. Grimme, WIREs Comput. Mol. Sci., 2020, 11,
     e01493. DOI: 10.1002/wcms.1493
   
   for GFN2-xTB:
   * C. Bannwarth, S. Ehlert and S. Grimme., J. Chem. Theory Comput., 2019,
     15, 1652-1671. DOI: 10.1021/acs.jctc.8b01176
   for GFN1-xTB:
   * S. Grimme, C. Bannwarth, P. Shushkov, J. Chem. Theory Comput., 2017,
     13, 1989-2009. DOI: 10.1021/acs.jctc.7b00118
   for GFN0-xTB:
   * P. Pracht, E. Caldeweyher, S. Ehlert, S. Grimme, ChemRxiv, 2019, preprint.
     DOI: 10.26434/chemrxiv.8326202.v1
   for GFN-FF:
   * S. Spicher and S. Grimme, Angew. Chem. Int. Ed., 2020, 59, 15665-15673.
     DOI: 10.1002/anie.202004239
   
   for ALPB and GBSA implicit solvation:
   * S. Ehlert, M. Stahn, S. Spicher, S. Grimme, J. Chem. Theory Comput.,
     2021, 17, 4250-4261. DOI: 10.1021/acs.jctc.1c00471
   
   for ddCOSMO and CPCM-X implicit solvation:
   * M. Stahn, S. Ehlert, S. Grimme, J. Phys. Chem. A,
     2023, XX, XXXX-XXXX. DOI: 10.1021/acs.jpca.3c04382
   
   for DFT-D4:
   * E. Caldeweyher, C. Bannwarth and S. Grimme, J. Chem. Phys., 2017,
     147, 034112. DOI: 10.1063/1.4993215
   * E. Caldeweyher, S. Ehlert, A. Hansen, H. Neugebauer, S. Spicher,
     C. Bannwarth and S. Grimme, J. Chem. Phys., 2019, 150, 154122.
     DOI: 10.1063/1.5090222
   * E. Caldeweyher, J.-M. Mewes, S. Ehlert and S. Grimme, Phys. Chem. Chem. Phys.
     2020, 22, 8499-8512. DOI: 10.1039/D0CP00502A
   
   for sTDA-xTB:
   * S. Grimme and C. Bannwarth, J. Chem. Phys., 2016, 145, 054103.
     DOI: 10.1063/1.4959605
   
   in the mass-spec context:
   * V. Asgeirsson, C. Bauer and S. Grimme, Chem. Sci., 2017, 8, 4879.
     DOI: 10.1039/c7sc00601b
   * J. Koopman and S. Grimme, ACS Omega 2019, 4, 12, 15120-15133.
     DOI: 10.1021/acsomega.9b02011
   
   for metadynamics refer to:
   * S. Grimme, J. Chem. Theory Comput., 2019, 155, 2847-2862
     DOI: 10.1021/acs.jctc.9b00143
   
   for SPH calculations refer to:
   * S. Spicher and S. Grimme, J. Chem. Theory Comput., 2021, 17, 1701-1714
     DOI: 10.1021/acs.jctc.0c01306
   
   for ONIOM refer to:
   * C. Plett, A. Katbashev, S. Ehlert, S. Grimme, M. Bursch,
     Phys. Chem. Chem. Phys., 2023, 25, 17860-17868. DOI: 10.1039/D3CP02178E
   
   for DIPRO refer to:
   * J. Kohn, N. Gildemeister, S. Grimme, D. Fazzi, A. Hansen,
     J. Chem. Phys., 2023, just accepted.
   
   for PTB refer to:
   * S. Grimme, M. Mueller, A. Hansen, J. Chem. Phys., 2023, 158, 124111.
     DOI: 10.1063/5.0137838
   
   with help from (in alphabetical order)
   P. Atkinson, C. Bannwarth, F. Bohle, G. Brandenburg, E. Caldeweyher
   M. Checinski, S. Dohm, S. Ehlert, S. Ehrlich, I. Gerasimov, C. Hölzer
   A. Katbashev, J. Kohn, J. Koopman, C. Lavigne, S. Lehtola, F. März, M. Müller,
   F. Musil, H. Neugebauer, J. Pisarek, C. Plett, P. Pracht, F. Pultar,
   J. Seibert, P. Shushkov, S. Spicher, M. Stahn, M. Steiner, T. Strunk,
   J. Stückrath, T. Rose, and J. Unsleber
   
 * started run on 2026/03/16 at 14:15:35.067     
   ID    Z sym.   atoms
    1    6 C      1
    2    1 H      2-4
    3    9 F      5
    4   53 I      6

           -------------------------------------------------
          |                Calculation Setup                |
           -------------------------------------------------

          program call               : /software/orca-6.1.0-el8-x86_64/bin/otool_xtb product_optfreq_XTB.xyz --grad -c -1 -u 0 -P 8 --namespace product_optfreq --input product_optfreq_XTB.input.tmp --acc 0.200000
          hostname                   : midway3-login4.rcc.local
          calculation namespace      : product_optfreq
          coordinate file            : product_optfreq_XTB.xyz
          omp threads                :                     8


molecular fragmentation (1/2 indicates fragments):
111121
# atoms in fragment 1/2:     5     1
 fragment masses (1/2) :      141.94       19.00
CMA distance (Bohr)    :   7.884
constraining FC (au)   :  0.0500

           -------------------------------------------------
          |                 G F N 2 - x T B                 |
           -------------------------------------------------

        Reference                      10.1021/acs.jctc.8b01176
      * Hamiltonian:
        H0-scaling (s, p, d)           1.850000    2.230000    2.230000
        zeta-weighting                 0.500000
      * Dispersion:
        s8                             2.700000
        a1                             0.520000
        a2                             5.000000
        s9                             5.000000
      * Repulsion:
        kExp                           1.500000    1.000000
        rExp                           1.000000
      * Coulomb:
        alpha                          2.000000
        third order                    shell-resolved
        anisotropic                    true
        a3                             3.000000
        a5                             4.000000
        cn-shift                       1.200000
        cn-exp                         4.000000
        max-rad                        5.000000

q/qsh data taken from xtbrestart
CAMM data taken from xtbrestart

          ...................................................
          :                      SETUP                      :
          :.................................................:
          :  # basis functions                  21          :
          :  # atomic orbitals                  20          :
          :  # shells                           10          :
          :  # electrons                        22          :
          :  max. iterations                   250          :
          :  Hamiltonian                  GFN2-xTB          :
          :  restarted?                       true          :
          :  GBSA solvation                  false          :
          :  PC potential                    false          :
          :  electronic temp.          300.0000000     K    :
          :  accuracy                    0.2000000          :
          :  -> integral cutoff          0.3198970E+02      :
          :  -> integral neglect         0.2000000E-08      :
          :  -> SCF convergence          0.2000000E-06 Eh   :
          :  -> wf. convergence          0.2000000E-04 e    :
          :  Broyden damping             0.4000000          :
          :  net charge                         -1          :
          :  unpaired electrons                  0          :
          ...................................................

 iter      E             dE          RMSdq      gap      omega  full diag
   1    -12.4861073 -0.124861E+02  0.977E-01    3.19       0.0  T
   2    -12.4880544 -0.194710E-02  0.375E-01    3.45       1.0  T
   3    -12.4881147 -0.602182E-04  0.174E-01    3.43       1.0  T
   4    -12.4881156 -0.916334E-06  0.543E-02    3.43       1.0  T
   5    -12.4881176 -0.205036E-05  0.337E-02    3.43       1.2  T
   6    -12.4881178 -0.168497E-06  0.106E-02    3.43       3.8  T
   7    -12.4881179 -0.108497E-06  0.642E-03    3.43       6.4  T
   8    -12.4881180 -0.809706E-07  0.889E-04    3.43      45.9  T
   9    -12.4881180 -0.429710E-09  0.195E-04    3.43     209.1  T
  10    -12.4881180 -0.122355E-10  0.994E-05    3.43     410.7  T

   *** convergence criteria satisfied after 10 iterations ***

         #    Occupation            Energy/Eh            Energy/eV
      -------------------------------------------------------------
         1        2.0000           -0.5209110             -14.1747
       ...           ...                  ...                  ...
         5        2.0000           -0.3295716              -8.9681
         6        2.0000           -0.2700378              -7.3481
         7        2.0000           -0.2178613              -5.9283
         8        2.0000           -0.2177930              -5.9264
         9        2.0000           -0.1967333              -5.3534
        10        2.0000           -0.1967213              -5.3531
        11        2.0000           -0.1944647              -5.2917 (HOMO)
        12                         -0.0684787              -1.8634 (LUMO)
        13                          0.2635948               7.1728
        14                          0.2638498               7.1797
        15                          0.2743080               7.4643
        16                          0.2743570               7.4656
       ...                                ...                  ...
        20                          0.4509596              12.2712
      -------------------------------------------------------------
                  HL-Gap            0.1259860 Eh            3.4283 eV
             Fermi-level           -0.1314717 Eh           -3.5775 eV

 SCC (total)                   0 d,  0 h,  0 min,  0.170 sec
 SCC setup                      ...        0 min,  0.000 sec (  0.143%)
 Dispersion                     ...        0 min,  0.000 sec (  0.029%)
 classical contributions        ...        0 min,  0.000 sec (  0.020%)
 integral evaluation            ...        0 min,  0.164 sec ( 96.488%)
 iterations                     ...        0 min,  0.004 sec (  2.420%)
 molecular gradient             ...        0 min,  0.001 sec (  0.759%)
 printout                       ...        0 min,  0.000 sec (  0.128%)

         :::::::::::::::::::::::::::::::::::::::::::::::::::::
         ::                     SUMMARY                     ::
         :::::::::::::::::::::::::::::::::::::::::::::::::::::
         :: total energy             -12.428717757103 Eh    ::
         :: gradient norm              0.021713148084 Eh/a0 ::
         :: HOMO-LUMO gap              3.428254174723 eV    ::
         ::.................................................::
         :: SCC energy               -12.488118138414 Eh    ::
         :: -> isotropic ES            0.174944441573 Eh    ::
         :: -> anisotropic ES         -0.004044691441 Eh    ::
         :: -> anisotropic XC          0.000585337693 Eh    ::
         :: -> dispersion             -0.002521175607 Eh    ::
         :: repulsion energy           0.059400381311 Eh    ::
         :: add. restraining           0.000000000000 Eh    ::
         :: total charge              -1.000000000000 e     ::
         :::::::::::::::::::::::::::::::::::::::::::::::::::::


Property printout bound to 'properties.out'

           -------------------------------------------------
          | TOTAL ENERGY              -12.428717757103 Eh   |
          | GRADIENT NORM               0.021713148084 Eh/α |
          | HOMO-LUMO GAP               3.428254174723 eV   |
           -------------------------------------------------

------------------------------------------------------------------------
 * finished run on 2026/03/16 at 14:15:35.367     
------------------------------------------------------------------------
 total:
 * wall-time:     0 d,  0 h,  0 min,  0.300 sec
 *  cpu-time:     0 d,  0 h,  0 min,  0.356 sec
 * ratio c/w:     1.187 speedup
 SCF:
 * wall-time:     0 d,  0 h,  0 min,  0.171 sec
 *  cpu-time:     0 d,  0 h,  0 min,  0.277 sec
 * ratio c/w:     1.624 speedup


-------------------------   --------------------
FINAL SINGLE POINT ENERGY       -12.428717757100
-------------------------   --------------------


-------------
DIPOLE MOMENT
-------------
                                X             Y             Z
Total Dipole Moment    :      0.03100      -0.53600       0.89300
                        -----------------------------------------
Magnitude (a.u.)       :      1.04197
Magnitude (Debye)      :      2.64848


------------------
CARTESIAN GRADIENT
------------------

   1   C   :   -0.000004874   -0.000385653   -0.019197442
   2   H   :    0.000035960   -0.000489458    0.006179309
   3   H   :    0.001760166   -0.001366767    0.002631314
   4   H   :   -0.001589026   -0.001550503    0.002640466
   5   F   :   -0.000173218    0.003172543    0.003684323
   6   I   :   -0.000029008    0.000619837    0.004062029

Difference to translation invariance:
           :    0.0000000000    0.0000000000   -0.0000000000

Difference to rotation invariance:
           :    0.0000001644    0.0000000092   -0.0000000002

Norm of the Cartesian gradient     ...    0.0217131481
RMS gradient                       ...    0.0051178381
MAX gradient                       ...    0.0191974416
------------------------------------------------------------------------------
                         ORCA GEOMETRY RELAXATION STEP
------------------------------------------------------------------------------

Reading the OPT-File                    .... done
Getting information on internals        .... done
Copying old internal coords+grads       .... done
Making the new internal coordinates     .... (2022 redundants) done
Validating the new internal coordinates .... (2022 redundants) done
Calculating the B-matrix                .... done
Calculating the G,G- and P matrices     .... done
Transforming gradient to internals      .... done
Projecting the internal gradient        .... done
Number of atoms                         ....   6
Number of internal coordinates          ....  21
Current Energy                          ....   -12.428717757 Eh
Current gradient norm                   ....     0.021713148 Eh/bohr
Maximum allowed component of the step   ....  0.300
Current trust radius                    ....  0.200
Updating the Hessian (BFGS)             .... done
Forming the augmented Hessian           .... done
Diagonalizing the augmented Hessian     .... done
Last element of RFO vector              ....  0.814206967
Lowest eigenvalues of augmented Hessian:
 -0.005846918  0.008945531  0.021223884  0.026746130  0.059064999
Length of the computed step             ....  0.713055466
Warning: the length of the step is outside the trust region - taking restricted step instead
The input lambda is                     ....     0.003256
   iter:   5  x=   -0.003316  g=  766.437873 f(x)=     1.926018
   iter:  10  x=   -0.032456  g=    3.609096 f(x)=     0.020279
   iter:  15  x=   -0.034524  g=    1.909578 f(x)=     0.000000
The output lambda is                    ....    -0.034524 (15 iterations)
The final length of the internal step   ....  0.200000000
Converting the step to Cartesian space:
 Initial RMS(Int)=    0.0436435780
Transforming coordinates:
 Iter   0:  RMS(Cart)=    0.0381187299 RMS(Int)=    0.0433759064
done
Storing new coordinates                 .... done
The predicted energy change is          ....    -0.001619110
Previously predicted energy change      ....    -0.002281177
Actually observed energy change         ....    -0.002437596
Ratio of predicted to observed change   ....     1.068569317
New trust radius                        ....     0.300000000

                                .--------------------.
          ----------------------|Geometry convergence|-------------------------
          Item                value                   Tolerance       Converged
          ---------------------------------------------------------------------
          Energy change      -0.0024375956            0.0000050000      NO
          RMS gradient        0.0024303518            0.0001000000      NO
          MAX gradient        0.0054432100            0.0003000000      NO
          RMS step            0.0436435780            0.0020000000      NO
          MAX step            0.0925328625            0.0040000000      NO
          -------------------------------------------------------------------------
          ........................................................
          Max(Bonds)      0.0490      Max(Angles)    4.35
          Max(Dihed)        0.00      Max(Improp)    0.00
          ---------------------------------------------------------------------

The optimization has not yet converged - more geometry cycles are needed


    ---------------------------------------------------------------------------
                         Redundant Internal Coordinates
                            (Angstroem and degrees)

        Definition                    Value    dE/dq     Step     New-Value
    ----------------------------------------------------------------------------
     1. B(H   1,C   0)                1.0672  0.001471  0.0002    1.0673   
     2. B(H   2,C   0)                1.0716  0.001654 -0.0004    1.0712   
     3. B(H   3,C   0)                1.0716  0.001655 -0.0004    1.0712   
     4. B(F   4,H   3)                2.1453  0.001018 -0.0362    2.1091   
     5. B(F   4,C   0)                1.9552  0.004658 -0.0490    1.9063   
     6. B(F   4,H   2)                2.1455  0.001023 -0.0363    2.1091   
     7. B(F   4,H   1)                2.0485 -0.003047  0.0349    2.0834   
     8. B(I   5,H   3)                2.8241  0.000773 -0.0000    2.8240   
     9. B(I   5,H   1)                2.8167 -0.000037  0.0137    2.8304   
    10. B(I   5,H   2)                2.8241  0.000774 -0.0000    2.8240   
    11. B(I   5,C   0)                2.4853 -0.005443  0.0354    2.5207   
    12. A(H   1,C   0,H   3)          118.82 -0.000851    0.46    119.29   
    13. A(H   2,C   0,H   3)          118.08 -0.001598    1.43    119.51   
    14. A(H   1,C   0,F   4)           79.43 -0.003994    4.35     83.78   
    15. A(H   2,C   0,F   4)           84.96 -0.002019    0.37     85.32   
    16. A(H   3,C   0,F   4)           84.95 -0.002021    0.37     85.32   
    17. A(H   1,C   0,I   5)           96.69  0.002432   -1.18     95.51   
[...]
                  HL-Gap            0.3320780 Eh            9.0363 eV
             Fermi-level            0.0122134 Eh            0.3323 eV

 SCC (total)                   0 d,  0 h,  0 min,  0.167 sec
 SCC setup                      ...        0 min,  0.000 sec (  0.176%)
 Dispersion                     ...        0 min,  0.000 sec (  0.042%)
 classical contributions        ...        0 min,  0.000 sec (  0.020%)
 integral evaluation            ...        0 min,  0.163 sec ( 97.656%)
 iterations                     ...        0 min,  0.002 sec (  1.140%)
 molecular gradient             ...        0 min,  0.001 sec (  0.803%)
 printout                       ...        0 min,  0.000 sec (  0.146%)

         :::::::::::::::::::::::::::::::::::::::::::::::::::::
         ::                     SUMMARY                     ::
         :::::::::::::::::::::::::::::::::::::::::::::::::::::
         :: total energy             -12.467194768039 Eh    ::
         :: gradient norm              0.000095962928 Eh/a0 ::
         :: HOMO-LUMO gap              9.036302870484 eV    ::
         ::.................................................::
         :: SCC energy               -12.526694362888 Eh    ::
         :: -> isotropic ES            0.167337555094 Eh    ::
         :: -> anisotropic ES         -0.000913113005 Eh    ::
         :: -> anisotropic XC         -0.001436157737 Eh    ::
         :: -> dispersion             -0.002229244136 Eh    ::
         :: repulsion energy           0.059499594848 Eh    ::
         :: add. restraining           0.000000000000 Eh    ::
         :: total charge              -1.000000000000 e     ::
         :::::::::::::::::::::::::::::::::::::::::::::::::::::

           ------------------------------------------------- 
          |                Numerical Hessian                |
           ------------------------------------------------- 
step length          :   0.00500
SCC accuracy         :   0.30000
Hessian scale factor :   1.00000
frozen atoms in %    :   0.00000    0
RMS gradient         :   0.00010
estimated CPU  time      0.00 min
estimated wall time      0.00 min

writing file <hessian>.

 projected vibrational frequencies (cm⁻¹)
eigval :       -0.00    -0.00     0.00     0.00     0.00     0.00
eigval :       96.13   100.38   100.41  1000.93  1106.12  1106.15
eigval :     1386.51  1451.66  1451.87  3036.84  3043.89  3044.28

Property printout bound to 'properties.out'
Refinement of some symmetry elements was terminated before convergence was reached.
Some symmetry elements may remain unidentified.
Molecule has the following symmetry elements: (C3) 3*(sigma) 
It seems to be the C3v point group

           -------------------------------------------------
          | TOTAL ENERGY              -12.467194768039 Eh   |
          | TOTAL ENTHALPY            -12.422544427548 Eh   |
          | TOTAL FREE ENERGY         -12.457953541230 Eh   |
          | GRADIENT NORM               0.000095955834 Eh/α |
          | HOMO-LUMO GAP               9.036302842950 eV   |
           -------------------------------------------------

------------------------------------------------------------------------
 * finished run on 2026/03/16 at 14:15:40.656     
------------------------------------------------------------------------
 total:
 * wall-time:     0 d,  0 h,  0 min,  0.293 sec
 *  cpu-time:     0 d,  0 h,  0 min,  0.485 sec
 * ratio c/w:     1.657 speedup
 SCF:
 * wall-time:     0 d,  0 h,  0 min,  0.168 sec
 *  cpu-time:     0 d,  0 h,  0 min,  0.240 sec
 * ratio c/w:     1.429 speedup
 analytical hessian:
 * wall-time:     0 d,  0 h,  0 min,  0.018 sec
 *  cpu-time:     0 d,  0 h,  0 min,  0.119 sec
 * ratio c/w:     6.442 speedup


-------------------------   --------------------
FINAL SINGLE POINT ENERGY       -12.467194768040
-------------------------   --------------------


-------------
DIPOLE MOMENT
-------------
                                X             Y             Z
Total Dipole Moment    :      0.02700      -0.38000       4.25800
                        -----------------------------------------
Magnitude (a.u.)       :      4.27501
Magnitude (Debye)      :     10.86621


-----------------------
VIBRATIONAL FREQUENCIES
-----------------------

Scaling factor for frequencies =  1.000000000  (already applied!)

     0:       0.00 cm**-1
     1:       0.00 cm**-1
     2:       0.00 cm**-1
     3:       0.00 cm**-1
     4:       0.00 cm**-1
     5:       0.00 cm**-1
     6:      96.13 cm**-1
     7:     100.38 cm**-1
     8:     100.41 cm**-1
     9:    1000.92 cm**-1
    10:    1106.09 cm**-1
    11:    1106.12 cm**-1
    12:    1386.48 cm**-1
    13:    1451.62 cm**-1
    14:    1451.82 cm**-1
    15:    3036.76 cm**-1
    16:    3043.81 cm**-1
    17:    3044.20 cm**-1


------------
NORMAL MODES
------------

These modes are the Cartesian displacements weighted by the diagonal matrix
M(i,i)=1/sqrt(m[i]) where m[i] is the mass of the displaced atom
Thus, these vectors are normalized but *not* orthogonal

                  0          1          2          3          4          5    
      0       0.000000   0.000000   0.000000   0.000000   0.000000   0.000000
      1       0.000000   0.000000   0.000000   0.000000   0.000000   0.000000
      2       0.000000   0.000000   0.000000   0.000000   0.000000   0.000000
      3       0.000000   0.000000   0.000000   0.000000   0.000000   0.000000
      4       0.000000   0.000000   0.000000   0.000000   0.000000   0.000000
      5       0.000000   0.000000   0.000000   0.000000   0.000000   0.000000
      6       0.000000   0.000000   0.000000   0.000000   0.000000   0.000000
      7       0.000000   0.000000   0.000000   0.000000   0.000000   0.000000
      8       0.000000   0.000000   0.000000   0.000000   0.000000   0.000000
      9       0.000000   0.000000   0.000000   0.000000   0.000000   0.000000
     10       0.000000   0.000000   0.000000   0.000000   0.000000   0.000000
     11       0.000000   0.000000   0.000000   0.000000   0.000000   0.000000
     12       0.000000   0.000000   0.000000   0.000000   0.000000   0.000000
     13       0.000000   0.000000   0.000000   0.000000   0.000000   0.000000
     14       0.000000   0.000000   0.000000   0.000000   0.000000   0.000000
     15       0.000000   0.000000   0.000000   0.000000   0.000000   0.000000
     16       0.000000   0.000000   0.000000   0.000000   0.000000   0.000000
     17       0.000000   0.000000   0.000000   0.000000   0.000000   0.000000
                  6          7          8          9         10         11    
      0      -0.000867   0.330189   0.015004   0.000665  -0.134410   0.011419
      1       0.007237   0.015006  -0.330207   0.002976  -0.011418  -0.134429
      2      -0.449436  -0.000423  -0.002584   0.564573   0.000223   0.000780
      3      -0.000986   0.455749   0.020571   0.001208   0.267166  -0.015035
      4       0.011185   0.020640  -0.463434  -0.010893   0.019178   0.148510
      5      -0.429787  -0.004383  -0.388288   0.408494   0.021684   0.747016
      6      -0.000909   0.459956   0.023926  -0.011165   0.174910   0.034197
      7       0.010716   0.018631  -0.455292   0.007333   0.072798   0.236290
      8      -0.445850   0.335993   0.188022   0.409602   0.636022  -0.394183
      9      -0.001053   0.458664   0.017959   0.011468   0.176084  -0.071693
     10       0.010712   0.023192  -0.455663   0.008565  -0.039451   0.233747
     11      -0.446230  -0.333422   0.194583   0.409640  -0.658678  -0.355772
     12      -0.000358  -0.188283  -0.008564  -0.000501   0.052266  -0.004440
     13      -0.007247  -0.008556   0.188265  -0.002142   0.004439   0.052257
     14      -0.447777   0.000309  -0.005103  -0.422247  -0.000089  -0.000332
     15       0.000159  -0.013982  -0.000634  -0.000000  -0.000013   0.000001
     16       0.000141  -0.000635   0.013986  -0.000001  -0.000001  -0.000013
     17       0.120075   0.000008   0.001054   0.000025  -0.000000  -0.000001
                 12         13         14         15         16         17    
      0      -0.000129  -0.003793   0.064339   0.000230   0.004977   0.089651
      1      -0.000646   0.064318   0.003792  -0.002010  -0.089605   0.004982
      2      -0.112817  -0.000464  -0.000095   0.037447  -0.000557  -0.000160
      3      -0.010172  -0.003912  -0.735357  -0.031649  -0.041910   0.045442
      4       0.198393   0.128458  -0.040167   0.568431   0.751688   0.001861
      5       0.537785   0.324892   0.002285  -0.178265  -0.260265   0.000143
      6       0.176199  -0.344112  -0.069222   0.482617  -0.373525  -0.583852
      7      -0.085253  -0.539948  -0.378734  -0.246080   0.145547   0.321987
      8       0.539340  -0.159873   0.282526  -0.165230   0.134797   0.225430
      9      -0.164160   0.401859  -0.108405  -0.453820   0.355293  -0.544975
     10      -0.104074  -0.501466   0.365080  -0.298340   0.185627  -0.384049
     11       0.539853  -0.158884  -0.283427  -0.164185   0.133604  -0.223605
     12      -0.000016  -0.000449   0.007609   0.000005   0.000051   0.000921
     13      -0.000064   0.007620   0.000449  -0.000008  -0.000922   0.000051
     14      -0.013165  -0.000030  -0.000013   0.002879  -0.000070  -0.000003
     15      -0.000000  -0.000001   0.000023   0.000000  -0.000001  -0.000018
     16      -0.000001   0.000023   0.000001   0.000001   0.000018  -0.000001
     17      -0.000195  -0.000000  -0.000000   0.000057  -0.000001  -0.000000


The first frequency considered to be a vibration is 6
The total number of vibrations considered is 12


--------------------------
THERMOCHEMISTRY AT 298.15K
--------------------------

Temperature         ...   298.15 K
Pressure            ...     1.00 atm
Total Mass          ...   160.93 AMU
Quasi RRHO          ...     True
Cut-Off Frequency   ...     1.00 cm^-1

Throughout the following assumptions are being made:
  (1) The electronic state is orbitally nondegenerate
  (2) There are no thermally accessible electronically excited states
  (3) Hindered rotations indicated by low frequency modes are not
      treated as such but are treated as vibrations and this may
      cause some error
  (4) All equations used are the standard statistical mechanics
      equations for an ideal gas
  (5) All vibrations are strictly harmonic

freq.      96.13  E(vib)   ...       0.47 
freq.     100.38  E(vib)   ...       0.46 
freq.     100.41  E(vib)   ...       0.46 
freq.    1000.92  E(vib)   ...       0.02 
freq.    1106.09  E(vib)   ...       0.02 
freq.    1106.12  E(vib)   ...       0.02 
freq.    1386.48  E(vib)   ...       0.00 
freq.    1451.62  E(vib)   ...       0.00 
freq.    1451.82  E(vib)   ...       0.00 
freq.    3036.76  E(vib)   ...       0.00 
freq.    3043.81  E(vib)   ...       0.00 
freq.    3044.20  E(vib)   ...       0.00 

------------
INNER ENERGY
------------

The inner energy is: U= E(el) + E(ZPE) + E(vib) + E(rot) + E(trans)
    E(el)   - is the total energy from the electronic structure calculation
              = E(kin-el) + E(nuc-el) + E(el-el) + E(nuc-nuc)
    E(ZPE)  - the the zero temperature vibrational energy from the frequency calculation
    E(vib)  - the the finite temperature correction to E(ZPE) due to population
              of excited vibrational states
    E(rot)  - is the rotational thermal energy
    E(trans)- is the translational thermal energy

Summary of contributions to the inner energy U:
Electronic energy                ...    -12.46719477 Eh
Zero point energy                ...      0.03855737 Eh      24.20 kcal/mol
Thermal vibrational correction   ...      0.00231516 Eh       1.45 kcal/mol
Thermal rotational correction    ...      0.00141627 Eh       0.89 kcal/mol
Thermal translational correction ...      0.00141627 Eh       0.89 kcal/mol
-----------------------------------------------------------------------
Total thermal energy                    -12.42348969 Eh


Summary of corrections to the electronic energy:
(perhaps to be used in another calculation)
Total thermal correction                  0.00514770 Eh       3.23 kcal/mol
Non-thermal (ZPE) correction              0.03855737 Eh      24.20 kcal/mol
-----------------------------------------------------------------------
Total correction                          0.04370508 Eh      27.43 kcal/mol


--------
ENTHALPY
--------

The enthalpy is H = U + kB*T
                kB is Boltzmann's constant
Total thermal energy              ...    -12.42348969 Eh 
Thermal Enthalpy correction       ...      0.00094421 Eh       0.59 kcal/mol
-----------------------------------------------------------------------
Total Enthalpy                    ...    -12.42254548 Eh


WARNING (ORCA/SYM): The number of Z matrix atoms does not agree with
the number of centers in the basis set. The point group will therefore
be determined without considering basis set information.


Note: Rotational entropy computed according to Herzberg 
Infrared and Raman Spectra, Chapter V,1, Van Nostrand Reinhold, 1945 
Point Group:  Cs, Symmetry Number:   1  
Rotational constants in cm-1:     5.243727     0.035323     0.035323 

Vibrational entropy computed according to the QRRHO of S. Grimme
Chem.Eur.J. 2012 18 9955 using a reference frequency of 100.0 cm-1


-------
ENTROPY
-------

The entropy contributions are T*S = T*(S(el)+S(vib)+S(rot)+S(trans))
     S(el)   - electronic entropy
     S(vib)  - vibrational entropy
     S(rot)  - rotational entropy
     S(trans)- translational entropy
The entropies will be listed as multiplied by the temperature to get
units of energy

Electronic entropy                ...      0.00000000 Eh      0.00 kcal/mol
Vibrational entropy               ...      0.00463375 Eh      2.91 kcal/mol
Rotational entropy                ...      0.01188516 Eh      7.46 kcal/mol
Translational entropy             ...      0.01954513 Eh     12.26 kcal/mol
-----------------------------------------------------------------------
Final entropy term                ...      0.03606404 Eh     22.63 kcal/mol

In case the symmetry of your molecule has not been determined correctly
or in case you have a reason to use a different symmetry number we print 
out the resulting rotational entropy values for sn=1,12:

 non-linear molecules -----------------------------------
|  sn= 1 | S(rot)=       0.01188516 Eh      7.46 kcal/mol|
|  sn= 2 | S(rot)=       0.01123070 Eh      7.05 kcal/mol|
|  sn= 3 | S(rot)=       0.01084787 Eh      6.81 kcal/mol|
|  sn= 4 | S(rot)=       0.01057624 Eh      6.64 kcal/mol|
|  sn= 5 | S(rot)=       0.01036556 Eh      6.50 kcal/mol|
|  sn= 6 | S(rot)=       0.01019341 Eh      6.40 kcal/mol|
|  sn= 7 | S(rot)=       0.01004787 Eh      6.31 kcal/mol|
|  sn= 8 | S(rot)=       0.00992179 Eh      6.23 kcal/mol|
|  sn= 9 | S(rot)=       0.00981058 Eh      6.16 kcal/mol|
|  sn=10 | S(rot)=       0.00971110 Eh      6.09 kcal/mol|
|  sn=11 | S(rot)=       0.00962111 Eh      6.04 kcal/mol|
|  sn=12 | S(rot)=       0.00953896 Eh      5.99 kcal/mol|
 linear molecules ---------------------------------------
|  Dinfh | S(rot)=       0.00848242 Eh      5.32 kcal/mol|
|  Cinfv | S(rot)=       0.00913688 Eh      5.73 kcal/mol|
 --------------------------------------------------------


-------------------
GIBBS FREE ENERGY
-------------------

The Gibbs free energy is G = H - T*S

Total enthalpy                    ...    -12.42254548 Eh 
Total entropy correction          ...     -0.03606404 Eh    -22.63 kcal/mol
-----------------------------------------------------------------------
Final Gibbs free energy         ...    -12.45860952 Eh

For completeness - the Gibbs free energy minus the electronic energy
G-E(el)                           ...      0.00858525 Eh      5.39 kcal/mol


--------------------------------
SUGGESTED CITATIONS FOR THIS RUN
--------------------------------

Below you find a list of papers that are relevant to this ORCA run
We neither can nor want to force you to cite these papers, but we appreciate if you do
You receive ORCA, which is the product of decades of hard work by many enthusiastic individuals, for free
The only thing we kindly ask in return is that you cite our papers,
We deeply appreciate it, if you show your appreciation for ORCA by not just citing the generic ORCA reference.

Please note that relegating all ORCA citations to the supporting information does *not* help us.
SI sections are not indexed - citations you put there will not count into any citation statistics
But we need these citations in order to attract the funding resources that allow us to do what we are doing

Therefore, if you are a happy ORCA user, please consider citing a few of the papers listed below in the main body of your paper

In addition to the list printed below, the program has created the file product_optfreq.bibtex that contains the list in bibtex format
You can import this file easily into all common literature databanks and citation aid programs


List of essential papers. We consider these as the minimum necessary citations

  1. Bannwarth, C.; Ehlert, S.; Grimme, S.
     GFN2-xTB—An Accurate and Broadly Parametrized Self-Consistent Tight-Binding Quantum Chemical Method with Multipole Electrostatics and Density-Dependent Dispersion Contributions
     J. Chem. Theory Comput. 2019 15(3), 1652-1671
     doi.org/10.1021/acs.jctc.8b01176
  2. Neese, F.
     Software update: the ORCA program system, version 6.0
     WIRES Comput. Molec. Sci. 2025 15(1), e70019
     doi.org/10.1002/wcms.7019

List of papers to cite with high priority. The work reported in these papers was absolutely
necessary for this run to complete.
Our perspective: the developers of density functionals and basis sets usually get cited in chemistry papers
Good! But without the algorithms to do something with them, the functionals or basis sets would not do anything.
Hence, in our opinion, the algorithm design and method developments papers are equally worthy of getting cited

  1. Bykov, D.; Petrenko, T.; Izsak, R.; Kossmann, S.; Becker, U.; Valeev, E.; Neese, F.
     Efficient implementation of the analytic second derivatives of Hartree-Fock and hybrid DFT energies: a detailed analysis of different approximations
     Molec. Phys. 2015 113 , 1961-1977
     doi.org/10.1080/00268976.2015.1025114
  2. Bannwarth, C.; Caldeweyher, E.; Ehlert, S.; Hansen, A.; Pracht, P.; Seibert, J.; Spicher, S.; Grimme, S.
     Extended tight-binding quantum chemistry methods
     WIRES Comput. Molec. Sci. 2020 11(2), e1493
     doi.org/10.1002/wcms.1493

List of suggested additional citations. These are papers that are important in the 'surrounding' of 
of this run, or papers that preceded the highly important papers. If you like your results we are grateful for a citation.

  1. Neese, F.
     The ORCA program system
     WIRES Comput. Molec. Sci. 2012 2(1), 73-78
     doi.org/10.1002/wcms.81
  2. Neese, F.
     Software update: the ORCA program system, version 4.0
     WIRES Comput. Molec. Sci. 2018 8(1), 1-6
     doi.org/10.1002/wcms.1327
  3. Neese, F.; Wennmohs, F.; Becker, U.; Riplinger, C.
     The ORCA quantum chemistry program package
     J. Chem. Phys. 2020 152(22), 224108
     doi.org/10.1063/5.0004608
  4. Neese, F.
     Software update: The ORCA program system—Version 5.0
     WIRES Comput. Molec. Sci. 2022 12(1), e1606
     doi.org/10.1002/wcms.1606

List of optional additional citations

  1. Neese, F.
     Approximate second-order SCF convergence for spin unrestricted wavefunctions
     Chem. Phys. Lett. 2000 325(1-3), 93-98
     doi.org/10.1016/s0009-2614(00)00662-x

Timings for individual modules:

Sum of individual times          ...        5.936 sec (=   0.099 min)
Geometry relaxation              ...        0.199 sec (=   0.003 min)   3.4 %
XTB module                       ...        5.736 sec (=   0.096 min)  96.6 %
                             ****ORCA TERMINATED NORMALLY****
TOTAL RUN TIME: 0 days 0 hours 0 minutes 7 seconds 114 msec
