
                                 *****************
                                 * O   R   C   A *
                                 *****************

                                            #,                                       
                                            ###                                      
                                            ####                                     
                                            #####                                    
                                            ######                                   
                                           ########,                                 
                                     ,,################,,,,,                         
                               ,,#################################,,                 
                          ,,##########################################,,             
                       ,#########################################, ''#####,          
                    ,#############################################,,   '####,        
                  ,##################################################,,,,####,       
                ,###########''''           ''''###############################       
              ,#####''   ,,,,##########,,,,          '''####'''          '####       
            ,##' ,,,,###########################,,,                        '##       
           ' ,,###''''                  '''############,,,                           
         ,,##''                                '''############,,,,        ,,,,,,###''
      ,#''                                            '''#######################'''  
     '                                                          ''''####''''         
             ,#######,   #######,   ,#######,      ##                                
            ,#'     '#,  ##    ##  ,#'     '#,    #''#        ,####,    ,#,          
            ##       ##  ##   ,#'  ##            #'  '#       #'       ,# #          
            ##       ##  #######   ##           ,######,      #####,      #          
            '#,     ,#'  ##    ##  '#,     ,#' ,#      #,     #,   #      #          
             '#######'   ##     ##  '#######'  #'      '#     '####' #    #          



                #########################################################
                #                        -***-                          #
                #          Department of theory and spectroscopy        #
                #                                                       #
                #                      Frank Neese                      #
                #                                                       #
                #     Directorship, Architecture, Infrastructure        #
                #                    SHARK, DRIVERS                     #
                #        Core code/Algorithms in most modules           #
                #                                                       #
                #        Max Planck Institute fuer Kohlenforschung      #
                #                Kaiser Wilhelm Platz 1                 #
                #                 D-45470 Muelheim/Ruhr                 #
                #                      Germany                          #
                #                                                       #
                #                  All rights reserved                  #
                #                        -***-                          #
                #########################################################


                         Program Version 6.1.0  -  RELEASE   -
                                (GIT: $679e74b$)
                          ($2025-06-10 18:02:51 +0200$)


 With contributions from (in alphabetic order):
[Max-Planck-Institut fuer Kohlenforschung]                               
  Daniel Aravena         : Magnetic Suceptibility                        
  Michael Atanasov       : Ab Initio Ligand Field Theory (pilot matlab implementation)
  Alexander A. Auer      : GIAO ZORA, VPT2 properties, NMR spectrum      
  Ute Becker             : All parallelization in ORCA, NUMFREQ, NUMCALC 
  Giovanni Bistoni       : ED, misc. LED, open-shell LED, HFLD           
  Dmytro Bykov           : pre 5.0 version of the SCF Hessian            
  Marcos Casanova-Páez   : Triplet and SCS-CIS(D). UHF-(DLPNO)-IP/EA/STEOM-CCSD. UHF-CVS-IP/STEOM-CCSD   
  Vijay G. Chilkuri      : MRCI spin determinant printing, contributions to CSF-ICE 
  Pauline Colinet        : FMM embedding                                 
  Dipayan Datta          : RHF DLPNO-CCSD density                        
  Achintya Kumar Dutta   : EOM-CC, STEOM-CC                              
  Nicolas Foglia         : Exact transition moments, OPA infrastructure, MCD improvements    
  Dmitry Ganyushin       : Spin-Orbit,Spin-Spin,Magnetic field MRCI      
  Miquel Garcia-Rates    : C-PCM and meta-GGA Hessian, CCSD/C-PCM, Gaussian charge scheme 
  Tiago L. C. Gouveia    : GS-ROHF, GS-ROCIS                             
  Yang Guo               : DLPNO-NEVPT2, F12-NEVPT2, CIM, IAO-localization        
  Andreas Hansen         : Spin unrestricted coupled pair/coupled cluster methods 
  Ingolf Harden          : AUTO-CI MPn and infrastructure                
  Benjamin Helmich-Paris : MC-RPA, TRAH-(SCF,CASSCF), AVAS, COSX integrals, SCF dyn. polar., MC-PDFT, srDFT 
  Lee Huntington         : MR-EOM, pCC                                   
  Robert Izsak           : Overlap fitted RIJCOSX, COSX-SCS-MP3, EOM     
  Riya Kayal             : Wick's Theorem for AUTO-CI, AUTO-CI UHF-CCSDT 
  Emily Kempfer          : AUTO-CI RHF CISDT and CCSDT, approximate NEVPT4
  Christian Kollmar      : KDIIS, OOCD, Brueckner-CCSD(T), CCSD density, CASPT2, CASPT2-K, improved NEVPT2 
  Axel Koslowski         : Symmetry handling                             
  Simone Kossmann        : meta-GGA functionals, TD-DFT gradient, OOMP2, (MP2 Hessian; deprecated post 5.0) 
  Lucas Lang             : DCDCAS, Hyperfine gauge corrections, ICE-SOC+SSC
  Marvin Lechner         : AUTO-CI (C++ implementation), FIC-MRCC        
  Spencer Leger          : CASSCF response                               
  Dagmar Lenk            : GEPOL surface, SMD, ORCA-2-JSON               
  Dimitrios Liakos       : Extrapolation schemes; Compound Job, Property file
  Dimitrios Manganas     : Further ROCIS development; embedding schemes. LFT, Crystal Embedding 
  Dimitrios Pantazis     : SARC Basis sets                               
  Anastasios Papadopoulos: AUTO-CI, single reference methods and gradients 
  Taras Petrenko         : pre 6.0 DFT Hessian and TD-DFT gradient,  ECA, NRVS 
  Petra Pikulova         : Analytic Raman intensities                    
  Peter Pinski           : DLPNO-MP2, DLPNO-MP2 Gradient                 
  Shashank Vittal Rao    : ES-AILFT, MagRelax                            
  Christoph Reimann      : Effective Core Potentials                     
  Marius Retegan         : Local ZFS, SOC                                
  Christoph Riplinger    : Optimizer, TS searches, QM/MM, DLPNO-CCSD(T), (RO)-DLPNO pert. Triples 
  Michael Roemelt        : Original ROCIS implementation, recursive CI coupling coefficients
  Masaaki Saitow         : Open-shell DLPNO-CCSD energy and density      
  Barbara Sandhoefer     : DKH picture change effects                    
  Yorick L. A. Schmerwitz: GMF and freeze-and-release deltaSCF, NEB S-IDPP initial path                    
  Kantharuban Sivalingam : CASSCF convergence/infrastructure, NEVPT2, NEVPT3, NEVPT4(SD), FIC-MRCI and CEPA variants
  Bernardo de Souza      : ESD, SOC TD-DFT                               
  Georgi L. Stoychev     : AutoAux, RI-MP2 NMR, DLPNO-MP2 response, X2C  
  Van Anh Tran           : RI-MP2 g-tensors                              
  Willem Van den Heuvel  : Paramagnetic NMR                              
  Zikuan Wang            : NOTCH, Electric field optimization            
  Frank Wennmohs         : Technical directorship and infrastructure     
  Hang Xu                : AUTO-CI-Response properties                   
                                                                         
[FACCTs GmbH]                                                            
  Markus Bursch, Nicolas Foglia, Miquel Garcia-Rates, Ingolf Harden, Hagen Neugebauer, Anastasios Papadopoulos, 
  Christoph Riplinger, Bernardo de Souza, Georgi L. Stoychev                                                    
                                                                 
  APM, various basis sets, CI-OPT, improved COSX, DLPNO-Multilevel,           
  DOCKER, DRACO, updates on ESD, Fragmentator, GOAT, IRC, LR-CPCM, L-BFGS, MBIS, meta-GGA TD-DFT gradient, ML-optimized integration grids, 
  MM, NACMEs, nearIR, NEB, NEB-TS, NL-DFT gradient (VV10), 2- and 3-layer-ONIOM, interface openCOSMO-RS, QMMM,   
  Crystal-QMMM, RESP, rigid body optimization, SF, symmetry and pop. for TD-DFT, various functionals, SOLVATOR                                   
                                                                         
[Other institutions]                                                     
  V. Asgeirsson          : NEB                                           
  Christoph Bannwarth    : sTDA-DFT, sTD-DFT, PBEh-3c, B97-3c, D3        
  Giovanni Bistoni       : ETS/NOCV, ADLD/ADEX, COVALED                  
  Martin Brehm           : Molecular dynamics                            
  Ronald Cardenas        : ETS/NOCV                                      
  Martina Colucci        : COVALED                                       
  Sebastian Ehlert       : rSCAN, r2SCAN, r2SCAN-3c, D4, dhf basis sets  
  Marvin Friede          : D4 for Fr, Ra, Ac-Lr                          
  Lars Goerigk           : TD-DFT with DH, B97 family of functionals     
  Stefan Grimme          : VdW corrections, initial TS optimization, DFT functionals, gCP, sTDA/sTD-DF 
  Waldemar Hujo          : DFT-NL                                        
  H. Jonsson             : NEB                                           
  Holger Kruse           : gCP                                           
  Marcel Mueller         : wB97X-3c, vDZP basis set                      
  Hagen Neugebauer       : wr2SCAN, Native XTB                           
  Gianluca Regni         : ADLD/ADEX                                     
  Tobias Risthaus        : pre 6.0 range-separated hybrid DFT and stability analysis
  Lukas Wittmann         : regularized MP2, r2SCAN double-hybrids, wr2SCAN        
                                                                         
We gratefully acknowledge several colleagues who have allowed us to      
interface, adapt or use parts of their codes:                            
  Ed Valeev, F. Pavosevic, A. Kumar             : LibInt (2-el integral package), F12 methods 
  Garnet Chan, S. Sharma, J. Yang, R. Olivares  : DMRG                   
  Ulf Ekstrom                                   : XCFun DFT Library      
  Mihaly Kallay                                 : mrcc  (arbitrary order and MRCC methods)
  Frank Weinhold                                : gennbo (NPA and NBO analysis)           
  Simon Mueller                                 : openCOSMO-RS                            
  Christopher J. Cramer and Donald G. Truhlar   : smd solvation model                     
  S Lehtola, MJT Oliveira, MAL Marques          : LibXC Library                           
  Liviu Ungur et al                             : ANISO software                          


 Your calculation uses the libint2 library for the computation of 2-el integrals
 For citations please refer to: http://libint.valeyev.net

 Your ORCA version has been built with support for libXC version: 7.0.0
 For citations please refer to: https://libxc.gitlab.io

 This ORCA versions uses:
   CBLAS   interface :  Fast vector & matrix operations
   LAPACKE interface :  Fast linear algebra routines
   SCALAPACK package :  Parallel linear algebra routines
   Shared memory     :  Shared parallel matrices
   BLAS/LAPACK       :  OpenBLAS 0.3.29  USE64BITINT DYNAMIC_ARCH NO_AFFINITY SkylakeX SINGLE_THREADED
        Core in use  :  SkylakeX
   Copyright (c) 2011-2014, The OpenBLAS Project


  ***********************************
  * Starting time: Thu Mar 12 12:38:58 2026
  * Host name:     midway3-login4.rcc.local
  * Process ID:    2731495
  * Working dir.:  /home/rzhu16/orca_TS_search/sn2_f_i/geo_opt_reactant_product
  ***********************************

Your calculation utilizes the semiempirical GFN2-xTB method
Please cite in your paper:
Bannwarth, C.; Ehlert S.; Grimme, S. J. Chem. Theory Comput. 2019, 15, 1652.
   

================================================================================

cite the ECPs for I  [Def2-ECP] as follows:
Ce-Yb(ecp-28): M. Dolg, H. Stoll, H.Preuss, J. Chem. Phys., 1989, 90, 1730-1734.
Y-Cd(ecp-28), Hf-Hg(ecp-46): D. Andrae,U. Haeussermann, M. Dolg, H. Stoll, H. Preuss, Theor. Chim. Acta, 1990, 77, 123-141.
In-Sb(ecp-28), Tl-Bi(ecp-46): B. Metz, H. Stoll, M. Dolg, J. Chem. Phys., 2000, 113, 2563-2569.
Te-Xe(ecp-28), Po-Rn(ecp-46): K. A. Peterson, D. Figgen, E. Goll, H. Stoll, M. Dolg, J. Chem. Phys., 2003, 119, 11113-11123.
Rb(ecp-28), Cs(ecp-46): T. Leininger, A. Nicklass, W. Kuechle, H. Stoll, M. Dolg, A. Bergner, Chem. Phys. Lett., 1996, 255, 274-280.
Sr(ecp-28), Ba(ecp-46): M. Kaupp, P. V. Schleyer, H. Stoll and H. Preuss, J. Chem. Phys., 1991, 94, 1360-1366.
La(ecp-46): M. Dolg, H. Stoll, A. Savin, H. Preuss, Theor. Chim. Acta, 1989, 75, 173-194.
Lu(ecp-28): X. Cao, M. Dolg, J. Chem. Phys., 2001, 115, 7348-7355.

ECP parameters for I  [Def2-ECP] have been obtained from:
TURBOMOLE (7.0.2)

================================================================================
                                        WARNINGS
                       Please study these warnings very carefully!
================================================================================


WARNING: Analytical Hessian for XTB is limited in the analysis of the data.
       : If you want to obtain extensive IR and deltaG analysis, please use ! XTB NumFreq. 


WARNING: Geometry Optimization
  ===> : Switching off AutoStart
         For restart on a previous wavefunction, please use MOREAD

WARNING: Found dipole moment calculation with XTB calculation
  ===> : Switching off dipole moment calculation


WARNING: Found frequency calculation in combination with XTB calculation
  ===> : Need to redirect dipole moment calculation to properties.out


================================================================================
                                       INPUT FILE
================================================================================
NAME = product_optfreq.inp
|  1> ! XTB2 Opt Freq PAL8
|  2> 
|  3> * xyz -1 1
|  4>   C       0.000007      0.183295      0.372103
|  5>   H       0.000066      1.253018      0.221952
|  6>   H       0.912392     -0.356720      0.227036
|  7>   H      -0.912395     -0.356666      0.227074
|  8>   F      -0.000061      0.306127      2.001640
|  9>   I      -0.000122      0.292696     -2.423039
| 10> *
| 11> 
| 12>                          ****END OF INPUT****
================================================================================

                       *****************************
                       * Geometry Optimization Run *
                       *****************************

Geometry optimization settings:
Update method            Update   .... BFGS
Choice of coordinates    CoordSys .... (2022) Redundant Internals
Initial Hessian          InHess   .... Almloef's Model
Max. no of cycles        MaxIter  .... 50

Convergence Tolerances:
Energy Change            TolE     ....  5.0000e-06 Eh
Max. Gradient            TolMAXG  ....  3.0000e-04 Eh/bohr
RMS Gradient             TolRMSG  ....  1.0000e-04 Eh/bohr
Max. Displacement        TolMAXD  ....  4.0000e-03 bohr
RMS Displacement         TolRMSD  ....  2.0000e-03 bohr
Strict Convergence                .... False

------------------------------------------------------------------------------
                        ORCA OPTIMIZATION COORDINATE SETUP
------------------------------------------------------------------------------

The optimization will be done in redundant internal coordinates (2022)
Making redundant internal coordinates   ...  (2022 redundants) done
Evaluating the initial hessian          ...  (Almloef) done
Evaluating the coordinates              ...  done
Calculating the B-matrix                .... done
Calculating the G-matrix                .... done
The number of degrees of freedom        ....   18

    -----------------------------------------------------------------
                    Redundant Internal Coordinates


    -----------------------------------------------------------------
         Definition                    Initial Value    Approx d2E/dq
    -----------------------------------------------------------------
      1. B(H   1,C   0)                  1.0802         0.373287   
      2. B(H   2,C   0)                  1.0701         0.387416   
      3. B(H   3,C   0)                  1.0701         0.387441   
      4. B(F   4,C   0)                  1.6342         0.212044   
      5. B(I   5,H   1)                  2.8139         0.010000   
      6. B(I   5,H   3)                  2.8770         0.010000   
      7. B(I   5,C   0)                  2.7973         0.011940   
      8. B(I   5,H   2)                  2.8770         0.010000   
      9. A(H   1,C   0,H   3)          118.7447         0.295888   
     10. A(H   2,C   0,H   3)          116.9987         0.297635   
     11. A(H   1,C   0,F   4)           93.6794         0.294827   
     12. A(H   2,C   0,F   4)           99.9709         0.296565   
     13. A(H   3,C   0,F   4)           99.9647         0.296569   
     14. A(H   1,C   0,I   5)           79.7685         0.207072   
     15. A(H   2,C   0,I   5)           83.3569         0.208069   
     16. A(H   3,C   0,I   5)           83.3542         0.208071   
     17. A(F   4,C   0,I   5)          173.4479         0.207461   
     18. A(H   1,C   0,H   2)          118.7411         0.295885   
    -----------------------------------------------------------------

Number of atoms                         .... 6
Number of degrees of freedom            .... 18


         *************************************************************
         *                GEOMETRY OPTIMIZATION CYCLE   1            *
         *************************************************************
---------------------------------
CARTESIAN COORDINATES (ANGSTROEM)
---------------------------------
  C     0.000007    0.183295    0.372103
  H     0.000066    1.253018    0.221952
  H     0.912392   -0.356720    0.227036
  H    -0.912395   -0.356666    0.227074
  F    -0.000061    0.306127    2.001640
  I    -0.000122    0.292696   -2.423039

----------------------------
CARTESIAN COORDINATES (A.U.)
----------------------------
  NO LB    ZA    FRAG    MASS        X           Y           Z
   0 C   6.0000    0    12.011    0.000013    0.346377    0.703173
   1 H   1.0000    0     1.008    0.000125    2.367861    0.419428
   2 H   1.0000    0     1.008    1.724171   -0.674103    0.429036
   3 H   1.0000    0     1.008   -1.724177   -0.674001    0.429108
   4 F   9.0000    0    18.998   -0.000115    0.578496    3.782551
   5 I  53.0000    0   126.900   -0.000231    0.553115   -4.578880

      -----------------------------------------------------------      
     |                   =====================                   |     
     |                           x T B                           |     
     |                   =====================                   |     
     |                         S. Grimme                         |     
     |          Mulliken Center for Theoretical Chemistry        |     
     |                    University of Bonn                     |     
      -----------------------------------------------------------      

   * xtb version 6.7.1 (edcfbbe) compiled by 'albert@albert-system' on 2024-07-22

   xtb is free software: you can redistribute it and/or modify it under
   the terms of the GNU Lesser General Public License as published by
   the Free Software Foundation, either version 3 of the License, or
   (at your option) any later version.
   
   xtb is distributed in the hope that it will be useful,
   but WITHOUT ANY WARRANTY; without even the implied warranty of
   MERCHANTABILITY or FITNESS FOR A PARTICULAR PURPOSE.  See the
   GNU Lesser General Public License for more details.
   
   Cite this work as:
   * C. Bannwarth, E. Caldeweyher, S. Ehlert, A. Hansen, P. Pracht,
     J. Seibert, S. Spicher, S. Grimme, WIREs Comput. Mol. Sci., 2020, 11,
     e01493. DOI: 10.1002/wcms.1493
   
   for GFN2-xTB:
   * C. Bannwarth, S. Ehlert and S. Grimme., J. Chem. Theory Comput., 2019,
     15, 1652-1671. DOI: 10.1021/acs.jctc.8b01176
   for GFN1-xTB:
   * S. Grimme, C. Bannwarth, P. Shushkov, J. Chem. Theory Comput., 2017,
     13, 1989-2009. DOI: 10.1021/acs.jctc.7b00118
   for GFN0-xTB:
   * P. Pracht, E. Caldeweyher, S. Ehlert, S. Grimme, ChemRxiv, 2019, preprint.
     DOI: 10.26434/chemrxiv.8326202.v1
   for GFN-FF:
   * S. Spicher and S. Grimme, Angew. Chem. Int. Ed., 2020, 59, 15665-15673.
     DOI: 10.1002/anie.202004239
   
   for ALPB and GBSA implicit solvation:
   * S. Ehlert, M. Stahn, S. Spicher, S. Grimme, J. Chem. Theory Comput.,
     2021, 17, 4250-4261. DOI: 10.1021/acs.jctc.1c00471
   
   for ddCOSMO and CPCM-X implicit solvation:
   * M. Stahn, S. Ehlert, S. Grimme, J. Phys. Chem. A,
     2023, XX, XXXX-XXXX. DOI: 10.1021/acs.jpca.3c04382
   
   for DFT-D4:
   * E. Caldeweyher, C. Bannwarth and S. Grimme, J. Chem. Phys., 2017,
     147, 034112. DOI: 10.1063/1.4993215
   * E. Caldeweyher, S. Ehlert, A. Hansen, H. Neugebauer, S. Spicher,
     C. Bannwarth and S. Grimme, J. Chem. Phys., 2019, 150, 154122.
     DOI: 10.1063/1.5090222
   * E. Caldeweyher, J.-M. Mewes, S. Ehlert and S. Grimme, Phys. Chem. Chem. Phys.
     2020, 22, 8499-8512. DOI: 10.1039/D0CP00502A
   
   for sTDA-xTB:
   * S. Grimme and C. Bannwarth, J. Chem. Phys., 2016, 145, 054103.
     DOI: 10.1063/1.4959605
   
   in the mass-spec context:
   * V. Asgeirsson, C. Bauer and S. Grimme, Chem. Sci., 2017, 8, 4879.
     DOI: 10.1039/c7sc00601b
   * J. Koopman and S. Grimme, ACS Omega 2019, 4, 12, 15120-15133.
     DOI: 10.1021/acsomega.9b02011
   
   for metadynamics refer to:
   * S. Grimme, J. Chem. Theory Comput., 2019, 155, 2847-2862
     DOI: 10.1021/acs.jctc.9b00143
   
   for SPH calculations refer to:
   * S. Spicher and S. Grimme, J. Chem. Theory Comput., 2021, 17, 1701-1714
     DOI: 10.1021/acs.jctc.0c01306
   
   for ONIOM refer to:
   * C. Plett, A. Katbashev, S. Ehlert, S. Grimme, M. Bursch,
     Phys. Chem. Chem. Phys., 2023, 25, 17860-17868. DOI: 10.1039/D3CP02178E
   
   for DIPRO refer to:
   * J. Kohn, N. Gildemeister, S. Grimme, D. Fazzi, A. Hansen,
     J. Chem. Phys., 2023, just accepted.
   
   for PTB refer to:
   * S. Grimme, M. Mueller, A. Hansen, J. Chem. Phys., 2023, 158, 124111.
     DOI: 10.1063/5.0137838
   
   with help from (in alphabetical order)
   P. Atkinson, C. Bannwarth, F. Bohle, G. Brandenburg, E. Caldeweyher
   M. Checinski, S. Dohm, S. Ehlert, S. Ehrlich, I. Gerasimov, C. Hölzer
   A. Katbashev, J. Kohn, J. Koopman, C. Lavigne, S. Lehtola, F. März, M. Müller,
   F. Musil, H. Neugebauer, J. Pisarek, C. Plett, P. Pracht, F. Pultar,
   J. Seibert, P. Shushkov, S. Spicher, M. Stahn, M. Steiner, T. Strunk,
   J. Stückrath, T. Rose, and J. Unsleber
   
 * started run on 2026/03/12 at 12:38:59.198     
   ID    Z sym.   atoms
    1    6 C      1
    2    1 H      2-4
    3    9 F      5
    4   53 I      6

           -------------------------------------------------
          |                Calculation Setup                |
           -------------------------------------------------

          program call               : /software/orca-6.1.0-el8-x86_64/bin/otool_xtb product_optfreq_XTB.xyz --grad -c -1 -u 0 -P 8 --namespace product_optfreq --input product_optfreq_XTB.input.tmp --acc 0.200000
          hostname                   : midway3-login4.rcc.local
          calculation namespace      : product_optfreq
          coordinate file            : product_optfreq_XTB.xyz
          omp threads                :                     8


molecular fragmentation (1/2 indicates fragments):
111112
# atoms in fragment 1/2:     5     1
 fragment masses (1/2) :       34.03      126.90
CMA distance (Bohr)    :   6.977
constraining FC (au)   :  0.0500

           -------------------------------------------------
          |                 G F N 2 - x T B                 |
           -------------------------------------------------

        Reference                      10.1021/acs.jctc.8b01176
      * Hamiltonian:
        H0-scaling (s, p, d)           1.850000    2.230000    2.230000
        zeta-weighting                 0.500000
      * Dispersion:
        s8                             2.700000
        a1                             0.520000
        a2                             5.000000
        s9                             5.000000
      * Repulsion:
        kExp                           1.500000    1.000000
        rExp                           1.000000
      * Coulomb:
        alpha                          2.000000
        third order                    shell-resolved
        anisotropic                    true
        a3                             3.000000
        a5                             4.000000
        cn-shift                       1.200000
        cn-exp                         4.000000
        max-rad                        5.000000


          ...................................................
          :                      SETUP                      :
          :.................................................:
          :  # basis functions                  21          :
          :  # atomic orbitals                  20          :
          :  # shells                           10          :
          :  # electrons                        22          :
          :  max. iterations                   250          :
          :  Hamiltonian                  GFN2-xTB          :
          :  restarted?                      false          :
          :  GBSA solvation                  false          :
          :  PC potential                    false          :
          :  electronic temp.          300.0000000     K    :
          :  accuracy                    0.2000000          :
          :  -> integral cutoff          0.3198970E+02      :
          :  -> integral neglect         0.2000000E-08      :
          :  -> SCF convergence          0.2000000E-06 Eh   :
          :  -> wf. convergence          0.2000000E-04 e    :
          :  Broyden damping             0.4000000          :
          :  net charge                         -1          :
          :  unpaired electrons                  0          :
          ...................................................

 iter      E             dE          RMSdq      gap      omega  full diag
   1    -12.4706886 -0.124707E+02  0.756E+00    4.55       0.0  T
   2    -12.5004517 -0.297631E-01  0.428E+00    3.82       1.0  T
   3    -12.5011404 -0.688715E-03  0.148E+00    4.47       1.0  T
   4    -12.5030784 -0.193802E-02  0.565E-01    4.31       1.0  T
   5    -12.5031226 -0.441226E-04  0.159E-01    4.24       1.0  T
   6    -12.5030793  0.432583E-04  0.125E-01    4.25       1.0  T
   7    -12.5031377 -0.584376E-04  0.344E-02    4.25       1.2  T
   8    -12.5031386 -0.814251E-06  0.647E-03    4.25       6.3  T
   9    -12.5031386 -0.474717E-07  0.204E-03    4.25      20.0  T
  10    -12.5031386 -0.199327E-07  0.291E-04    4.25     140.5  T
  11    -12.5031386 -0.139433E-09  0.301E-05    4.25    1358.5  T
  12    -12.5031386 -0.156319E-12  0.134E-05    4.25    3049.0  T

   *** convergence criteria satisfied after 12 iterations ***

         #    Occupation            Energy/Eh            Energy/eV
      -------------------------------------------------------------
         1        2.0000           -0.5954580             -16.2032
       ...           ...                  ...                  ...
         5        2.0000           -0.3577631              -9.7352
         6        2.0000           -0.3376690              -9.1884
         7        2.0000           -0.2866639              -7.8005
         8        2.0000           -0.2857321              -7.7752
         9        2.0000           -0.1832525              -4.9866
        10        2.0000           -0.1779200              -4.8414
        11        2.0000           -0.1779176              -4.8414 (HOMO)
        12                         -0.0218265              -0.5939 (LUMO)
        13                          0.2625946               7.1456
        14                          0.3171891               8.6312
        15                          0.3220302               8.7629
        16                          0.3525989               9.5947
       ...                                ...                  ...
        20                          0.4613146              12.5530
      -------------------------------------------------------------
                  HL-Gap            0.1560911 Eh            4.2475 eV
             Fermi-level           -0.0998721 Eh           -2.7177 eV

 SCC (total)                   0 d,  0 h,  0 min,  0.060 sec
 SCC setup                      ...        0 min,  0.000 sec (  0.288%)
 Dispersion                     ...        0 min,  0.000 sec (  0.084%)
 classical contributions        ...        0 min,  0.000 sec (  0.050%)
 integral evaluation            ...        0 min,  0.057 sec ( 96.288%)
 iterations                     ...        0 min,  0.001 sec (  2.305%)
 molecular gradient             ...        0 min,  0.000 sec (  0.764%)
 printout                       ...        0 min,  0.000 sec (  0.193%)

         :::::::::::::::::::::::::::::::::::::::::::::::::::::
         ::                     SUMMARY                     ::
         :::::::::::::::::::::::::::::::::::::::::::::::::::::
         :: total energy             -12.444967602713 Eh    ::
         :: gradient norm              0.052956036228 Eh/a0 ::
         :: HOMO-LUMO gap              4.247454208815 eV    ::
         ::.................................................::
         :: SCC energy               -12.503138732843 Eh    ::
         :: -> isotropic ES            0.159742771792 Eh    ::
         :: -> anisotropic ES         -0.001536255330 Eh    ::
         :: -> anisotropic XC          0.001752615277 Eh    ::
         :: -> dispersion             -0.002393455515 Eh    ::
         :: repulsion energy           0.058171130130 Eh    ::
         :: add. restraining           0.000000000000 Eh    ::
         :: total charge              -1.000000000000 e     ::
         :::::::::::::::::::::::::::::::::::::::::::::::::::::


Property printout bound to 'properties.out'

           -------------------------------------------------
          | TOTAL ENERGY              -12.444967602713 Eh   |
          | GRADIENT NORM               0.052956036228 Eh/α |
          | HOMO-LUMO GAP               4.247454208815 eV   |
           -------------------------------------------------

------------------------------------------------------------------------
 * finished run on 2026/03/12 at 12:38:59.272     
------------------------------------------------------------------------
 total:
 * wall-time:     0 d,  0 h,  0 min,  0.073 sec
 *  cpu-time:     0 d,  0 h,  0 min,  0.481 sec
 * ratio c/w:     6.610 speedup
 SCF:
 * wall-time:     0 d,  0 h,  0 min,  0.060 sec
 *  cpu-time:     0 d,  0 h,  0 min,  0.421 sec
 * ratio c/w:     7.035 speedup


-------------------------   --------------------
FINAL SINGLE POINT ENERGY       -12.444967602710
-------------------------   --------------------


-------------
DIPOLE MOMENT
-------------
                                X             Y             Z
Total Dipole Moment    :      0.00000      -0.63700       2.75900
                        -----------------------------------------
Magnitude (a.u.)       :      2.83158
Magnitude (Debye)      :      7.19731


------------------
CARTESIAN GRADIENT
------------------

   1   C   :   -0.000005658   -0.014446527   -0.042346793
   2   H   :    0.000002439    0.007305814    0.005470141
   3   H   :   -0.001144057   -0.000954435    0.001039743
   4   H   :    0.001153305   -0.000951345    0.001047171
   5   F   :   -0.000005605    0.007895216    0.022065842
   6   I   :   -0.000000423    0.001151277    0.012723896

Difference to translation invariance:
           :   -0.0000000000   -0.0000000000   -0.0000000000

Difference to rotation invariance:
           :    0.0000000136    0.0000000001   -0.0000000000

Norm of the Cartesian gradient     ...    0.0529560362
RMS gradient                       ...    0.0124818574
MAX gradient                       ...    0.0423467925
------------------------------------------------------------------------------
                         ORCA GEOMETRY RELAXATION STEP
------------------------------------------------------------------------------

Reading the OPT-File                    .... done
Getting information on internals        .... done
Copying old internal coords+grads       .... done
Making the new internal coordinates     .... (2022 redundants) done
Validating the new internal coordinates .... (2022 redundants) done
Calculating the B-matrix                .... done
Calculating the G,G- and P matrices     .... done
Transforming gradient to internals      .... done
Projecting the internal gradient        .... done
Number of atoms                         ....   6
Number of internal coordinates          ....  18
Current Energy                          ....   -12.444967603 Eh
Current gradient norm                   ....     0.052956036 Eh/bohr
Maximum allowed component of the step   ....  0.300
Current trust radius                    ....  0.300
Evaluating the initial hessian          ....  (Almloef) done
Projecting the Hessian                  .... done
Forming the augmented Hessian           .... done
Diagonalizing the augmented Hessian     .... done
Last element of RFO vector              ....  0.923822983
Lowest eigenvalues of augmented Hessian:
 -0.006408944  0.013103688  0.050878166  0.063249111  0.175753600
Length of the computed step             ....  0.414386665
Warning: the length of the step is outside the trust region - taking restricted step instead
The input lambda is                     ....     0.009540
   iter:   5  x=    0.003125  g=  704.550248 f(x)=     1.694210
   iter:  10  x=   -0.013892  g=    7.156961 f(x)=     0.008111
The output lambda is                    ....    -0.013980 (14 iterations)
The final length of the internal step   ....  0.300000000
Converting the step to Cartesian space:
 Initial RMS(Int)=    0.0707106781
Transforming coordinates:
 Iter   0:  RMS(Cart)=    0.0372522629 RMS(Int)=    0.0708836788
done
Storing new coordinates                 .... done

                                .--------------------.
          ----------------------|Geometry convergence|-------------------------
          Item                value                   Tolerance       Converged
          ---------------------------------------------------------------------
          RMS gradient        0.0070232848            0.0001000000      NO
          MAX gradient        0.0225968654            0.0003000000      NO
          RMS step            0.0707106781            0.0020000000      NO
          MAX step            0.1739771206            0.0040000000      NO
          -------------------------------------------------------------------------
          ........................................................
          Max(Bonds)      0.0921      Max(Angles)    2.62
          Max(Dihed)        0.00      Max(Improp)    0.00
          ---------------------------------------------------------------------

The optimization has not yet converged - more geometry cycles are needed


    ---------------------------------------------------------------------------
                         Redundant Internal Coordinates
                            (Angstroem and degrees)

        Definition                    Value    dE/dq     Step     New-Value
    ----------------------------------------------------------------------------
     1. B(H   1,C   0)                1.0802  0.006708 -0.0097    1.0705   
     2. B(H   2,C   0)                1.0701 -0.000325 -0.0001    1.0700   
     3. B(H   3,C   0)                1.0701 -0.000335 -0.0001    1.0699   
     4. B(F   4,C   0)                1.6342  0.022597 -0.0529    1.5813   
     5. B(I   5,H   1)                2.8139 -0.001125  0.0673    2.8813   
     6. B(I   5,H   3)                2.8770 -0.001196  0.0633    2.9403   
     7. B(I   5,C   0)                2.7973 -0.009406  0.0921    2.8893   
     8. B(I   5,H   2)                2.8770 -0.001195  0.0633    2.9404   
     9. A(H   1,C   0,H   3)          118.74  0.002618   -0.70    118.05   
    10. A(H   2,C   0,H   3)          117.00 -0.000240   -0.13    116.87   
    11. A(H   1,C   0,F   4)           93.68 -0.011056    2.62     96.30   
    12. A(H   2,C   0,F   4)           99.97  0.000186    0.32    100.29   
    13. A(H   3,C   0,F   4)           99.96  0.000176    0.33    100.29   
    14. A(H   1,C   0,I   5)           79.77  0.003102   -0.86     78.91   
    15. A(H   2,C   0,I   5)           83.36  0.003907   -1.23     82.13   
    16. A(H   3,C   0,I   5)           83.35  0.003908   -1.23     82.12   
    17. A(F   4,C   0,I   5)          173.45 -0.007954    1.76    175.21   
    18. A(H   1,C   0,H   2)          118.74  0.002614   -0.70    118.04   
    ----------------------------------------------------------------------------

Geometry step timings:
Preparation and reading OPT file:      0.000 s ( 2.636 %)
Internal coordinates            :      0.000 s ( 3.035 %)
B/P matrices and projection     :      0.000 s (11.901 %)
Hessian update/contruction      :      0.000 s (32.668 %)
Making the step                 :      0.000 s (15.495 %)
Converting the step to Cartesian:      0.000 s ( 3.355 %)
Storing new data                :      0.000 s ( 6.310 %)
Checking convergence            :      0.000 s ( 5.192 %)
Final printing                  :      0.000 s (19.089 %)
Total time                      :      0.001 s

Time for energy+gradient        :      0.081 s
Time for complete geometry iter :      0.084 s

         *************************************************************
         *                GEOMETRY OPTIMIZATION CYCLE   2            *
         *************************************************************
---------------------------------
CARTESIAN COORDINATES (ANGSTROEM)
---------------------------------
  C     0.000004    0.194402    0.405895
  H     0.000057    1.250568    0.231454
  H     0.911476   -0.341825    0.243244
  H    -0.911499   -0.341774    0.243271
  F    -0.000037    0.279155    1.984877
  I    -0.000114    0.281225   -2.481975

----------------------------
CARTESIAN COORDINATES (A.U.)
----------------------------
  NO LB    ZA    FRAG    MASS        X           Y           Z
   0 C   6.0000    0    12.011    0.000007    0.367367    0.767030
   1 H   1.0000    0     1.008    0.000107    2.363230    0.437385
   2 H   1.0000    0     1.008    1.722441   -0.645956    0.459665
   3 H   1.0000    0     1.008   -1.722484   -0.645858    0.459716
   4 F   9.0000    0    18.998   -0.000070    0.527526    3.750874
   5 I  53.0000    0   126.900   -0.000215    0.531437   -4.690253

      -----------------------------------------------------------      
     |                   =====================                   |     
     |                           x T B                           |     
     |                   =====================                   |     
     |                         S. Grimme                         |     
     |          Mulliken Center for Theoretical Chemistry        |     
     |                    University of Bonn                     |     
      -----------------------------------------------------------      

   * xtb version 6.7.1 (edcfbbe) compiled by 'albert@albert-system' on 2024-07-22

   xtb is free software: you can redistribute it and/or modify it under
   the terms of the GNU Lesser General Public License as published by
   the Free Software Foundation, either version 3 of the License, or
   (at your option) any later version.
   
   xtb is distributed in the hope that it will be useful,
   but WITHOUT ANY WARRANTY; without even the implied warranty of
   MERCHANTABILITY or FITNESS FOR A PARTICULAR PURPOSE.  See the
   GNU Lesser General Public License for more details.
   
   Cite this work as:
   * C. Bannwarth, E. Caldeweyher, S. Ehlert, A. Hansen, P. Pracht,
     J. Seibert, S. Spicher, S. Grimme, WIREs Comput. Mol. Sci., 2020, 11,
     e01493. DOI: 10.1002/wcms.1493
   
   for GFN2-xTB:
   * C. Bannwarth, S. Ehlert and S. Grimme., J. Chem. Theory Comput., 2019,
     15, 1652-1671. DOI: 10.1021/acs.jctc.8b01176
   for GFN1-xTB:
   * S. Grimme, C. Bannwarth, P. Shushkov, J. Chem. Theory Comput., 2017,
     13, 1989-2009. DOI: 10.1021/acs.jctc.7b00118
   for GFN0-xTB:
   * P. Pracht, E. Caldeweyher, S. Ehlert, S. Grimme, ChemRxiv, 2019, preprint.
     DOI: 10.26434/chemrxiv.8326202.v1
   for GFN-FF:
   * S. Spicher and S. Grimme, Angew. Chem. Int. Ed., 2020, 59, 15665-15673.
     DOI: 10.1002/anie.202004239
   
   for ALPB and GBSA implicit solvation:
   * S. Ehlert, M. Stahn, S. Spicher, S. Grimme, J. Chem. Theory Comput.,
     2021, 17, 4250-4261. DOI: 10.1021/acs.jctc.1c00471
   
   for ddCOSMO and CPCM-X implicit solvation:
   * M. Stahn, S. Ehlert, S. Grimme, J. Phys. Chem. A,
     2023, XX, XXXX-XXXX. DOI: 10.1021/acs.jpca.3c04382
   
   for DFT-D4:
   * E. Caldeweyher, C. Bannwarth and S. Grimme, J. Chem. Phys., 2017,
     147, 034112. DOI: 10.1063/1.4993215
   * E. Caldeweyher, S. Ehlert, A. Hansen, H. Neugebauer, S. Spicher,
     C. Bannwarth and S. Grimme, J. Chem. Phys., 2019, 150, 154122.
     DOI: 10.1063/1.5090222
   * E. Caldeweyher, J.-M. Mewes, S. Ehlert and S. Grimme, Phys. Chem. Chem. Phys.
     2020, 22, 8499-8512. DOI: 10.1039/D0CP00502A
   
   for sTDA-xTB:
   * S. Grimme and C. Bannwarth, J. Chem. Phys., 2016, 145, 054103.
     DOI: 10.1063/1.4959605
   
   in the mass-spec context:
   * V. Asgeirsson, C. Bauer and S. Grimme, Chem. Sci., 2017, 8, 4879.
     DOI: 10.1039/c7sc00601b
   * J. Koopman and S. Grimme, ACS Omega 2019, 4, 12, 15120-15133.
     DOI: 10.1021/acsomega.9b02011
   
   for metadynamics refer to:
   * S. Grimme, J. Chem. Theory Comput., 2019, 155, 2847-2862
     DOI: 10.1021/acs.jctc.9b00143
   
   for SPH calculations refer to:
   * S. Spicher and S. Grimme, J. Chem. Theory Comput., 2021, 17, 1701-1714
     DOI: 10.1021/acs.jctc.0c01306
   
   for ONIOM refer to:
   * C. Plett, A. Katbashev, S. Ehlert, S. Grimme, M. Bursch,
     Phys. Chem. Chem. Phys., 2023, 25, 17860-17868. DOI: 10.1039/D3CP02178E
   
   for DIPRO refer to:
   * J. Kohn, N. Gildemeister, S. Grimme, D. Fazzi, A. Hansen,
     J. Chem. Phys., 2023, just accepted.
   
   for PTB refer to:
   * S. Grimme, M. Mueller, A. Hansen, J. Chem. Phys., 2023, 158, 124111.
     DOI: 10.1063/5.0137838
   
   with help from (in alphabetical order)
   P. Atkinson, C. Bannwarth, F. Bohle, G. Brandenburg, E. Caldeweyher
   M. Checinski, S. Dohm, S. Ehlert, S. Ehrlich, I. Gerasimov, C. Hölzer
   A. Katbashev, J. Kohn, J. Koopman, C. Lavigne, S. Lehtola, F. März, M. Müller,
   F. Musil, H. Neugebauer, J. Pisarek, C. Plett, P. Pracht, F. Pultar,
   J. Seibert, P. Shushkov, S. Spicher, M. Stahn, M. Steiner, T. Strunk,
   J. Stückrath, T. Rose, and J. Unsleber
   
 * started run on 2026/03/12 at 12:38:59.282     
   ID    Z sym.   atoms
    1    6 C      1
    2    1 H      2-4
    3    9 F      5
    4   53 I      6

           -------------------------------------------------
          |                Calculation Setup                |
           -------------------------------------------------

          program call               : /software/orca-6.1.0-el8-x86_64/bin/otool_xtb product_optfreq_XTB.xyz --grad -c -1 -u 0 -P 8 --namespace product_optfreq --input product_optfreq_XTB.input.tmp --acc 0.200000
          hostname                   : midway3-login4.rcc.local
          calculation namespace      : product_optfreq
          coordinate file            : product_optfreq_XTB.xyz
          omp threads                :                     8


molecular fragmentation (1/2 indicates fragments):
111112
# atoms in fragment 1/2:     5     1
 fragment masses (1/2) :       34.03      126.90
CMA distance (Bohr)    :   7.095
constraining FC (au)   :  0.0500

           -------------------------------------------------
          |                 G F N 2 - x T B                 |
           -------------------------------------------------

        Reference                      10.1021/acs.jctc.8b01176
      * Hamiltonian:
        H0-scaling (s, p, d)           1.850000    2.230000    2.230000
        zeta-weighting                 0.500000
      * Dispersion:
        s8                             2.700000
        a1                             0.520000
        a2                             5.000000
        s9                             5.000000
      * Repulsion:
        kExp                           1.500000    1.000000
        rExp                           1.000000
      * Coulomb:
        alpha                          2.000000
        third order                    shell-resolved
        anisotropic                    true
        a3                             3.000000
        a5                             4.000000
        cn-shift                       1.200000
        cn-exp                         4.000000
        max-rad                        5.000000

q/qsh data taken from xtbrestart
CAMM data taken from xtbrestart

          ...................................................
          :                      SETUP                      :
          :.................................................:
          :  # basis functions                  21          :
          :  # atomic orbitals                  20          :
          :  # shells                           10          :
          :  # electrons                        22          :
          :  max. iterations                   250          :
          :  Hamiltonian                  GFN2-xTB          :
          :  restarted?                       true          :
          :  GBSA solvation                  false          :
          :  PC potential                    false          :
          :  electronic temp.          300.0000000     K    :
          :  accuracy                    0.2000000          :
          :  -> integral cutoff          0.3198970E+02      :
          :  -> integral neglect         0.2000000E-08      :
          :  -> SCF convergence          0.2000000E-06 Eh   :
          :  -> wf. convergence          0.2000000E-04 e    :
          :  Broyden damping             0.4000000          :
          :  net charge                         -1          :
          :  unpaired electrons                  0          :
          ...................................................

 iter      E             dE          RMSdq      gap      omega  full diag
   1    -12.5098257 -0.125098E+02  0.111E+00    5.01       0.0  T
   2    -12.5102778 -0.452109E-03  0.490E-01    4.73       1.0  T
   3    -12.5103497 -0.718910E-04  0.161E-01    4.56       1.0  T
   4    -12.5103552 -0.549328E-05  0.564E-02    4.58       1.0  T
   5    -12.5103557 -0.524841E-06  0.171E-02    4.57       2.4  T
   6    -12.5103561 -0.357683E-06  0.526E-03    4.57       7.8  T
   7    -12.5103561 -0.129860E-07  0.308E-03    4.58      13.3  T
   8    -12.5103561 -0.224206E-08  0.281E-04    4.58     145.4  T
   9    -12.5103561 -0.808260E-10  0.335E-05    4.58    1219.2  T
  10    -12.5103561 -0.243361E-12  0.172E-05    4.58    2380.1  T

   *** convergence criteria satisfied after 10 iterations ***

         #    Occupation            Energy/Eh            Energy/eV
      -------------------------------------------------------------
         1        2.0000           -0.6161916             -16.7674
       ...           ...                  ...                  ...
         5        2.0000           -0.3674689              -9.9993
         6        2.0000           -0.3553960              -9.6708
         7        2.0000           -0.3008603              -8.1868
         8        2.0000           -0.3001735              -8.1681
         9        2.0000           -0.1759489              -4.7878
        10        2.0000           -0.1709026              -4.6505
        11        2.0000           -0.1708808              -4.6499 (HOMO)
        12                         -0.0027006              -0.0735 (LUMO)
        13                          0.2694034               7.3308
        14                          0.3294738               8.9654
        15                          0.3323067               9.0425
        16                          0.3689585              10.0399
       ...                                ...                  ...
        20                          0.4632404              12.6054
      -------------------------------------------------------------
                  HL-Gap            0.1681801 Eh            4.5764 eV
             Fermi-level           -0.0867907 Eh           -2.3617 eV

 SCC (total)                   0 d,  0 h,  0 min,  0.090 sec
 SCC setup                      ...        0 min,  0.000 sec (  0.178%)
 Dispersion                     ...        0 min,  0.000 sec (  0.050%)
 classical contributions        ...        0 min,  0.000 sec (  0.030%)
 integral evaluation            ...        0 min,  0.088 sec ( 97.588%)
 iterations                     ...        0 min,  0.001 sec (  1.446%)
 molecular gradient             ...        0 min,  0.000 sec (  0.515%)
 printout                       ...        0 min,  0.000 sec (  0.172%)

         :::::::::::::::::::::::::::::::::::::::::::::::::::::
         ::                     SUMMARY                     ::
         :::::::::::::::::::::::::::::::::::::::::::::::::::::
         :: total energy             -12.450272168329 Eh    ::
         :: gradient norm              0.059396015184 Eh/a0 ::
         :: HOMO-LUMO gap              4.576414270589 eV    ::
         ::.................................................::
         :: SCC energy               -12.510356227253 Eh    ::
         :: -> isotropic ES            0.161884246442 Eh    ::
         :: -> anisotropic ES         -0.001612266127 Eh    ::
         :: -> anisotropic XC          0.001603929114 Eh    ::
         :: -> dispersion             -0.002343500693 Eh    ::
         :: repulsion energy           0.060084058924 Eh    ::
         :: add. restraining           0.000000000000 Eh    ::
         :: total charge              -1.000000000000 e     ::
         :::::::::::::::::::::::::::::::::::::::::::::::::::::


Property printout bound to 'properties.out'

           -------------------------------------------------
          | TOTAL ENERGY              -12.450272168329 Eh   |
          | GRADIENT NORM               0.059396015184 Eh/α |
          | HOMO-LUMO GAP               4.576414270589 eV   |
           -------------------------------------------------

------------------------------------------------------------------------
 * finished run on 2026/03/12 at 12:38:59.385     
------------------------------------------------------------------------
 total:
 * wall-time:     0 d,  0 h,  0 min,  0.103 sec
 *  cpu-time:     0 d,  0 h,  0 min,  0.472 sec
 * ratio c/w:     4.593 speedup
 SCF:
 * wall-time:     0 d,  0 h,  0 min,  0.090 sec
 *  cpu-time:     0 d,  0 h,  0 min,  0.416 sec
 * ratio c/w:     4.614 speedup


-------------------------   --------------------
FINAL SINGLE POINT ENERGY       -12.450272168330
-------------------------   --------------------


-------------
DIPOLE MOMENT
-------------
                                X             Y             Z
Total Dipole Moment    :      0.00000      -0.58800       3.13400
                        -----------------------------------------
Magnitude (a.u.)       :      3.18868
Magnitude (Debye)      :      8.10499


------------------
CARTESIAN GRADIENT
------------------

   1   C   :    0.000000784   -0.006511876   -0.051297145
   2   H   :    0.000001848   -0.000231326    0.008294975
   3   H   :   -0.001809093    0.000159951    0.004366828
   4   H   :    0.001810934    0.000158840    0.004371685
   5   F   :   -0.000004163    0.005722814    0.024884216
   6   I   :   -0.000000311    0.000701597    0.009379441

Difference to translation invariance:
           :    0.0000000000    0.0000000000   -0.0000000000

Difference to rotation invariance:
           :   -0.0000000207   -0.0000000001    0.0000000000

Norm of the Cartesian gradient     ...    0.0593960152
RMS gradient                       ...    0.0139997750
MAX gradient                       ...    0.0512971446
------------------------------------------------------------------------------
                         ORCA GEOMETRY RELAXATION STEP
------------------------------------------------------------------------------

Reading the OPT-File                    .... done
Getting information on internals        .... done
Copying old internal coords+grads       .... done
Making the new internal coordinates     .... (2022 redundants) done
Validating the new internal coordinates .... (2022 redundants) done
Calculating the B-matrix                .... done
Calculating the G,G- and P matrices     .... done
Transforming gradient to internals      .... done
Projecting the internal gradient        .... done
Number of atoms                         ....   6
Number of internal coordinates          ....  18
Current Energy                          ....   -12.450272168 Eh
Current gradient norm                   ....     0.059396015 Eh/bohr
Maximum allowed component of the step   ....  0.300
Current trust radius                    ....  0.300
Updating the Hessian (BFGS)             .... done
Forming the augmented Hessian           .... done
Diagonalizing the augmented Hessian     .... done
Last element of RFO vector              ....  0.763519183
Lowest eigenvalues of augmented Hessian:
 -0.022166253  0.014245116  0.050878166  0.058433511  0.067060111
Length of the computed step             ....  0.845800817
Warning: the length of the step is outside the trust region - taking restricted step instead
The input lambda is                     ....     0.000826
   iter:   5  x=   -0.005793  g= 5457.696939 f(x)=    13.908947
   iter:  10  x=   -0.051834  g=   14.393141 f(x)=     0.223615
   iter:  15  x=   -0.076802  g=    1.965257 f(x)=     0.000000
The output lambda is                    ....    -0.076802 (17 iterations)
The final length of the internal step   ....  0.300000000
Converting the step to Cartesian space:
 Initial RMS(Int)=    0.0707106781
Transforming coordinates:
 Iter   0:  RMS(Cart)=    0.0500557055 RMS(Int)=    0.0708725957
 Iter   5:  RMS(Cart)=    0.0000000105 RMS(Int)=    0.0000000099
done
Storing new coordinates                 .... done
The predicted energy change is          ....    -0.007851836
Previously predicted energy change      ....    -0.003366075
Actually observed energy change         ....    -0.005304566
Ratio of predicted to observed change   ....     1.575890292
New trust radius                        ....     0.200000000

                                .--------------------.
          ----------------------|Geometry convergence|-------------------------
          Item                value                   Tolerance       Converged
          ---------------------------------------------------------------------
          Energy change      -0.0053045656            0.0000050000      NO
          RMS gradient        0.0073120299            0.0001000000      NO
          MAX gradient        0.0251551796            0.0003000000      NO
          RMS step            0.0707106781            0.0020000000      NO
          MAX step            0.2174671260            0.0040000000      NO
          -------------------------------------------------------------------------
          ........................................................
          Max(Bonds)      0.1151      Max(Angles)    5.59
          Max(Dihed)        0.00      Max(Improp)    0.00
          ---------------------------------------------------------------------

The optimization has not yet converged - more geometry cycles are needed


    ---------------------------------------------------------------------------
                         Redundant Internal Coordinates
                            (Angstroem and degrees)

        Definition                    Value    dE/dq     Step     New-Value
    ----------------------------------------------------------------------------
     1. B(H   1,C   0)                1.0705 -0.001603 -0.0170    1.0535   
     2. B(H   2,C   0)                1.0699 -0.002296  0.0014    1.0713   
     3. B(H   3,C   0)                1.0699 -0.002298  0.0014    1.0713   
     4. B(F   4,C   0)                1.5813  0.025155 -0.1151    1.4662   
     5. B(I   5,H   1)                2.8814  0.000127  0.0225    2.9038   
     6. B(I   5,H   3)                2.9404  0.000050  0.0187    2.9591   
     7. B(I   5,C   0)                2.8892 -0.009565  0.0690    2.9581   
     8. B(I   5,H   2)                2.9404  0.000049  0.0187    2.9591   
     9. A(H   1,C   0,H   3)          118.02  0.003023   -1.55    116.47   
    10. A(H   2,C   0,H   3)          116.84  0.001405   -0.38    116.45   
    11. A(H   1,C   0,F   4)           96.31 -0.009959    5.59    101.90   
    12. A(H   2,C   0,F   4)          100.29 -0.002141    0.75    101.04   
    13. A(H   3,C   0,F   4)          100.29 -0.002148    0.75    101.04   
    14. A(H   1,C   0,I   5)           78.90  0.004682   -2.09     76.81   
    15. A(H   2,C   0,I   5)           82.13  0.004826   -2.54     79.59   
    16. A(H   3,C   0,I   5)           82.13  0.004827   -2.54     79.59   
    17. A(F   4,C   0,I   5)          175.21 -0.005277    3.50    178.71   
    18. A(H   1,C   0,H   2)          118.01  0.003019   -1.54    116.47   
    ----------------------------------------------------------------------------

Geometry step timings:
Preparation and reading OPT file:      0.000 s ( 2.753 %)
Internal coordinates            :      0.000 s ( 3.286 %)
B/P matrices and projection     :      0.000 s (12.700 %)
Hessian update/contruction      :      0.000 s (29.041 %)
Making the step                 :      0.000 s (13.321 %)
Converting the step to Cartesian:      0.000 s ( 3.375 %)
Storing new data                :      0.000 s ( 6.483 %)
Checking convergence            :      0.000 s ( 6.572 %)
Final printing                  :      0.000 s (22.469 %)
Total time                      :      0.001 s

Time for energy+gradient        :      0.111 s
Time for complete geometry iter :      0.113 s

         *************************************************************
         *                GEOMETRY OPTIMIZATION CYCLE   3            *
         *************************************************************
---------------------------------
CARTESIAN COORDINATES (ANGSTROEM)
---------------------------------
  C    -0.000003    0.216059    0.457308
  H     0.000038    1.244985    0.231508
  H     0.909708   -0.313148    0.257258
  H    -0.909770   -0.313099    0.257260
  F     0.000008    0.228689    1.923430
  I    -0.000095    0.258264   -2.499997

----------------------------
CARTESIAN COORDINATES (A.U.)
----------------------------
  NO LB    ZA    FRAG    MASS        X           Y           Z
   0 C   6.0000    0    12.011   -0.000005    0.408292    0.864187
   1 H   1.0000    0     1.008    0.000071    2.352682    0.437486
   2 H   1.0000    0     1.008    1.719099   -0.591765    0.486147
   3 H   1.0000    0     1.008   -1.719215   -0.591672    0.486151
   4 F   9.0000    0    18.998    0.000016    0.432160    3.634756
   5 I  53.0000    0   126.900   -0.000179    0.488048   -4.724309

      -----------------------------------------------------------      
     |                   =====================                   |     
     |                           x T B                           |     
     |                   =====================                   |     
     |                         S. Grimme                         |     
     |          Mulliken Center for Theoretical Chemistry        |     
     |                    University of Bonn                     |     
      -----------------------------------------------------------      

   * xtb version 6.7.1 (edcfbbe) compiled by 'albert@albert-system' on 2024-07-22

   xtb is free software: you can redistribute it and/or modify it under
   the terms of the GNU Lesser General Public License as published by
   the Free Software Foundation, either version 3 of the License, or
   (at your option) any later version.
   
   xtb is distributed in the hope that it will be useful,
   but WITHOUT ANY WARRANTY; without even the implied warranty of
   MERCHANTABILITY or FITNESS FOR A PARTICULAR PURPOSE.  See the
   GNU Lesser General Public License for more details.
   
   Cite this work as:
   * C. Bannwarth, E. Caldeweyher, S. Ehlert, A. Hansen, P. Pracht,
     J. Seibert, S. Spicher, S. Grimme, WIREs Comput. Mol. Sci., 2020, 11,
     e01493. DOI: 10.1002/wcms.1493
   
   for GFN2-xTB:
   * C. Bannwarth, S. Ehlert and S. Grimme., J. Chem. Theory Comput., 2019,
     15, 1652-1671. DOI: 10.1021/acs.jctc.8b01176
   for GFN1-xTB:
   * S. Grimme, C. Bannwarth, P. Shushkov, J. Chem. Theory Comput., 2017,
     13, 1989-2009. DOI: 10.1021/acs.jctc.7b00118
   for GFN0-xTB:
   * P. Pracht, E. Caldeweyher, S. Ehlert, S. Grimme, ChemRxiv, 2019, preprint.
     DOI: 10.26434/chemrxiv.8326202.v1
   for GFN-FF:
   * S. Spicher and S. Grimme, Angew. Chem. Int. Ed., 2020, 59, 15665-15673.
     DOI: 10.1002/anie.202004239
   
   for ALPB and GBSA implicit solvation:
   * S. Ehlert, M. Stahn, S. Spicher, S. Grimme, J. Chem. Theory Comput.,
     2021, 17, 4250-4261. DOI: 10.1021/acs.jctc.1c00471
   
   for ddCOSMO and CPCM-X implicit solvation:
   * M. Stahn, S. Ehlert, S. Grimme, J. Phys. Chem. A,
     2023, XX, XXXX-XXXX. DOI: 10.1021/acs.jpca.3c04382
   
   for DFT-D4:
   * E. Caldeweyher, C. Bannwarth and S. Grimme, J. Chem. Phys., 2017,
     147, 034112. DOI: 10.1063/1.4993215
   * E. Caldeweyher, S. Ehlert, A. Hansen, H. Neugebauer, S. Spicher,
     C. Bannwarth and S. Grimme, J. Chem. Phys., 2019, 150, 154122.
     DOI: 10.1063/1.5090222
   * E. Caldeweyher, J.-M. Mewes, S. Ehlert and S. Grimme, Phys. Chem. Chem. Phys.
     2020, 22, 8499-8512. DOI: 10.1039/D0CP00502A
   
   for sTDA-xTB:
   * S. Grimme and C. Bannwarth, J. Chem. Phys., 2016, 145, 054103.
     DOI: 10.1063/1.4959605
   
   in the mass-spec context:
   * V. Asgeirsson, C. Bauer and S. Grimme, Chem. Sci., 2017, 8, 4879.
     DOI: 10.1039/c7sc00601b
   * J. Koopman and S. Grimme, ACS Omega 2019, 4, 12, 15120-15133.
     DOI: 10.1021/acsomega.9b02011
   
   for metadynamics refer to:
   * S. Grimme, J. Chem. Theory Comput., 2019, 155, 2847-2862
     DOI: 10.1021/acs.jctc.9b00143
   
   for SPH calculations refer to:
   * S. Spicher and S. Grimme, J. Chem. Theory Comput., 2021, 17, 1701-1714
     DOI: 10.1021/acs.jctc.0c01306
   
   for ONIOM refer to:
   * C. Plett, A. Katbashev, S. Ehlert, S. Grimme, M. Bursch,
     Phys. Chem. Chem. Phys., 2023, 25, 17860-17868. DOI: 10.1039/D3CP02178E
   
   for DIPRO refer to:
   * J. Kohn, N. Gildemeister, S. Grimme, D. Fazzi, A. Hansen,
     J. Chem. Phys., 2023, just accepted.
   
   for PTB refer to:
   * S. Grimme, M. Mueller, A. Hansen, J. Chem. Phys., 2023, 158, 124111.
     DOI: 10.1063/5.0137838
   
   with help from (in alphabetical order)
   P. Atkinson, C. Bannwarth, F. Bohle, G. Brandenburg, E. Caldeweyher
   M. Checinski, S. Dohm, S. Ehlert, S. Ehrlich, I. Gerasimov, C. Hölzer
   A. Katbashev, J. Kohn, J. Koopman, C. Lavigne, S. Lehtola, F. März, M. Müller,
   F. Musil, H. Neugebauer, J. Pisarek, C. Plett, P. Pracht, F. Pultar,
   J. Seibert, P. Shushkov, S. Spicher, M. Stahn, M. Steiner, T. Strunk,
   J. Stückrath, T. Rose, and J. Unsleber
   
 * started run on 2026/03/12 at 12:38:59.396     
   ID    Z sym.   atoms
    1    6 C      1
    2    1 H      2-4
    3    9 F      5
    4   53 I      6

           -------------------------------------------------
          |                Calculation Setup                |
           -------------------------------------------------

          program call               : /software/orca-6.1.0-el8-x86_64/bin/otool_xtb product_optfreq_XTB.xyz --grad -c -1 -u 0 -P 8 --namespace product_optfreq --input product_optfreq_XTB.input.tmp --acc 0.200000
          hostname                   : midway3-login4.rcc.local
          calculation namespace      : product_optfreq
          coordinate file            : product_optfreq_XTB.xyz
          omp threads                :                     8


molecular fragmentation (1/2 indicates fragments):
111112
# atoms in fragment 1/2:     5     1
 fragment masses (1/2) :       34.03      126.90
CMA distance (Bohr)    :   7.100
constraining FC (au)   :  0.0500

           -------------------------------------------------
          |                 G F N 2 - x T B                 |
           -------------------------------------------------

        Reference                      10.1021/acs.jctc.8b01176
      * Hamiltonian:
        H0-scaling (s, p, d)           1.850000    2.230000    2.230000
        zeta-weighting                 0.500000
      * Dispersion:
        s8                             2.700000
        a1                             0.520000
        a2                             5.000000
        s9                             5.000000
      * Repulsion:
        kExp                           1.500000    1.000000
        rExp                           1.000000
      * Coulomb:
        alpha                          2.000000
        third order                    shell-resolved
        anisotropic                    true
        a3                             3.000000
        a5                             4.000000
        cn-shift                       1.200000
        cn-exp                         4.000000
        max-rad                        5.000000

q/qsh data taken from xtbrestart
CAMM data taken from xtbrestart

          ...................................................
          :                      SETUP                      :
          :.................................................:
          :  # basis functions                  21          :
          :  # atomic orbitals                  20          :
          :  # shells                           10          :
          :  # electrons                        22          :
          :  max. iterations                   250          :
          :  Hamiltonian                  GFN2-xTB          :
          :  restarted?                       true          :
          :  GBSA solvation                  false          :
          :  PC potential                    false          :
          :  electronic temp.          300.0000000     K    :
          :  accuracy                    0.2000000          :
          :  -> integral cutoff          0.3198970E+02      :
          :  -> integral neglect         0.2000000E-08      :
          :  -> SCF convergence          0.2000000E-06 Eh   :
          :  -> wf. convergence          0.2000000E-04 e    :
          :  Broyden damping             0.4000000          :
          :  net charge                         -1          :
          :  unpaired electrons                  0          :
          ...................................................

 iter      E             dE          RMSdq      gap      omega  full diag
   1    -12.5219261 -0.125219E+02  0.720E-01    7.23       0.0  T
   2    -12.5223053 -0.379176E-03  0.354E-01    6.92       1.0  T
   3    -12.5223905 -0.852095E-04  0.150E-01    6.69       1.0  T
   4    -12.5223933 -0.285331E-05  0.364E-02    6.65       1.1  T
   5    -12.5223936 -0.273398E-06  0.231E-02    6.65       1.8  T
   6    -12.5223937 -0.128542E-06  0.476E-03    6.65       8.6  T
   7    -12.5223938 -0.319737E-08  0.138E-03    6.65      29.5  T
   8    -12.5223938 -0.140243E-08  0.267E-04    6.65     153.0  T
   9    -12.5223938 -0.451941E-10  0.296E-05    6.65    1379.2  T
  10    -12.5223938 -0.389022E-12  0.105E-05    6.65    3900.9  T

   *** convergence criteria satisfied after 10 iterations ***

         #    Occupation            Energy/Eh            Energy/eV
      -------------------------------------------------------------
         1        2.0000           -0.6477343             -17.6257
       ...           ...                  ...                  ...
         5        2.0000           -0.3832946             -10.4300
         6        2.0000           -0.3796581             -10.3310
         7        2.0000           -0.3137681              -8.5381
         8        2.0000           -0.3135645              -8.5325
         9        2.0000           -0.1668421              -4.5400
        10        2.0000           -0.1632158              -4.4413
        11        2.0000           -0.1632078              -4.4411 (HOMO)
        12                          0.0812654               2.2113 (LUMO)
        13                          0.2872732               7.8171
        14                          0.3380968               9.2001
        15                          0.3429002               9.3308
        16                          0.3861410              10.5074
       ...                                ...                  ...
        20                          0.4779292              13.0051
      -------------------------------------------------------------
                  HL-Gap            0.2444732 Eh            6.6525 eV
             Fermi-level           -0.0409712 Eh           -1.1149 eV

 SCC (total)                   0 d,  0 h,  0 min,  0.065 sec
 SCC setup                      ...        0 min,  0.000 sec (  0.295%)
 Dispersion                     ...        0 min,  0.000 sec (  0.102%)
 classical contributions        ...        0 min,  0.000 sec (  0.049%)
 integral evaluation            ...        0 min,  0.062 sec ( 96.628%)
 iterations                     ...        0 min,  0.001 sec (  2.039%)
 molecular gradient             ...        0 min,  0.000 sec (  0.690%)
 printout                       ...        0 min,  0.000 sec (  0.167%)

         :::::::::::::::::::::::::::::::::::::::::::::::::::::
         ::                     SUMMARY                     ::
         :::::::::::::::::::::::::::::::::::::::::::::::::::::
         :: total energy             -12.457693976466 Eh    ::
         :: gradient norm              0.058993240132 Eh/a0 ::
         :: HOMO-LUMO gap              6.652454385891 eV    ::
         ::.................................................::
         :: SCC energy               -12.522393845084 Eh    ::
         :: -> isotropic ES            0.163368417981 Eh    ::
         :: -> anisotropic ES         -0.001996093487 Eh    ::
         :: -> anisotropic XC         -0.000196569794 Eh    ::
         :: -> dispersion             -0.002350159602 Eh    ::
         :: repulsion energy           0.064699868617 Eh    ::
         :: add. restraining           0.000000000000 Eh    ::
         :: total charge              -1.000000000000 e     ::
         :::::::::::::::::::::::::::::::::::::::::::::::::::::


Property printout bound to 'properties.out'

           -------------------------------------------------
          | TOTAL ENERGY              -12.457693976466 Eh   |
          | GRADIENT NORM               0.058993240132 Eh/α |
          | HOMO-LUMO GAP               6.652454385891 eV   |
           -------------------------------------------------

------------------------------------------------------------------------
 * finished run on 2026/03/12 at 12:38:59.474     
------------------------------------------------------------------------
 total:
 * wall-time:     0 d,  0 h,  0 min,  0.078 sec
 *  cpu-time:     0 d,  0 h,  0 min,  0.276 sec
 * ratio c/w:     3.550 speedup
 SCF:
 * wall-time:     0 d,  0 h,  0 min,  0.065 sec
 *  cpu-time:     0 d,  0 h,  0 min,  0.217 sec
 * ratio c/w:     3.350 speedup


-------------------------   --------------------
FINAL SINGLE POINT ENERGY       -12.457693976470
-------------------------   --------------------


-------------
DIPOLE MOMENT
-------------
                                X             Y             Z
Total Dipole Moment    :      0.00000      -0.49200       3.59100
                        -----------------------------------------
Magnitude (a.u.)       :      3.62455
Magnitude (Debye)      :      9.21287


------------------
CARTESIAN GRADIENT
------------------

   1   C   :    0.000011800    0.011216384   -0.050912207
   2   H   :    0.000000625   -0.014810079    0.010533094
   3   H   :   -0.002459787    0.001931129    0.009451179
   4   H   :    0.002447014    0.001922058    0.009446644
   5   F   :    0.000000369   -0.000424447    0.009495354
   6   I   :   -0.000000020    0.000164954    0.011985935

Difference to translation invariance:
           :    0.0000000000   -0.0000000000    0.0000000000

Difference to rotation invariance:
           :   -0.0000000140   -0.0000000000    0.0000000000

Norm of the Cartesian gradient     ...    0.0589932401
RMS gradient                       ...    0.0139048400
MAX gradient                       ...    0.0509122071
------------------------------------------------------------------------------
                         ORCA GEOMETRY RELAXATION STEP
------------------------------------------------------------------------------

Reading the OPT-File                    .... done
Getting information on internals        .... done
Copying old internal coords+grads       .... done
Making the new internal coordinates     .... (2022 redundants) done
Validating the new internal coordinates .... (2022 redundants) done
Calculating the B-matrix                .... done
Calculating the G,G- and P matrices     .... done
Transforming gradient to internals      .... done
Projecting the internal gradient        .... done
Number of atoms                         ....   6
Number of internal coordinates          ....  18
Current Energy                          ....   -12.457693976 Eh
Current gradient norm                   ....     0.058993240 Eh/bohr
Maximum allowed component of the step   ....  0.300
Current trust radius                    ....  0.200
Updating the Hessian (BFGS)             .... done
Forming the augmented Hessian           .... done
Diagonalizing the augmented Hessian     .... done
Last element of RFO vector              ....  0.806473685
Lowest eigenvalues of augmented Hessian:
 -0.012762746  0.009596670  0.050554187  0.050878167  0.065021727
Length of the computed step             ....  0.733154715
Warning: the length of the step is outside the trust region - taking restricted step instead
The input lambda is                     ....     0.002193
   iter:   5  x=   -0.004480  g= 1763.307873 f(x)=     4.557077
   iter:  10  x=   -0.052924  g=    4.613114 f(x)=     0.074348
   iter:  15  x=   -0.073802  g=    0.836447 f(x)=     0.000000
The output lambda is                    ....    -0.073802 (16 iterations)
The final length of the internal step   ....  0.200000000
Converting the step to Cartesian space:
 Initial RMS(Int)=    0.0471404521
Transforming coordinates:
 Iter   0:  RMS(Cart)=    0.0259889166 RMS(Int)=    0.0469109039
 Iter   5:  RMS(Cart)=    0.0017149113 RMS(Int)=    0.0013070556
 Iter  10:  RMS(Cart)=    0.0009306961 RMS(Int)=    0.0007096921
 Iter  15:  RMS(Cart)=    0.0005036350 RMS(Int)=    0.0003841393
 Iter  20:  RMS(Cart)=    0.0002720938 RMS(Int)=    0.0002075633
 Iter  25:  RMS(Cart)=    0.0001468700 RMS(Int)=    0.0001120461
 Iter  30:  RMS(Cart)=    0.0000792384 RMS(Int)=    0.0000604528
 Iter  35:  RMS(Cart)=    0.0000427390 RMS(Int)=    0.0000326072
 Iter  40:  RMS(Cart)=    0.0000230489 RMS(Int)=    0.0000175851
 Iter  45:  RMS(Cart)=    0.0000124292 RMS(Int)=    0.0000094829
 Iter  50:  RMS(Cart)=    0.0000067022 RMS(Int)=    0.0000051135
 Iter  55:  RMS(Cart)=    0.0000036139 RMS(Int)=    0.0000027573
 Iter  60:  RMS(Cart)=    0.0000019487 RMS(Int)=    0.0000014868
 Iter  65:  RMS(Cart)=    0.0000010507 RMS(Int)=    0.0000008017
 Iter  70:  RMS(Cart)=    0.0000005666 RMS(Int)=    0.0000004323
 Iter  75:  RMS(Cart)=    0.0000003055 RMS(Int)=    0.0000002331
 Iter  80:  RMS(Cart)=    0.0000001647 RMS(Int)=    0.0000001257
 Iter  85:  RMS(Cart)=    0.0000000888 RMS(Int)=    0.0000000678
done
Storing new coordinates                 .... done
The predicted energy change is          ....    -0.003731954
Previously predicted energy change      ....    -0.007851836
Actually observed energy change         ....    -0.007421808
Ratio of predicted to observed change   ....     0.945232131
New trust radius                        ....     0.300000000

                                .--------------------.
          ----------------------|Geometry convergence|-------------------------
          Item                value                   Tolerance       Converged
          ---------------------------------------------------------------------
          Energy change      -0.0074218081            0.0000050000      NO
          RMS gradient        0.0070571537            0.0001000000      NO
          MAX gradient        0.0166411424            0.0003000000      NO
          RMS step            0.0471404521            0.0020000000      NO
          MAX step            0.1157795026            0.0040000000      NO
          -------------------------------------------------------------------------
          ........................................................
          Max(Bonds)      0.0613      Max(Angles)    3.76
          Max(Dihed)        0.00      Max(Improp)    0.00
          ---------------------------------------------------------------------

The optimization has not yet converged - more geometry cycles are needed


    ---------------------------------------------------------------------------
                         Redundant Internal Coordinates
                            (Angstroem and degrees)

        Definition                    Value    dE/dq     Step     New-Value
    ----------------------------------------------------------------------------
     1. B(H   1,C   0)                1.0534 -0.016641  0.0058    1.0592   
     2. B(H   2,C   0)                1.0713 -0.004919  0.0043    1.0756   
     3. B(H   3,C   0)                1.0713 -0.004902  0.0043    1.0756   
     4. B(F   4,C   0)                1.4662  0.009491 -0.0539    1.4122   
     5. B(I   5,H   1)                2.9043 -0.000633  0.0208    2.9251   
     6. B(I   5,H   3)                2.9591  0.000608  0.0141    2.9732   
[...]
        20                          0.4321185              11.7585
      -------------------------------------------------------------
                  HL-Gap            0.3322068 Eh            9.0398 eV
             Fermi-level            0.0122796 Eh            0.3341 eV

 SCC (total)                   0 d,  0 h,  0 min,  0.144 sec
 SCC setup                      ...        0 min,  0.000 sec (  0.124%)
 Dispersion                     ...        0 min,  0.000 sec (  0.035%)
 classical contributions        ...        0 min,  0.000 sec (  0.019%)
 integral evaluation            ...        0 min,  0.095 sec ( 66.438%)
 iterations                     ...        0 min,  0.047 sec ( 32.593%)
 molecular gradient             ...        0 min,  0.001 sec (  0.663%)
 printout                       ...        0 min,  0.000 sec (  0.116%)

         :::::::::::::::::::::::::::::::::::::::::::::::::::::
         ::                     SUMMARY                     ::
         :::::::::::::::::::::::::::::::::::::::::::::::::::::
         :: total energy             -12.467194709911 Eh    ::
         :: gradient norm              0.000228969724 Eh/a0 ::
         :: HOMO-LUMO gap              9.039808302255 eV    ::
         ::.................................................::
         :: SCC energy               -12.526656723965 Eh    ::
         :: -> isotropic ES            0.167333787241 Eh    ::
         :: -> anisotropic ES         -0.000912193955 Eh    ::
         :: -> anisotropic XC         -0.001436050061 Eh    ::
         :: -> dispersion             -0.002229328598 Eh    ::
         :: repulsion energy           0.059462014054 Eh    ::
         :: add. restraining           0.000000000000 Eh    ::
         :: total charge              -1.000000000000 e     ::
         :::::::::::::::::::::::::::::::::::::::::::::::::::::

           ------------------------------------------------- 
          |                Numerical Hessian                |
           ------------------------------------------------- 
step length          :   0.00500
SCC accuracy         :   0.30000
Hessian scale factor :   1.00000
frozen atoms in %    :   0.00000    0
RMS gradient         :   0.00023
estimated CPU  time      0.00 min
estimated wall time      0.00 min

writing file <hessian>.

 projected vibrational frequencies (cm⁻¹)
eigval :       -0.00    -0.00    -0.00     0.00     0.00     0.00
eigval :       96.14   100.60   100.68  1001.17  1106.31  1106.31
eigval :     1386.81  1451.66  1452.28  3035.69  3042.32  3043.76

Property printout bound to 'properties.out'
Molecule has the following symmetry elements: (C3) 3*(sigma) 
It seems to be the C3v point group

           -------------------------------------------------
          | TOTAL ENERGY              -12.467194709911 Eh   |
          | TOTAL ENTHALPY            -12.422548680212 Eh   |
          | TOTAL FREE ENERGY         -12.457953534955 Eh   |
          | GRADIENT NORM               0.000228971707 Eh/α |
          | HOMO-LUMO GAP               9.039808214636 eV   |
           -------------------------------------------------

------------------------------------------------------------------------
 * finished run on 2026/03/12 at 12:39:01.266     
------------------------------------------------------------------------
 total:
 * wall-time:     0 d,  0 h,  0 min,  0.172 sec
 *  cpu-time:     0 d,  0 h,  0 min,  0.622 sec
 * ratio c/w:     3.622 speedup
 SCF:
 * wall-time:     0 d,  0 h,  0 min,  0.144 sec
 *  cpu-time:     0 d,  0 h,  0 min,  0.461 sec
 * ratio c/w:     3.205 speedup
 analytical hessian:
 * wall-time:     0 d,  0 h,  0 min,  0.013 sec
 *  cpu-time:     0 d,  0 h,  0 min,  0.099 sec
 * ratio c/w:     7.828 speedup


-------------------------   --------------------
FINAL SINGLE POINT ENERGY       -12.467194709910
-------------------------   --------------------


-------------
DIPOLE MOMENT
-------------
                                X             Y             Z
Total Dipole Moment    :      0.00000      -0.43400       4.25200
                        -----------------------------------------
Magnitude (a.u.)       :      4.27409
Magnitude (Debye)      :     10.86388


-----------------------
VIBRATIONAL FREQUENCIES
-----------------------

Scaling factor for frequencies =  1.000000000  (already applied!)

     0:       0.00 cm**-1
     1:       0.00 cm**-1
     2:       0.00 cm**-1
     3:       0.00 cm**-1
     4:       0.00 cm**-1
     5:       0.00 cm**-1
     6:      96.14 cm**-1
     7:     100.60 cm**-1
     8:     100.68 cm**-1
     9:    1001.16 cm**-1
    10:    1106.28 cm**-1
    11:    1106.29 cm**-1
    12:    1386.77 cm**-1
    13:    1451.62 cm**-1
    14:    1452.24 cm**-1
    15:    3035.61 cm**-1
    16:    3042.24 cm**-1
    17:    3043.67 cm**-1


------------
NORMAL MODES
------------

These modes are the Cartesian displacements weighted by the diagonal matrix
M(i,i)=1/sqrt(m[i]) where m[i] is the mass of the displaced atom
Thus, these vectors are normalized but *not* orthogonal

                  0          1          2          3          4          5    
      0       0.000000   0.000000   0.000000   0.000000   0.000000   0.000000
      1       0.000000   0.000000   0.000000   0.000000   0.000000   0.000000
      2       0.000000   0.000000   0.000000   0.000000   0.000000   0.000000
      3       0.000000   0.000000   0.000000   0.000000   0.000000   0.000000
      4       0.000000   0.000000   0.000000   0.000000   0.000000   0.000000
      5       0.000000   0.000000   0.000000   0.000000   0.000000   0.000000
      6       0.000000   0.000000   0.000000   0.000000   0.000000   0.000000
      7       0.000000   0.000000   0.000000   0.000000   0.000000   0.000000
      8       0.000000   0.000000   0.000000   0.000000   0.000000   0.000000
      9       0.000000   0.000000   0.000000   0.000000   0.000000   0.000000
     10       0.000000   0.000000   0.000000   0.000000   0.000000   0.000000
     11       0.000000   0.000000   0.000000   0.000000   0.000000   0.000000
     12       0.000000   0.000000   0.000000   0.000000   0.000000   0.000000
     13       0.000000   0.000000   0.000000   0.000000   0.000000   0.000000
     14       0.000000   0.000000   0.000000   0.000000   0.000000   0.000000
     15       0.000000   0.000000   0.000000   0.000000   0.000000   0.000000
     16       0.000000   0.000000   0.000000   0.000000   0.000000   0.000000
     17       0.000000   0.000000   0.000000   0.000000   0.000000   0.000000
                  6          7          8          9         10         11    
      0       0.000081   0.330579   0.003880  -0.000021  -0.123847   0.053283
      1      -0.006285   0.003880  -0.330600   0.003055  -0.053305  -0.123914
      2      -0.449462   0.000007   0.002036  -0.564185  -0.000288  -0.000687
      3       0.000115   0.452997   0.005324  -0.000009   0.245763  -0.105717
      4      -0.009402   0.005400  -0.460050   0.014525   0.056018   0.130233
      5      -0.450355   0.004559  -0.384916  -0.410470   0.295719   0.687376
      6       0.000350   0.461341   0.008429   0.011154   0.182837  -0.021041
      7      -0.009587   0.002434  -0.457954  -0.004127   0.140133   0.200687
      8      -0.435712   0.332331   0.198412  -0.409002   0.448030  -0.598964
      9      -0.000117   0.461393   0.002393  -0.011175   0.140957  -0.118284
     10      -0.009585   0.008314  -0.457851  -0.004127   0.049343   0.239757
     11      -0.435896  -0.336860   0.190531  -0.409030  -0.742955  -0.086510
     12      -0.000060  -0.188501  -0.002212   0.000014   0.048171  -0.020724
     13       0.006646  -0.002212   0.188493  -0.002266   0.020715   0.048154
     14      -0.447815  -0.000008   0.004739   0.422035   0.000137   0.000326
     15      -0.000001  -0.013997  -0.000164   0.000000  -0.000014   0.000006
     16      -0.000173  -0.000164   0.014001   0.000000  -0.000006  -0.000014
     17       0.120084   0.000000  -0.000934  -0.000024   0.000000   0.000001
                 12         13         14         15         16         17    
      0       0.000004   0.000016   0.064494  -0.000022  -0.000104  -0.089795
      1      -0.000363   0.064422  -0.000016  -0.012269   0.088787  -0.000100
      2       0.112896   0.000014  -0.000001   0.037054   0.005859  -0.000015
      3      -0.000022  -0.000143  -0.736579   0.000005  -0.000075  -0.045453
      4      -0.193216   0.125457   0.000002   0.650932  -0.682630   0.000643
      5      -0.539563   0.326970  -0.000050  -0.199472   0.230620  -0.000221
      6      -0.171052  -0.373254  -0.089014   0.426084   0.418330   0.564664
      7       0.099461  -0.520055  -0.375218  -0.251298  -0.195602  -0.350915
      8      -0.538669  -0.163931   0.278976  -0.151564  -0.154955  -0.227885
      9       0.171025   0.373165  -0.089159  -0.425820  -0.416998   0.565942
     10       0.099447  -0.519925   0.375446  -0.251089  -0.194728   0.351477
     11      -0.538671  -0.164070  -0.278902  -0.151421  -0.154383   0.228306
     12       0.000000   0.000002   0.007601  -0.000000  -0.000001  -0.000924
     13      -0.000076   0.007638  -0.000002  -0.000139   0.000912  -0.000001
     14       0.013112   0.000044  -0.000000   0.002854   0.000417  -0.000001
     15       0.000000   0.000000   0.000024   0.000000   0.000000   0.000018
     16       0.000000   0.000023  -0.000000   0.000002  -0.000017   0.000000
     17       0.000195   0.000000  -0.000000   0.000057   0.000008  -0.000000


The first frequency considered to be a vibration is 6
The total number of vibrations considered is 12


--------------------------
THERMOCHEMISTRY AT 298.15K
--------------------------

Temperature         ...   298.15 K
Pressure            ...     1.00 atm
Total Mass          ...   160.93 AMU
Quasi RRHO          ...     True
Cut-Off Frequency   ...     1.00 cm^-1

Throughout the following assumptions are being made:
  (1) The electronic state is orbitally nondegenerate
  (2) There are no thermally accessible electronically excited states
  (3) Hindered rotations indicated by low frequency modes are not
      treated as such but are treated as vibrations and this may
      cause some error
  (4) All equations used are the standard statistical mechanics
      equations for an ideal gas
  (5) All vibrations are strictly harmonic

freq.      96.14  E(vib)   ...       0.47 
freq.     100.60  E(vib)   ...       0.46 
freq.     100.68  E(vib)   ...       0.46 
freq.    1001.16  E(vib)   ...       0.02 
freq.    1106.28  E(vib)   ...       0.02 
freq.    1106.29  E(vib)   ...       0.02 
freq.    1386.77  E(vib)   ...       0.00 
freq.    1451.62  E(vib)   ...       0.00 
freq.    1452.24  E(vib)   ...       0.00 
freq.    3035.61  E(vib)   ...       0.00 
freq.    3042.24  E(vib)   ...       0.00 
freq.    3043.67  E(vib)   ...       0.00 

------------
INNER ENERGY
------------

The inner energy is: U= E(el) + E(ZPE) + E(vib) + E(rot) + E(trans)
    E(el)   - is the total energy from the electronic structure calculation
              = E(kin-el) + E(nuc-el) + E(el-el) + E(nuc-nuc)
    E(ZPE)  - the the zero temperature vibrational energy from the frequency calculation
    E(vib)  - the the finite temperature correction to E(ZPE) due to population
              of excited vibrational states
    E(rot)  - is the rotational thermal energy
    E(trans)- is the translational thermal energy

Summary of contributions to the inner energy U:
Electronic energy                ...    -12.46719471 Eh
Zero point energy                ...      0.03855412 Eh      24.19 kcal/mol
Thermal vibrational correction   ...      0.00231411 Eh       1.45 kcal/mol
Thermal rotational correction    ...      0.00141627 Eh       0.89 kcal/mol
Thermal translational correction ...      0.00141627 Eh       0.89 kcal/mol
-----------------------------------------------------------------------
Total thermal energy                    -12.42349394 Eh


Summary of corrections to the electronic energy:
(perhaps to be used in another calculation)
Total thermal correction                  0.00514665 Eh       3.23 kcal/mol
Non-thermal (ZPE) correction              0.03855412 Eh      24.19 kcal/mol
-----------------------------------------------------------------------
Total correction                          0.04370077 Eh      27.42 kcal/mol


--------
ENTHALPY
--------

The enthalpy is H = U + kB*T
                kB is Boltzmann's constant
Total thermal energy              ...    -12.42349394 Eh 
Thermal Enthalpy correction       ...      0.00094421 Eh       0.59 kcal/mol
-----------------------------------------------------------------------
Total Enthalpy                    ...    -12.42254973 Eh


WARNING (ORCA/SYM): The number of Z matrix atoms does not agree with
the number of centers in the basis set. The point group will therefore
be determined without considering basis set information.


Note: Rotational entropy computed according to Herzberg 
Infrared and Raman Spectra, Chapter V,1, Van Nostrand Reinhold, 1945 
Point Group:  Cs, Symmetry Number:   1  
Rotational constants in cm-1:     5.243037     0.035323     0.035323 

Vibrational entropy computed according to the QRRHO of S. Grimme
Chem.Eur.J. 2012 18 9955 using a reference frequency of 100.0 cm-1


-------
ENTROPY
-------

The entropy contributions are T*S = T*(S(el)+S(vib)+S(rot)+S(trans))
     S(el)   - electronic entropy
     S(vib)  - vibrational entropy
     S(rot)  - rotational entropy
     S(trans)- translational entropy
The entropies will be listed as multiplied by the temperature to get
units of energy

Electronic entropy                ...      0.00000000 Eh      0.00 kcal/mol
Vibrational entropy               ...      0.00463154 Eh      2.91 kcal/mol
Rotational entropy                ...      0.01188521 Eh      7.46 kcal/mol
Translational entropy             ...      0.01954513 Eh     12.26 kcal/mol
-----------------------------------------------------------------------
Final entropy term                ...      0.03606189 Eh     22.63 kcal/mol

In case the symmetry of your molecule has not been determined correctly
or in case you have a reason to use a different symmetry number we print 
out the resulting rotational entropy values for sn=1,12:

 non-linear molecules -----------------------------------
|  sn= 1 | S(rot)=       0.01188521 Eh      7.46 kcal/mol|
|  sn= 2 | S(rot)=       0.01123076 Eh      7.05 kcal/mol|
|  sn= 3 | S(rot)=       0.01084793 Eh      6.81 kcal/mol|
|  sn= 4 | S(rot)=       0.01057630 Eh      6.64 kcal/mol|
|  sn= 5 | S(rot)=       0.01036561 Eh      6.50 kcal/mol|
|  sn= 6 | S(rot)=       0.01019347 Eh      6.40 kcal/mol|
|  sn= 7 | S(rot)=       0.01004792 Eh      6.31 kcal/mol|
|  sn= 8 | S(rot)=       0.00992185 Eh      6.23 kcal/mol|
|  sn= 9 | S(rot)=       0.00981064 Eh      6.16 kcal/mol|
|  sn=10 | S(rot)=       0.00971116 Eh      6.09 kcal/mol|
|  sn=11 | S(rot)=       0.00962117 Eh      6.04 kcal/mol|
|  sn=12 | S(rot)=       0.00953901 Eh      5.99 kcal/mol|
 linear molecules ---------------------------------------
|  Dinfh | S(rot)=       0.00848242 Eh      5.32 kcal/mol|
|  Cinfv | S(rot)=       0.00913687 Eh      5.73 kcal/mol|
 --------------------------------------------------------


-------------------
GIBBS FREE ENERGY
-------------------

The Gibbs free energy is G = H - T*S

Total enthalpy                    ...    -12.42254973 Eh 
Total entropy correction          ...     -0.03606189 Eh    -22.63 kcal/mol
-----------------------------------------------------------------------
Final Gibbs free energy         ...    -12.45861162 Eh

For completeness - the Gibbs free energy minus the electronic energy
G-E(el)                           ...      0.00858309 Eh      5.39 kcal/mol


--------------------------------
SUGGESTED CITATIONS FOR THIS RUN
--------------------------------

Below you find a list of papers that are relevant to this ORCA run
We neither can nor want to force you to cite these papers, but we appreciate if you do
You receive ORCA, which is the product of decades of hard work by many enthusiastic individuals, for free
The only thing we kindly ask in return is that you cite our papers,
We deeply appreciate it, if you show your appreciation for ORCA by not just citing the generic ORCA reference.

Please note that relegating all ORCA citations to the supporting information does *not* help us.
SI sections are not indexed - citations you put there will not count into any citation statistics
But we need these citations in order to attract the funding resources that allow us to do what we are doing

Therefore, if you are a happy ORCA user, please consider citing a few of the papers listed below in the main body of your paper

In addition to the list printed below, the program has created the file product_optfreq.bibtex that contains the list in bibtex format
You can import this file easily into all common literature databanks and citation aid programs


List of essential papers. We consider these as the minimum necessary citations

  1. Bannwarth, C.; Ehlert, S.; Grimme, S.
     GFN2-xTB—An Accurate and Broadly Parametrized Self-Consistent Tight-Binding Quantum Chemical Method with Multipole Electrostatics and Density-Dependent Dispersion Contributions
     J. Chem. Theory Comput. 2019 15(3), 1652-1671
     doi.org/10.1021/acs.jctc.8b01176
  2. Neese, F.
     Software update: the ORCA program system, version 6.0
     WIRES Comput. Molec. Sci. 2025 15(1), e70019
     doi.org/10.1002/wcms.7019

List of papers to cite with high priority. The work reported in these papers was absolutely
necessary for this run to complete.
Our perspective: the developers of density functionals and basis sets usually get cited in chemistry papers
Good! But without the algorithms to do something with them, the functionals or basis sets would not do anything.
Hence, in our opinion, the algorithm design and method developments papers are equally worthy of getting cited

  1. Bykov, D.; Petrenko, T.; Izsak, R.; Kossmann, S.; Becker, U.; Valeev, E.; Neese, F.
     Efficient implementation of the analytic second derivatives of Hartree-Fock and hybrid DFT energies: a detailed analysis of different approximations
     Molec. Phys. 2015 113 , 1961-1977
     doi.org/10.1080/00268976.2015.1025114
  2. Bannwarth, C.; Caldeweyher, E.; Ehlert, S.; Hansen, A.; Pracht, P.; Seibert, J.; Spicher, S.; Grimme, S.
     Extended tight-binding quantum chemistry methods
     WIRES Comput. Molec. Sci. 2020 11(2), e1493
     doi.org/10.1002/wcms.1493

List of suggested additional citations. These are papers that are important in the 'surrounding' of 
of this run, or papers that preceded the highly important papers. If you like your results we are grateful for a citation.

  1. Neese, F.
     The ORCA program system
     WIRES Comput. Molec. Sci. 2012 2(1), 73-78
     doi.org/10.1002/wcms.81
  2. Neese, F.
     Software update: the ORCA program system, version 4.0
     WIRES Comput. Molec. Sci. 2018 8(1), 1-6
     doi.org/10.1002/wcms.1327
  3. Neese, F.; Wennmohs, F.; Becker, U.; Riplinger, C.
     The ORCA quantum chemistry program package
     J. Chem. Phys. 2020 152(22), 224108
     doi.org/10.1063/5.0004608
  4. Neese, F.
     Software update: The ORCA program system—Version 5.0
     WIRES Comput. Molec. Sci. 2022 12(1), e1606
     doi.org/10.1002/wcms.1606

List of optional additional citations

  1. Neese, F.
     Approximate second-order SCF convergence for spin unrestricted wavefunctions
     Chem. Phys. Lett. 2000 325(1-3), 93-98
     doi.org/10.1016/s0009-2614(00)00662-x

Timings for individual modules:

Sum of individual times          ...        2.044 sec (=   0.034 min)
Geometry relaxation              ...        0.027 sec (=   0.000 min)   1.3 %
XTB module                       ...        2.017 sec (=   0.034 min)  98.7 %
                             ****ORCA TERMINATED NORMALLY****
TOTAL RUN TIME: 0 days 0 hours 0 minutes 2 seconds 540 msec
