
                                 *****************
                                 * O   R   C   A *
                                 *****************

                                            #,                                       
                                            ###                                      
                                            ####                                     
                                            #####                                    
                                            ######                                   
                                           ########,                                 
                                     ,,################,,,,,                         
                               ,,#################################,,                 
                          ,,##########################################,,             
                       ,#########################################, ''#####,          
                    ,#############################################,,   '####,        
                  ,##################################################,,,,####,       
                ,###########''''           ''''###############################       
              ,#####''   ,,,,##########,,,,          '''####'''          '####       
            ,##' ,,,,###########################,,,                        '##       
           ' ,,###''''                  '''############,,,                           
         ,,##''                                '''############,,,,        ,,,,,,###''
      ,#''                                            '''#######################'''  
     '                                                          ''''####''''         
             ,#######,   #######,   ,#######,      ##                                
            ,#'     '#,  ##    ##  ,#'     '#,    #''#        ,####,    ,#,          
            ##       ##  ##   ,#'  ##            #'  '#       #'       ,# #          
            ##       ##  #######   ##           ,######,      #####,      #          
            '#,     ,#'  ##    ##  '#,     ,#' ,#      #,     #,   #      #          
             '#######'   ##     ##  '#######'  #'      '#     '####' #    #          



                #########################################################
                #                        -***-                          #
                #          Department of theory and spectroscopy        #
                #                                                       #
                #                      Frank Neese                      #
                #                                                       #
                #     Directorship, Architecture, Infrastructure        #
                #                    SHARK, DRIVERS                     #
                #        Core code/Algorithms in most modules           #
                #                                                       #
                #        Max Planck Institute fuer Kohlenforschung      #
                #                Kaiser Wilhelm Platz 1                 #
                #                 D-45470 Muelheim/Ruhr                 #
                #                      Germany                          #
                #                                                       #
                #                  All rights reserved                  #
                #                        -***-                          #
                #########################################################


                         Program Version 6.1.0  -  RELEASE   -
                                (GIT: $679e74b$)
                          ($2025-06-10 18:02:51 +0200$)


 With contributions from (in alphabetic order):
[Max-Planck-Institut fuer Kohlenforschung]                               
  Daniel Aravena         : Magnetic Suceptibility                        
  Michael Atanasov       : Ab Initio Ligand Field Theory (pilot matlab implementation)
  Alexander A. Auer      : GIAO ZORA, VPT2 properties, NMR spectrum      
  Ute Becker             : All parallelization in ORCA, NUMFREQ, NUMCALC 
  Giovanni Bistoni       : ED, misc. LED, open-shell LED, HFLD           
  Dmytro Bykov           : pre 5.0 version of the SCF Hessian            
  Marcos Casanova-Páez   : Triplet and SCS-CIS(D). UHF-(DLPNO)-IP/EA/STEOM-CCSD. UHF-CVS-IP/STEOM-CCSD   
  Vijay G. Chilkuri      : MRCI spin determinant printing, contributions to CSF-ICE 
  Pauline Colinet        : FMM embedding                                 
  Dipayan Datta          : RHF DLPNO-CCSD density                        
  Achintya Kumar Dutta   : EOM-CC, STEOM-CC                              
  Nicolas Foglia         : Exact transition moments, OPA infrastructure, MCD improvements    
  Dmitry Ganyushin       : Spin-Orbit,Spin-Spin,Magnetic field MRCI      
  Miquel Garcia-Rates    : C-PCM and meta-GGA Hessian, CCSD/C-PCM, Gaussian charge scheme 
  Tiago L. C. Gouveia    : GS-ROHF, GS-ROCIS                             
  Yang Guo               : DLPNO-NEVPT2, F12-NEVPT2, CIM, IAO-localization        
  Andreas Hansen         : Spin unrestricted coupled pair/coupled cluster methods 
  Ingolf Harden          : AUTO-CI MPn and infrastructure                
  Benjamin Helmich-Paris : MC-RPA, TRAH-(SCF,CASSCF), AVAS, COSX integrals, SCF dyn. polar., MC-PDFT, srDFT 
  Lee Huntington         : MR-EOM, pCC                                   
  Robert Izsak           : Overlap fitted RIJCOSX, COSX-SCS-MP3, EOM     
  Riya Kayal             : Wick's Theorem for AUTO-CI, AUTO-CI UHF-CCSDT 
  Emily Kempfer          : AUTO-CI RHF CISDT and CCSDT, approximate NEVPT4
  Christian Kollmar      : KDIIS, OOCD, Brueckner-CCSD(T), CCSD density, CASPT2, CASPT2-K, improved NEVPT2 
  Axel Koslowski         : Symmetry handling                             
  Simone Kossmann        : meta-GGA functionals, TD-DFT gradient, OOMP2, (MP2 Hessian; deprecated post 5.0) 
  Lucas Lang             : DCDCAS, Hyperfine gauge corrections, ICE-SOC+SSC
  Marvin Lechner         : AUTO-CI (C++ implementation), FIC-MRCC        
  Spencer Leger          : CASSCF response                               
  Dagmar Lenk            : GEPOL surface, SMD, ORCA-2-JSON               
  Dimitrios Liakos       : Extrapolation schemes; Compound Job, Property file
  Dimitrios Manganas     : Further ROCIS development; embedding schemes. LFT, Crystal Embedding 
  Dimitrios Pantazis     : SARC Basis sets                               
  Anastasios Papadopoulos: AUTO-CI, single reference methods and gradients 
  Taras Petrenko         : pre 6.0 DFT Hessian and TD-DFT gradient,  ECA, NRVS 
  Petra Pikulova         : Analytic Raman intensities                    
  Peter Pinski           : DLPNO-MP2, DLPNO-MP2 Gradient                 
  Shashank Vittal Rao    : ES-AILFT, MagRelax                            
  Christoph Reimann      : Effective Core Potentials                     
  Marius Retegan         : Local ZFS, SOC                                
  Christoph Riplinger    : Optimizer, TS searches, QM/MM, DLPNO-CCSD(T), (RO)-DLPNO pert. Triples 
  Michael Roemelt        : Original ROCIS implementation, recursive CI coupling coefficients
  Masaaki Saitow         : Open-shell DLPNO-CCSD energy and density      
  Barbara Sandhoefer     : DKH picture change effects                    
  Yorick L. A. Schmerwitz: GMF and freeze-and-release deltaSCF, NEB S-IDPP initial path                    
  Kantharuban Sivalingam : CASSCF convergence/infrastructure, NEVPT2, NEVPT3, NEVPT4(SD), FIC-MRCI and CEPA variants
  Bernardo de Souza      : ESD, SOC TD-DFT                               
  Georgi L. Stoychev     : AutoAux, RI-MP2 NMR, DLPNO-MP2 response, X2C  
  Van Anh Tran           : RI-MP2 g-tensors                              
  Willem Van den Heuvel  : Paramagnetic NMR                              
  Zikuan Wang            : NOTCH, Electric field optimization            
  Frank Wennmohs         : Technical directorship and infrastructure     
  Hang Xu                : AUTO-CI-Response properties                   
                                                                         
[FACCTs GmbH]                                                            
  Markus Bursch, Nicolas Foglia, Miquel Garcia-Rates, Ingolf Harden, Hagen Neugebauer, Anastasios Papadopoulos, 
  Christoph Riplinger, Bernardo de Souza, Georgi L. Stoychev                                                    
                                                                 
  APM, various basis sets, CI-OPT, improved COSX, DLPNO-Multilevel,           
  DOCKER, DRACO, updates on ESD, Fragmentator, GOAT, IRC, LR-CPCM, L-BFGS, MBIS, meta-GGA TD-DFT gradient, ML-optimized integration grids, 
  MM, NACMEs, nearIR, NEB, NEB-TS, NL-DFT gradient (VV10), 2- and 3-layer-ONIOM, interface openCOSMO-RS, QMMM,   
  Crystal-QMMM, RESP, rigid body optimization, SF, symmetry and pop. for TD-DFT, various functionals, SOLVATOR                                   
                                                                         
[Other institutions]                                                     
  V. Asgeirsson          : NEB                                           
  Christoph Bannwarth    : sTDA-DFT, sTD-DFT, PBEh-3c, B97-3c, D3        
  Giovanni Bistoni       : ETS/NOCV, ADLD/ADEX, COVALED                  
  Martin Brehm           : Molecular dynamics                            
  Ronald Cardenas        : ETS/NOCV                                      
  Martina Colucci        : COVALED                                       
  Sebastian Ehlert       : rSCAN, r2SCAN, r2SCAN-3c, D4, dhf basis sets  
  Marvin Friede          : D4 for Fr, Ra, Ac-Lr                          
  Lars Goerigk           : TD-DFT with DH, B97 family of functionals     
  Stefan Grimme          : VdW corrections, initial TS optimization, DFT functionals, gCP, sTDA/sTD-DF 
  Waldemar Hujo          : DFT-NL                                        
  H. Jonsson             : NEB                                           
  Holger Kruse           : gCP                                           
  Marcel Mueller         : wB97X-3c, vDZP basis set                      
  Hagen Neugebauer       : wr2SCAN, Native XTB                           
  Gianluca Regni         : ADLD/ADEX                                     
  Tobias Risthaus        : pre 6.0 range-separated hybrid DFT and stability analysis
  Lukas Wittmann         : regularized MP2, r2SCAN double-hybrids, wr2SCAN        
                                                                         
We gratefully acknowledge several colleagues who have allowed us to      
interface, adapt or use parts of their codes:                            
  Ed Valeev, F. Pavosevic, A. Kumar             : LibInt (2-el integral package), F12 methods 
  Garnet Chan, S. Sharma, J. Yang, R. Olivares  : DMRG                   
  Ulf Ekstrom                                   : XCFun DFT Library      
  Mihaly Kallay                                 : mrcc  (arbitrary order and MRCC methods)
  Frank Weinhold                                : gennbo (NPA and NBO analysis)           
  Simon Mueller                                 : openCOSMO-RS                            
  Christopher J. Cramer and Donald G. Truhlar   : smd solvation model                     
  S Lehtola, MJT Oliveira, MAL Marques          : LibXC Library                           
  Liviu Ungur et al                             : ANISO software                          


 Your calculation uses the libint2 library for the computation of 2-el integrals
 For citations please refer to: http://libint.valeyev.net

 Your ORCA version has been built with support for libXC version: 7.0.0
 For citations please refer to: https://libxc.gitlab.io

 This ORCA versions uses:
   CBLAS   interface :  Fast vector & matrix operations
   LAPACKE interface :  Fast linear algebra routines
   SCALAPACK package :  Parallel linear algebra routines
   Shared memory     :  Shared parallel matrices
   BLAS/LAPACK       :  OpenBLAS 0.3.29  USE64BITINT DYNAMIC_ARCH NO_AFFINITY SkylakeX SINGLE_THREADED
        Core in use  :  SkylakeX
   Copyright (c) 2011-2014, The OpenBLAS Project


  ***********************************
  * Starting time: Mon Mar 16 14:15:31 2026
  * Host name:     midway3-login4.rcc.local
  * Process ID:    65414
  * Working dir.:  /home/rzhu16/evans-polanyi-principle-validation/runs/sn2_f_i/geo_opt_reactant_product
  ***********************************

Your calculation utilizes the semiempirical GFN2-xTB method
Please cite in your paper:
Bannwarth, C.; Ehlert S.; Grimme, S. J. Chem. Theory Comput. 2019, 15, 1652.
   

================================================================================

cite the ECPs for I  [Def2-ECP] as follows:
Ce-Yb(ecp-28): M. Dolg, H. Stoll, H.Preuss, J. Chem. Phys., 1989, 90, 1730-1734.
Y-Cd(ecp-28), Hf-Hg(ecp-46): D. Andrae,U. Haeussermann, M. Dolg, H. Stoll, H. Preuss, Theor. Chim. Acta, 1990, 77, 123-141.
In-Sb(ecp-28), Tl-Bi(ecp-46): B. Metz, H. Stoll, M. Dolg, J. Chem. Phys., 2000, 113, 2563-2569.
Te-Xe(ecp-28), Po-Rn(ecp-46): K. A. Peterson, D. Figgen, E. Goll, H. Stoll, M. Dolg, J. Chem. Phys., 2003, 119, 11113-11123.
Rb(ecp-28), Cs(ecp-46): T. Leininger, A. Nicklass, W. Kuechle, H. Stoll, M. Dolg, A. Bergner, Chem. Phys. Lett., 1996, 255, 274-280.
Sr(ecp-28), Ba(ecp-46): M. Kaupp, P. V. Schleyer, H. Stoll and H. Preuss, J. Chem. Phys., 1991, 94, 1360-1366.
La(ecp-46): M. Dolg, H. Stoll, A. Savin, H. Preuss, Theor. Chim. Acta, 1989, 75, 173-194.
Lu(ecp-28): X. Cao, M. Dolg, J. Chem. Phys., 2001, 115, 7348-7355.

ECP parameters for I  [Def2-ECP] have been obtained from:
TURBOMOLE (7.0.2)

================================================================================
                                        WARNINGS
                       Please study these warnings very carefully!
================================================================================


WARNING: Analytical Hessian for XTB is limited in the analysis of the data.
       : If you want to obtain extensive IR and deltaG analysis, please use ! XTB NumFreq. 


WARNING: Geometry Optimization
  ===> : Switching off AutoStart
         For restart on a previous wavefunction, please use MOREAD

WARNING: Found dipole moment calculation with XTB calculation
  ===> : Switching off dipole moment calculation


WARNING: Found frequency calculation in combination with XTB calculation
  ===> : Need to redirect dipole moment calculation to properties.out


================================================================================
                                       INPUT FILE
================================================================================
NAME = reactant_optfreq.inp
|  1> ! XTB2 Opt Freq PAL8
|  2> 
|  3> %geom
|  4>   MaxIter 500
|  5> end
|  6> 
|  7> * xyz -1 1
|  8>   C       0.026557     -0.486222     -0.270617
|  9>   H      -0.012136      0.225650      0.583358
| 10>   H       0.947058     -1.060728     -0.243048
| 11>   H      -0.824075     -1.159863     -0.240765
| 12>   F      -0.040082      0.774560      2.158973
| 13>   I      -0.027843      0.440170     -2.242007
| 14> *
| 15> 
| 16>                          ****END OF INPUT****
================================================================================

                       *****************************
                       * Geometry Optimization Run *
                       *****************************

Geometry optimization settings:
Update method            Update   .... BFGS
Choice of coordinates    CoordSys .... (2022) Redundant Internals
Initial Hessian          InHess   .... Almloef's Model
Max. no of cycles        MaxIter  .... 500

Convergence Tolerances:
Energy Change            TolE     ....  5.0000e-06 Eh
Max. Gradient            TolMAXG  ....  3.0000e-04 Eh/bohr
RMS Gradient             TolRMSG  ....  1.0000e-04 Eh/bohr
Max. Displacement        TolMAXD  ....  4.0000e-03 bohr
RMS Displacement         TolRMSD  ....  2.0000e-03 bohr
Strict Convergence                .... False

------------------------------------------------------------------------------
                        ORCA OPTIMIZATION COORDINATE SETUP
------------------------------------------------------------------------------

The optimization will be done in redundant internal coordinates (2022)
Making redundant internal coordinates   ...  (2022 redundants) done
Evaluating the initial hessian          ...  (Almloef) done
Evaluating the coordinates              ...  done
Calculating the B-matrix                .... done
Calculating the G-matrix                .... done
The number of degrees of freedom        ....   15

    -----------------------------------------------------------------
                    Redundant Internal Coordinates


    -----------------------------------------------------------------
         Definition                    Initial Value    Approx d2E/dq
    -----------------------------------------------------------------
      1. B(H   1,C   0)                  1.1124         0.331600   
      2. B(H   2,C   0)                  1.0854         0.366208   
      3. B(H   3,C   0)                  1.0855         0.366135   
      4. B(F   4,H   1)                  1.6687         0.035755   
      5. B(I   5,C   0)                  2.1789         0.115776   
      6. A(H   1,C   0,H   3)          110.4115         0.287854   
      7. A(H   1,C   0,H   2)          110.4080         0.287863   
      8. A(H   1,C   0,I   5)          114.9364         0.281227   
      9. A(H   2,C   0,I   5)          105.6162         0.285595   
     10. A(H   3,C   0,I   5)          105.6151         0.285586   
     11. A(H   2,C   0,H   3)          109.5972         0.292373   
     12. A(C   0,H   1,F   4)          159.3740         0.204159   
     13. D(F   4,H   1,C   0,H   3)     60.7421         0.099487   
     14. D(F   4,H   1,C   0,I   5)   -179.9333         0.099487   
     15. D(F   4,H   1,C   0,H   2)    -60.6099         0.099487   
    -----------------------------------------------------------------

Number of atoms                         .... 6
Number of degrees of freedom            .... 15


         *************************************************************
         *                GEOMETRY OPTIMIZATION CYCLE   1            *
         *************************************************************
---------------------------------
CARTESIAN COORDINATES (ANGSTROEM)
---------------------------------
  C     0.026557   -0.486222   -0.270617
  H    -0.012136    0.225650    0.583358
  H     0.947058   -1.060728   -0.243048
  H    -0.824075   -1.159863   -0.240765
  F    -0.040082    0.774560    2.158973
  I    -0.027843    0.440170   -2.242007

----------------------------
CARTESIAN COORDINATES (A.U.)
----------------------------
  NO LB    ZA    FRAG    MASS        X           Y           Z
   0 C   6.0000    0    12.011    0.050185   -0.918826   -0.511392
   1 H   1.0000    0     1.008   -0.022934    0.426417    1.102387
   2 H   1.0000    0     1.008    1.789680   -2.004485   -0.459294
   3 H   1.0000    0     1.008   -1.557276   -2.191823   -0.454980
   4 F   9.0000    0    18.998   -0.075744    1.463706    4.079868
   5 I  53.0000    0   126.900   -0.052616    0.831801   -4.236779

      -----------------------------------------------------------      
     |                   =====================                   |     
     |                           x T B                           |     
     |                   =====================                   |     
     |                         S. Grimme                         |     
     |          Mulliken Center for Theoretical Chemistry        |     
     |                    University of Bonn                     |     
      -----------------------------------------------------------      

   * xtb version 6.7.1 (edcfbbe) compiled by 'albert@albert-system' on 2024-07-22

   xtb is free software: you can redistribute it and/or modify it under
   the terms of the GNU Lesser General Public License as published by
   the Free Software Foundation, either version 3 of the License, or
   (at your option) any later version.
   
   xtb is distributed in the hope that it will be useful,
   but WITHOUT ANY WARRANTY; without even the implied warranty of
   MERCHANTABILITY or FITNESS FOR A PARTICULAR PURPOSE.  See the
   GNU Lesser General Public License for more details.
   
   Cite this work as:
   * C. Bannwarth, E. Caldeweyher, S. Ehlert, A. Hansen, P. Pracht,
     J. Seibert, S. Spicher, S. Grimme, WIREs Comput. Mol. Sci., 2020, 11,
     e01493. DOI: 10.1002/wcms.1493
   
   for GFN2-xTB:
   * C. Bannwarth, S. Ehlert and S. Grimme., J. Chem. Theory Comput., 2019,
     15, 1652-1671. DOI: 10.1021/acs.jctc.8b01176
   for GFN1-xTB:
   * S. Grimme, C. Bannwarth, P. Shushkov, J. Chem. Theory Comput., 2017,
     13, 1989-2009. DOI: 10.1021/acs.jctc.7b00118
   for GFN0-xTB:
   * P. Pracht, E. Caldeweyher, S. Ehlert, S. Grimme, ChemRxiv, 2019, preprint.
     DOI: 10.26434/chemrxiv.8326202.v1
   for GFN-FF:
   * S. Spicher and S. Grimme, Angew. Chem. Int. Ed., 2020, 59, 15665-15673.
     DOI: 10.1002/anie.202004239
   
   for ALPB and GBSA implicit solvation:
   * S. Ehlert, M. Stahn, S. Spicher, S. Grimme, J. Chem. Theory Comput.,
     2021, 17, 4250-4261. DOI: 10.1021/acs.jctc.1c00471
   
   for ddCOSMO and CPCM-X implicit solvation:
   * M. Stahn, S. Ehlert, S. Grimme, J. Phys. Chem. A,
     2023, XX, XXXX-XXXX. DOI: 10.1021/acs.jpca.3c04382
   
   for DFT-D4:
   * E. Caldeweyher, C. Bannwarth and S. Grimme, J. Chem. Phys., 2017,
     147, 034112. DOI: 10.1063/1.4993215
   * E. Caldeweyher, S. Ehlert, A. Hansen, H. Neugebauer, S. Spicher,
     C. Bannwarth and S. Grimme, J. Chem. Phys., 2019, 150, 154122.
     DOI: 10.1063/1.5090222
   * E. Caldeweyher, J.-M. Mewes, S. Ehlert and S. Grimme, Phys. Chem. Chem. Phys.
     2020, 22, 8499-8512. DOI: 10.1039/D0CP00502A
   
   for sTDA-xTB:
   * S. Grimme and C. Bannwarth, J. Chem. Phys., 2016, 145, 054103.
     DOI: 10.1063/1.4959605
   
   in the mass-spec context:
   * V. Asgeirsson, C. Bauer and S. Grimme, Chem. Sci., 2017, 8, 4879.
     DOI: 10.1039/c7sc00601b
   * J. Koopman and S. Grimme, ACS Omega 2019, 4, 12, 15120-15133.
     DOI: 10.1021/acsomega.9b02011
   
   for metadynamics refer to:
   * S. Grimme, J. Chem. Theory Comput., 2019, 155, 2847-2862
     DOI: 10.1021/acs.jctc.9b00143
   
   for SPH calculations refer to:
   * S. Spicher and S. Grimme, J. Chem. Theory Comput., 2021, 17, 1701-1714
     DOI: 10.1021/acs.jctc.0c01306
   
   for ONIOM refer to:
   * C. Plett, A. Katbashev, S. Ehlert, S. Grimme, M. Bursch,
     Phys. Chem. Chem. Phys., 2023, 25, 17860-17868. DOI: 10.1039/D3CP02178E
   
   for DIPRO refer to:
   * J. Kohn, N. Gildemeister, S. Grimme, D. Fazzi, A. Hansen,
     J. Chem. Phys., 2023, just accepted.
   
   for PTB refer to:
   * S. Grimme, M. Mueller, A. Hansen, J. Chem. Phys., 2023, 158, 124111.
     DOI: 10.1063/5.0137838
   
   with help from (in alphabetical order)
   P. Atkinson, C. Bannwarth, F. Bohle, G. Brandenburg, E. Caldeweyher
   M. Checinski, S. Dohm, S. Ehlert, S. Ehrlich, I. Gerasimov, C. Hölzer
   A. Katbashev, J. Kohn, J. Koopman, C. Lavigne, S. Lehtola, F. März, M. Müller,
   F. Musil, H. Neugebauer, J. Pisarek, C. Plett, P. Pracht, F. Pultar,
   J. Seibert, P. Shushkov, S. Spicher, M. Stahn, M. Steiner, T. Strunk,
   J. Stückrath, T. Rose, and J. Unsleber
   
 * started run on 2026/03/16 at 14:15:32.276     
   ID    Z sym.   atoms
    1    6 C      1
    2    1 H      2-4
    3    9 F      5
    4   53 I      6

           -------------------------------------------------
          |                Calculation Setup                |
           -------------------------------------------------

          program call               : /software/orca-6.1.0-el8-x86_64/bin/otool_xtb reactant_optfreq_XTB.xyz --grad -c -1 -u 0 -P 8 --namespace reactant_optfreq --input reactant_optfreq_XTB.input.tmp --acc 0.200000
          hostname                   : midway3-login4.rcc.local
          calculation namespace      : reactant_optfreq
          coordinate file            : reactant_optfreq_XTB.xyz
          omp threads                :                     8


molecular fragmentation (1/2 indicates fragments):
111121
# atoms in fragment 1/2:     5     1
 fragment masses (1/2) :      141.94       19.00
CMA distance (Bohr)    :   7.953
constraining FC (au)   :  0.0500

           -------------------------------------------------
          |                 G F N 2 - x T B                 |
           -------------------------------------------------

        Reference                      10.1021/acs.jctc.8b01176
      * Hamiltonian:
        H0-scaling (s, p, d)           1.850000    2.230000    2.230000
        zeta-weighting                 0.500000
      * Dispersion:
        s8                             2.700000
        a1                             0.520000
        a2                             5.000000
        s9                             5.000000
      * Repulsion:
        kExp                           1.500000    1.000000
        rExp                           1.000000
      * Coulomb:
        alpha                          2.000000
        third order                    shell-resolved
        anisotropic                    true
        a3                             3.000000
        a5                             4.000000
        cn-shift                       1.200000
        cn-exp                         4.000000
        max-rad                        5.000000


          ...................................................
          :                      SETUP                      :
          :.................................................:
          :  # basis functions                  21          :
          :  # atomic orbitals                  20          :
          :  # shells                           10          :
          :  # electrons                        22          :
          :  max. iterations                   250          :
          :  Hamiltonian                  GFN2-xTB          :
          :  restarted?                      false          :
          :  GBSA solvation                  false          :
          :  PC potential                    false          :
          :  electronic temp.          300.0000000     K    :
          :  accuracy                    0.2000000          :
          :  -> integral cutoff          0.3198970E+02      :
          :  -> integral neglect         0.2000000E-08      :
          :  -> SCF convergence          0.2000000E-06 Eh   :
          :  -> wf. convergence          0.2000000E-04 e    :
          :  Broyden damping             0.4000000          :
          :  net charge                         -1          :
          :  unpaired electrons                  0          :
          ...................................................

 iter      E             dE          RMSdq      gap      omega  full diag
   1    -12.4433221 -0.124433E+02  0.109E+01    4.89       0.0  T
   2    -12.4640781 -0.207559E-01  0.415E+00    2.61       1.0  T
   3    -12.4694530 -0.537492E-02  0.185E+00    0.90       1.0  T
   4    -12.4692533  0.199676E-03  0.941E-01    1.50       1.0  T
   5    -12.4704947 -0.124137E-02  0.571E-01    1.04       1.0  T
   6    -12.4701817  0.312947E-03  0.567E-01    0.88       1.0  T
   7    -12.4706275 -0.445743E-03  0.690E-02    1.11       1.0  T
   8    -12.4706500 -0.225476E-04  0.449E-02    1.07       1.0  T
   9    -12.4706524 -0.236041E-05  0.183E-02    1.03       2.2  T
  10    -12.4706543 -0.192166E-05  0.374E-03    1.05      10.9  T
  11    -12.4706543 -0.262917E-08  0.131E-03    1.05      31.3  T
  12    -12.4706543 -0.250838E-08  0.982E-04    1.05      41.6  T
  13    -12.4706543 -0.592236E-08  0.144E-04    1.05     284.2  T
  14    -12.4706543 -0.942570E-10  0.137E-05    1.05    2989.9  T

   *** convergence criteria satisfied after 14 iterations ***

         #    Occupation            Energy/Eh            Energy/eV
      -------------------------------------------------------------
         1        2.0000           -0.5859138             -15.9435
       ...           ...                  ...                  ...
         5        2.0000           -0.3242120              -8.8223
         6        2.0000           -0.3155392              -8.5863
         7        2.0000           -0.2605971              -7.0912
         8        2.0000           -0.2576726              -7.0116
         9        2.0000           -0.1167536              -3.1770
        10        2.0000           -0.1140344              -3.1030
        11        2.0000           -0.1140113              -3.1024 (HOMO)
        12                         -0.0754819              -2.0540 (LUMO)
        13                          0.1808284               4.9206
        14                          0.1823722               4.9626
        15                          0.2106440               5.7319
        16                          0.2113560               5.7513
       ...                                ...                  ...
        20                          0.5048001              13.7363
      -------------------------------------------------------------
                  HL-Gap            0.0385294 Eh            1.0484 eV
             Fermi-level           -0.0944099 Eh           -2.5690 eV

 SCC (total)                   0 d,  0 h,  0 min,  0.089 sec
 SCC setup                      ...        0 min,  0.000 sec (  0.264%)
 Dispersion                     ...        0 min,  0.000 sec (  0.078%)
 classical contributions        ...        0 min,  0.000 sec (  0.052%)
 integral evaluation            ...        0 min,  0.085 sec ( 95.297%)
 iterations                     ...        0 min,  0.003 sec (  3.210%)
 molecular gradient             ...        0 min,  0.001 sec (  0.859%)
 printout                       ...        0 min,  0.000 sec (  0.215%)

         :::::::::::::::::::::::::::::::::::::::::::::::::::::
         ::                     SUMMARY                     ::
         :::::::::::::::::::::::::::::::::::::::::::::::::::::
         :: total energy             -12.416148438865 Eh    ::
         :: gradient norm              0.001780908948 Eh/a0 ::
         :: HOMO-LUMO gap              1.048437888557 eV    ::
         ::.................................................::
         :: SCC energy               -12.470654023670 Eh    ::
         :: -> isotropic ES            0.220170094925 Eh    ::
         :: -> anisotropic ES         -0.006243771017 Eh    ::
         :: -> anisotropic XC         -0.003168126359 Eh    ::
         :: -> dispersion             -0.002579239381 Eh    ::
         :: repulsion energy           0.054505584805 Eh    ::
         :: add. restraining           0.000000000000 Eh    ::
         :: total charge              -0.999999999874 e     ::
         :::::::::::::::::::::::::::::::::::::::::::::::::::::


Property printout bound to 'properties.out'

           -------------------------------------------------
          | TOTAL ENERGY              -12.416148438865 Eh   |
          | GRADIENT NORM               0.001780908948 Eh/α |
          | HOMO-LUMO GAP               1.048437888557 eV   |
           -------------------------------------------------

------------------------------------------------------------------------
 * finished run on 2026/03/16 at 14:15:32.547     
------------------------------------------------------------------------
 total:
 * wall-time:     0 d,  0 h,  0 min,  0.271 sec
 *  cpu-time:     0 d,  0 h,  0 min,  0.315 sec
 * ratio c/w:     1.165 speedup
 SCF:
 * wall-time:     0 d,  0 h,  0 min,  0.089 sec
 *  cpu-time:     0 d,  0 h,  0 min,  0.207 sec
 * ratio c/w:     2.321 speedup


-------------------------   --------------------
FINAL SINGLE POINT ENERGY       -12.416148438870
-------------------------   --------------------


-------------
DIPOLE MOMENT
-------------
                                X             Y             Z
Total Dipole Moment    :      0.10400      -1.88600      -1.12600
                        -----------------------------------------
Magnitude (a.u.)       :      2.19902
Magnitude (Debye)      :      5.58946


------------------
CARTESIAN GRADIENT
------------------

   1   C   :   -0.000004740    0.000550257    0.000413309
   2   H   :    0.000030294   -0.000619474   -0.000210297
   3   H   :    0.000213340   -0.000203058   -0.000433063
   4   H   :   -0.000214644   -0.000246397   -0.000435176
   5   F   :   -0.000032367    0.000664017    0.001044738
   6   I   :    0.000008118   -0.000145346   -0.000379511

Difference to translation invariance:
           :   -0.0000000000    0.0000000000   -0.0000000000

Difference to rotation invariance:
           :    0.0000000035    0.0000000002   -0.0000000000

Norm of the Cartesian gradient     ...    0.0017809089
RMS gradient                       ...    0.0004197643
MAX gradient                       ...    0.0010447382
------------------------------------------------------------------------------
                         ORCA GEOMETRY RELAXATION STEP
------------------------------------------------------------------------------

Reading the OPT-File                    .... done
Getting information on internals        .... done
Copying old internal coords+grads       .... done
Making the new internal coordinates     .... (2022 redundants) done
Validating the new internal coordinates .... (2022 redundants) done
Calculating the B-matrix                .... done
Calculating the G,G- and P matrices     .... done
Transforming gradient to internals      .... done
Projecting the internal gradient        .... done
Number of atoms                         ....   6
Number of internal coordinates          ....  15
Current Energy                          ....   -12.416148439 Eh
Current gradient norm                   ....     0.001780909 Eh/bohr
Maximum allowed component of the step   ....  0.300
Current trust radius                    ....  0.300
Evaluating the initial hessian          ....  (Almloef) done
Projecting the Hessian                  .... done
Forming the augmented Hessian           .... done
Diagonalizing the augmented Hessian     .... done
Last element of RFO vector              ....  0.999409942
Lowest eigenvalues of augmented Hessian:
 -0.000051884  0.035795119  0.099486777  0.115776205  0.204163168
Length of the computed step             ....  0.034368019
The final length of the internal step   ....  0.034368019
Converting the step to Cartesian space:
 Initial RMS(Int)=    0.0088737844
Transforming coordinates:
 Iter   0:  RMS(Cart)=    0.0085879212 RMS(Int)=    0.0088716065
done
Storing new coordinates                 .... done

                                .--------------------.
          ----------------------|Geometry convergence|-------------------------
          Item                value                   Tolerance       Converged
          ---------------------------------------------------------------------
          RMS gradient        0.0005371051            0.0001000000      NO
          MAX gradient        0.0012054081            0.0003000000      NO
          RMS step            0.0088737844            0.0020000000      NO
          MAX step            0.0336645728            0.0040000000      NO
          -------------------------------------------------------------------------
          ........................................................
          Max(Bonds)      0.0178      Max(Angles)    0.25
          Max(Dihed)        0.03      Max(Improp)    0.00
          ---------------------------------------------------------------------

The optimization has not yet converged - more geometry cycles are needed


    ---------------------------------------------------------------------------
                         Redundant Internal Coordinates
                            (Angstroem and degrees)

        Definition                    Value    dE/dq     Step     New-Value
    ----------------------------------------------------------------------------
     1. B(H   1,C   0)                1.1124  0.000669 -0.0011    1.1114   
     2. B(H   2,C   0)                1.0854  0.000277 -0.0004    1.0850   
     3. B(H   3,C   0)                1.0855  0.000309 -0.0004    1.0850   
     4. B(F   4,H   1)                1.6687  0.001205 -0.0178    1.6509   
     5. B(I   5,C   0)                2.1789  0.000281 -0.0013    2.1776   
     6. A(H   1,C   0,H   3)          110.41  0.000368   -0.08    110.34   
     7. A(H   1,C   0,H   2)          110.41  0.000361   -0.07    110.33   
     8. A(H   1,C   0,I   5)          114.94  0.000580   -0.11    114.82   
     9. A(H   2,C   0,I   5)          105.62 -0.000592    0.12    105.74   
    10. A(H   3,C   0,I   5)          105.62 -0.000593    0.12    105.74   
    11. A(H   2,C   0,H   3)          109.60 -0.000223    0.03    109.63   
    12. A(C   0,H   1,F   4)          159.37  0.000894   -0.25    159.12   
    13. D(F   4,H   1,C   0,H   3)     60.74  0.000102   -0.03     60.71   
    14. D(F   4,H   1,C   0,I   5)   -179.93  0.000003   -0.00   -179.93   
    15. D(F   4,H   1,C   0,H   2)    -60.61 -0.000101    0.03    -60.58   
    ----------------------------------------------------------------------------

Geometry step timings:
Preparation and reading OPT file:      0.000 s ( 2.643 %)
Internal coordinates            :      0.000 s ( 3.503 %)
B/P matrices and projection     :      0.000 s ( 9.957 %)
Hessian update/contruction      :      0.001 s (37.124 %)
Making the step                 :      0.000 s ( 9.896 %)
Converting the step to Cartesian:      0.000 s ( 4.118 %)
Storing new data                :      0.000 s ( 6.085 %)
Checking convergence            :      0.000 s ( 5.900 %)
Final printing                  :      0.000 s (20.529 %)
Total time                      :      0.002 s

Time for energy+gradient        :      0.287 s
Time for complete geometry iter :      0.291 s

         *************************************************************
         *                GEOMETRY OPTIMIZATION CYCLE   2            *
         *************************************************************
---------------------------------
CARTESIAN COORDINATES (ANGSTROEM)
---------------------------------
  C     0.026491   -0.484991   -0.268475
  H    -0.012245    0.227554    0.583544
  H     0.946818   -1.058897   -0.238486
  H    -0.824005   -1.157972   -0.236190
  F    -0.039653    0.766266    2.143847
  I    -0.027926    0.441607   -2.238347

----------------------------
CARTESIAN COORDINATES (A.U.)
----------------------------
  NO LB    ZA    FRAG    MASS        X           Y           Z
   0 C   6.0000    0    12.011    0.050060   -0.916501   -0.507344
   1 H   1.0000    0     1.008   -0.023141    0.430015    1.102739
   2 H   1.0000    0     1.008    1.789226   -2.001025   -0.450673
   3 H   1.0000    0     1.008   -1.557144   -2.188249   -0.446334
   4 F   9.0000    0    18.998   -0.074932    1.448033    4.051284
   5 I  53.0000    0   126.900   -0.052773    0.834516   -4.229863

      -----------------------------------------------------------      
     |                   =====================                   |     
     |                           x T B                           |     
     |                   =====================                   |     
     |                         S. Grimme                         |     
     |          Mulliken Center for Theoretical Chemistry        |     
     |                    University of Bonn                     |     
      -----------------------------------------------------------      

   * xtb version 6.7.1 (edcfbbe) compiled by 'albert@albert-system' on 2024-07-22

   xtb is free software: you can redistribute it and/or modify it under
   the terms of the GNU Lesser General Public License as published by
   the Free Software Foundation, either version 3 of the License, or
   (at your option) any later version.
   
   xtb is distributed in the hope that it will be useful,
   but WITHOUT ANY WARRANTY; without even the implied warranty of
   MERCHANTABILITY or FITNESS FOR A PARTICULAR PURPOSE.  See the
   GNU Lesser General Public License for more details.
   
   Cite this work as:
   * C. Bannwarth, E. Caldeweyher, S. Ehlert, A. Hansen, P. Pracht,
     J. Seibert, S. Spicher, S. Grimme, WIREs Comput. Mol. Sci., 2020, 11,
     e01493. DOI: 10.1002/wcms.1493
   
   for GFN2-xTB:
   * C. Bannwarth, S. Ehlert and S. Grimme., J. Chem. Theory Comput., 2019,
     15, 1652-1671. DOI: 10.1021/acs.jctc.8b01176
   for GFN1-xTB:
   * S. Grimme, C. Bannwarth, P. Shushkov, J. Chem. Theory Comput., 2017,
     13, 1989-2009. DOI: 10.1021/acs.jctc.7b00118
   for GFN0-xTB:
   * P. Pracht, E. Caldeweyher, S. Ehlert, S. Grimme, ChemRxiv, 2019, preprint.
     DOI: 10.26434/chemrxiv.8326202.v1
   for GFN-FF:
   * S. Spicher and S. Grimme, Angew. Chem. Int. Ed., 2020, 59, 15665-15673.
     DOI: 10.1002/anie.202004239
   
   for ALPB and GBSA implicit solvation:
   * S. Ehlert, M. Stahn, S. Spicher, S. Grimme, J. Chem. Theory Comput.,
     2021, 17, 4250-4261. DOI: 10.1021/acs.jctc.1c00471
   
   for ddCOSMO and CPCM-X implicit solvation:
   * M. Stahn, S. Ehlert, S. Grimme, J. Phys. Chem. A,
     2023, XX, XXXX-XXXX. DOI: 10.1021/acs.jpca.3c04382
   
   for DFT-D4:
   * E. Caldeweyher, C. Bannwarth and S. Grimme, J. Chem. Phys., 2017,
     147, 034112. DOI: 10.1063/1.4993215
   * E. Caldeweyher, S. Ehlert, A. Hansen, H. Neugebauer, S. Spicher,
     C. Bannwarth and S. Grimme, J. Chem. Phys., 2019, 150, 154122.
     DOI: 10.1063/1.5090222
   * E. Caldeweyher, J.-M. Mewes, S. Ehlert and S. Grimme, Phys. Chem. Chem. Phys.
     2020, 22, 8499-8512. DOI: 10.1039/D0CP00502A
   
   for sTDA-xTB:
   * S. Grimme and C. Bannwarth, J. Chem. Phys., 2016, 145, 054103.
     DOI: 10.1063/1.4959605
   
   in the mass-spec context:
   * V. Asgeirsson, C. Bauer and S. Grimme, Chem. Sci., 2017, 8, 4879.
     DOI: 10.1039/c7sc00601b
   * J. Koopman and S. Grimme, ACS Omega 2019, 4, 12, 15120-15133.
     DOI: 10.1021/acsomega.9b02011
   
   for metadynamics refer to:
   * S. Grimme, J. Chem. Theory Comput., 2019, 155, 2847-2862
     DOI: 10.1021/acs.jctc.9b00143
   
   for SPH calculations refer to:
   * S. Spicher and S. Grimme, J. Chem. Theory Comput., 2021, 17, 1701-1714
     DOI: 10.1021/acs.jctc.0c01306
   
   for ONIOM refer to:
   * C. Plett, A. Katbashev, S. Ehlert, S. Grimme, M. Bursch,
     Phys. Chem. Chem. Phys., 2023, 25, 17860-17868. DOI: 10.1039/D3CP02178E
   
   for DIPRO refer to:
   * J. Kohn, N. Gildemeister, S. Grimme, D. Fazzi, A. Hansen,
     J. Chem. Phys., 2023, just accepted.
   
   for PTB refer to:
   * S. Grimme, M. Mueller, A. Hansen, J. Chem. Phys., 2023, 158, 124111.
     DOI: 10.1063/5.0137838
   
   with help from (in alphabetical order)
   P. Atkinson, C. Bannwarth, F. Bohle, G. Brandenburg, E. Caldeweyher
   M. Checinski, S. Dohm, S. Ehlert, S. Ehrlich, I. Gerasimov, C. Hölzer
   A. Katbashev, J. Kohn, J. Koopman, C. Lavigne, S. Lehtola, F. März, M. Müller,
   F. Musil, H. Neugebauer, J. Pisarek, C. Plett, P. Pracht, F. Pultar,
   J. Seibert, P. Shushkov, S. Spicher, M. Stahn, M. Steiner, T. Strunk,
   J. Stückrath, T. Rose, and J. Unsleber
   
 * started run on 2026/03/16 at 14:15:32.567     
   ID    Z sym.   atoms
    1    6 C      1
    2    1 H      2-4
    3    9 F      5
    4   53 I      6

           -------------------------------------------------
          |                Calculation Setup                |
           -------------------------------------------------

          program call               : /software/orca-6.1.0-el8-x86_64/bin/otool_xtb reactant_optfreq_XTB.xyz --grad -c -1 -u 0 -P 8 --namespace reactant_optfreq --input reactant_optfreq_XTB.input.tmp --acc 0.200000
          hostname                   : midway3-login4.rcc.local
          calculation namespace      : reactant_optfreq
          coordinate file            : reactant_optfreq_XTB.xyz
          omp threads                :                     8


molecular fragmentation (1/2 indicates fragments):
111121
# atoms in fragment 1/2:     5     1
 fragment masses (1/2) :      141.94       19.00
CMA distance (Bohr)    :   7.916
constraining FC (au)   :  0.0500

           -------------------------------------------------
          |                 G F N 2 - x T B                 |
           -------------------------------------------------

        Reference                      10.1021/acs.jctc.8b01176
      * Hamiltonian:
        H0-scaling (s, p, d)           1.850000    2.230000    2.230000
        zeta-weighting                 0.500000
      * Dispersion:
        s8                             2.700000
        a1                             0.520000
        a2                             5.000000
        s9                             5.000000
      * Repulsion:
        kExp                           1.500000    1.000000
        rExp                           1.000000
      * Coulomb:
        alpha                          2.000000
        third order                    shell-resolved
        anisotropic                    true
        a3                             3.000000
        a5                             4.000000
        cn-shift                       1.200000
        cn-exp                         4.000000
        max-rad                        5.000000

q/qsh data taken from xtbrestart
CAMM data taken from xtbrestart

          ...................................................
          :                      SETUP                      :
          :.................................................:
          :  # basis functions                  21          :
          :  # atomic orbitals                  20          :
          :  # shells                           10          :
          :  # electrons                        22          :
          :  max. iterations                   250          :
          :  Hamiltonian                  GFN2-xTB          :
          :  restarted?                       true          :
          :  GBSA solvation                  false          :
          :  PC potential                    false          :
          :  electronic temp.          300.0000000     K    :
          :  accuracy                    0.2000000          :
          :  -> integral cutoff          0.3198970E+02      :
          :  -> integral neglect         0.2000000E-08      :
          :  -> SCF convergence          0.2000000E-06 Eh   :
          :  -> wf. convergence          0.2000000E-04 e    :
          :  Broyden damping             0.4000000          :
          :  net charge                         -1          :
          :  unpaired electrons                  0          :
          ...................................................

 iter      E             dE          RMSdq      gap      omega  full diag
   1    -12.4709608 -0.124710E+02  0.520E-02    1.08       0.0  T
   2    -12.4709644 -0.362063E-05  0.216E-02    1.11       1.9  T
   3    -12.4709647 -0.294656E-06  0.127E-02    1.10       3.2  T
   4    -12.4709648 -0.371472E-07  0.586E-03    1.10       7.0  T
   5    -12.4709648 -0.412611E-07  0.162E-03    1.10      25.2  T
   6    -12.4709648 -0.570635E-09  0.576E-04    1.10      70.9  T
   7    -12.4709648 -0.999822E-10  0.270E-04    1.10     151.3  T
   8    -12.4709648 -0.514166E-10  0.639E-05    1.10     638.7  T
   9    -12.4709648 -0.647482E-11  0.222E-05    1.10    1842.1  T

   *** convergence criteria satisfied after 9 iterations ***

         #    Occupation            Energy/Eh            Energy/eV
      -------------------------------------------------------------
         1        2.0000           -0.5852877             -15.9265
       ...           ...                  ...                  ...
         5        2.0000           -0.3235198              -8.8034
         6        2.0000           -0.3142856              -8.5521
         7        2.0000           -0.2599973              -7.0749
         8        2.0000           -0.2569682              -6.9925
         9        2.0000           -0.1173394              -3.1930
        10        2.0000           -0.1147537              -3.1226
        11        2.0000           -0.1147269              -3.1219 (HOMO)
        12                         -0.0742380              -2.0201 (LUMO)
        13                          0.1815223               4.9395
        14                          0.1830235               4.9803
        15                          0.2115064               5.7554
        16                          0.2120647               5.7706
       ...                                ...                  ...
        20                          0.5065954              13.7852
      -------------------------------------------------------------
                  HL-Gap            0.0404889 Eh            1.1018 eV
             Fermi-level           -0.0941582 Eh           -2.5622 eV

 SCC (total)                   0 d,  0 h,  0 min,  0.159 sec
 SCC setup                      ...        0 min,  0.000 sec (  0.169%)
 Dispersion                     ...        0 min,  0.000 sec (  0.098%)
 classical contributions        ...        0 min,  0.000 sec (  0.069%)
 integral evaluation            ...        0 min,  0.081 sec ( 50.885%)
 iterations                     ...        0 min,  0.002 sec (  1.018%)
 molecular gradient             ...        0 min,  0.076 sec ( 47.588%)
 printout                       ...        0 min,  0.000 sec (  0.159%)

         :::::::::::::::::::::::::::::::::::::::::::::::::::::
         ::                     SUMMARY                     ::
         :::::::::::::::::::::::::::::::::::::::::::::::::::::
         :: total energy             -12.416177247591 Eh    ::
         :: gradient norm              0.002011516421 Eh/a0 ::
         :: HOMO-LUMO gap              1.101759557750 eV    ::
         ::.................................................::
         :: SCC energy               -12.470964522964 Eh    ::
         :: -> isotropic ES            0.219636781449 Eh    ::
         :: -> anisotropic ES         -0.006211388695 Eh    ::
         :: -> anisotropic XC         -0.003204193004 Eh    ::
         :: -> dispersion             -0.002587947322 Eh    ::
         :: repulsion energy           0.054787275373 Eh    ::
         :: add. restraining           0.000000000000 Eh    ::
         :: total charge              -0.999999998846 e     ::
         :::::::::::::::::::::::::::::::::::::::::::::::::::::


Property printout bound to 'properties.out'

           -------------------------------------------------
          | TOTAL ENERGY              -12.416177247591 Eh   |
          | GRADIENT NORM               0.002011516421 Eh/α |
          | HOMO-LUMO GAP               1.101759557750 eV   |
           -------------------------------------------------

------------------------------------------------------------------------
 * finished run on 2026/03/16 at 14:15:32.752     
------------------------------------------------------------------------
 total:
 * wall-time:     0 d,  0 h,  0 min,  0.185 sec
 *  cpu-time:     0 d,  0 h,  0 min,  0.316 sec
 * ratio c/w:     1.707 speedup
 SCF:
 * wall-time:     0 d,  0 h,  0 min,  0.159 sec
 *  cpu-time:     0 d,  0 h,  0 min,  0.235 sec
 * ratio c/w:     1.477 speedup


-------------------------   --------------------
FINAL SINGLE POINT ENERGY       -12.416177247590
-------------------------   --------------------


-------------
DIPOLE MOMENT
-------------
                                X             Y             Z
Total Dipole Moment    :      0.10300      -1.87200      -1.09600
                        -----------------------------------------
Magnitude (a.u.)       :      2.17168
Magnitude (Debye)      :      5.51998


------------------
CARTESIAN GRADIENT
------------------

   1   C   :   -0.000040320    0.000850204    0.001253372
   2   H   :    0.000051263   -0.001041433   -0.000712069
   3   H   :   -0.000006091    0.000027317   -0.000225952
   4   H   :   -0.000000488    0.000025717   -0.000228058
   5   F   :   -0.000007734    0.000195620    0.000013692
   6   I   :    0.000003370   -0.000057425   -0.000100984

Difference to translation invariance:
           :    0.0000000000   -0.0000000000    0.0000000000

Difference to rotation invariance:
           :   -0.0000000257   -0.0000000016    0.0000000000

Norm of the Cartesian gradient     ...    0.0020115164
RMS gradient                       ...    0.0004741190
MAX gradient                       ...    0.0012533723
------------------------------------------------------------------------------
                         ORCA GEOMETRY RELAXATION STEP
------------------------------------------------------------------------------

Reading the OPT-File                    .... done
Getting information on internals        .... done
Copying old internal coords+grads       .... done
Making the new internal coordinates     .... (2022 redundants) done
Validating the new internal coordinates .... (2022 redundants) done
Calculating the B-matrix                .... done
Calculating the G,G- and P matrices     .... done
Transforming gradient to internals      .... done
Projecting the internal gradient        .... done
Number of atoms                         ....   6
Number of internal coordinates          ....  15
Current Energy                          ....   -12.416177248 Eh
Current gradient norm                   ....     0.002011516 Eh/bohr
Maximum allowed component of the step   ....  0.300
Current trust radius                    ....  0.300
Updating the Hessian (BFGS)             .... done
Forming the augmented Hessian           .... done
Diagonalizing the augmented Hessian     .... done
Last element of RFO vector              ....  0.999959958
Lowest eigenvalues of augmented Hessian:
 -0.000007540  0.031136138  0.099486697  0.114982120  0.188976927
Length of the computed step             ....  0.008949246
The final length of the internal step   ....  0.008949246
Converting the step to Cartesian space:
 Initial RMS(Int)=    0.0023106855
Transforming coordinates:
 Iter   0:  RMS(Cart)=    0.0021339563 RMS(Int)=    0.0023090530
done
Storing new coordinates                 .... done
The predicted energy change is          ....    -0.000003770
Previously predicted energy change      ....    -0.000025973
Actually observed energy change         ....    -0.000028809
Ratio of predicted to observed change   ....     1.109187259
New trust radius                        ....     0.450000000

                                .--------------------.
          ----------------------|Geometry convergence|-------------------------
          Item                value                   Tolerance       Converged
          ---------------------------------------------------------------------
          Energy change      -0.0000288087            0.0000050000      NO
          RMS gradient        0.0003406659            0.0001000000      NO
          MAX gradient        0.0010792003            0.0003000000      NO
          RMS step            0.0023106855            0.0020000000      NO
          MAX step            0.0069224101            0.0040000000      NO
          -------------------------------------------------------------------------
          ........................................................
          Max(Bonds)      0.0037      Max(Angles)    0.21
          Max(Dihed)        0.04      Max(Improp)    0.00
          ---------------------------------------------------------------------

The optimization has not yet converged - more geometry cycles are needed


    ---------------------------------------------------------------------------
                         Redundant Internal Coordinates
                            (Angstroem and degrees)

        Definition                    Value    dE/dq     Step     New-Value
    ----------------------------------------------------------------------------
     1. B(H   1,C   0)                1.1114 -0.001079  0.0018    1.1131   
     2. B(H   2,C   0)                1.0850 -0.000026 -0.0000    1.0850   
     3. B(H   3,C   0)                1.0850 -0.000022 -0.0000    1.0850   
     4. B(F   4,H   1)                1.6509  0.000077 -0.0037    1.6472   
     5. B(I   5,C   0)                2.1776  0.000067 -0.0005    2.1771   
     6. A(H   1,C   0,H   3)          110.34  0.000198   -0.06    110.28   
     7. A(H   1,C   0,H   2)          110.33  0.000195   -0.06    110.28   
     8. A(H   1,C   0,I   5)          114.82  0.000120   -0.04    114.79   
     9. A(H   2,C   0,I   5)          105.74 -0.000257    0.08    105.82   
    10. A(H   3,C   0,I   5)          105.74 -0.000257    0.08    105.82   
    11. A(H   2,C   0,H   3)          109.63 -0.000036    0.00    109.63   
    12. A(C   0,H   1,F   4)          159.12  0.000563   -0.21    158.91   
    13. D(F   4,H   1,C   0,H   3)     60.71  0.000108   -0.04     60.68   
    14. D(F   4,H   1,C   0,I   5)   -179.93  0.000002   -0.00   -179.94   
    15. D(F   4,H   1,C   0,H   2)    -60.58 -0.000106    0.03    -60.55   
    ----------------------------------------------------------------------------

Geometry step timings:
Preparation and reading OPT file:      0.000 s ( 2.840 %)
Internal coordinates            :      0.000 s ( 3.922 %)
B/P matrices and projection     :      0.000 s (11.021 %)
Hessian update/contruction      :      0.000 s (30.088 %)
Making the step                 :      0.000 s ( 7.978 %)
Converting the step to Cartesian:      0.000 s ( 3.245 %)
Storing new data                :      0.000 s ( 7.167 %)
Checking convergence            :      0.000 s ( 8.519 %)
Final printing                  :      0.000 s (25.220 %)
Total time                      :      0.001 s

Time for energy+gradient        :      0.196 s
Time for complete geometry iter :      0.200 s

         *************************************************************
         *                GEOMETRY OPTIMIZATION CYCLE   3            *
         *************************************************************
---------------------------------
CARTESIAN COORDINATES (ANGSTROEM)
---------------------------------
  C     0.026473   -0.484649   -0.268993
  H    -0.012374    0.229858    0.583677
  H     0.946793   -1.058442   -0.237165
  H    -0.824021   -1.157501   -0.234859
  F    -0.039492    0.763230    2.141947
  I    -0.027900    0.441071   -2.238713

----------------------------
CARTESIAN COORDINATES (A.U.)
----------------------------
  NO LB    ZA    FRAG    MASS        X           Y           Z
   0 C   6.0000    0    12.011    0.050026   -0.915854   -0.508323
   1 H   1.0000    0     1.008   -0.023384    0.434369    1.102990
   2 H   1.0000    0     1.008    1.789180   -2.000166   -0.448177
   3 H   1.0000    0     1.008   -1.557174   -2.187360   -0.443819
   4 F   9.0000    0    18.998   -0.074629    1.442296    4.047693
   5 I  53.0000    0   126.900   -0.052722    0.833503   -4.230555

      -----------------------------------------------------------      
     |                   =====================                   |     
     |                           x T B                           |     
     |                   =====================                   |     
     |                         S. Grimme                         |     
     |          Mulliken Center for Theoretical Chemistry        |     
     |                    University of Bonn                     |     
      -----------------------------------------------------------      

   * xtb version 6.7.1 (edcfbbe) compiled by 'albert@albert-system' on 2024-07-22

   xtb is free software: you can redistribute it and/or modify it under
   the terms of the GNU Lesser General Public License as published by
   the Free Software Foundation, either version 3 of the License, or
   (at your option) any later version.
   
   xtb is distributed in the hope that it will be useful,
   but WITHOUT ANY WARRANTY; without even the implied warranty of
   MERCHANTABILITY or FITNESS FOR A PARTICULAR PURPOSE.  See the
   GNU Lesser General Public License for more details.
   
   Cite this work as:
   * C. Bannwarth, E. Caldeweyher, S. Ehlert, A. Hansen, P. Pracht,
     J. Seibert, S. Spicher, S. Grimme, WIREs Comput. Mol. Sci., 2020, 11,
     e01493. DOI: 10.1002/wcms.1493
   
   for GFN2-xTB:
   * C. Bannwarth, S. Ehlert and S. Grimme., J. Chem. Theory Comput., 2019,
     15, 1652-1671. DOI: 10.1021/acs.jctc.8b01176
   for GFN1-xTB:
   * S. Grimme, C. Bannwarth, P. Shushkov, J. Chem. Theory Comput., 2017,
     13, 1989-2009. DOI: 10.1021/acs.jctc.7b00118
   for GFN0-xTB:
   * P. Pracht, E. Caldeweyher, S. Ehlert, S. Grimme, ChemRxiv, 2019, preprint.
     DOI: 10.26434/chemrxiv.8326202.v1
   for GFN-FF:
   * S. Spicher and S. Grimme, Angew. Chem. Int. Ed., 2020, 59, 15665-15673.
     DOI: 10.1002/anie.202004239
   
   for ALPB and GBSA implicit solvation:
   * S. Ehlert, M. Stahn, S. Spicher, S. Grimme, J. Chem. Theory Comput.,
     2021, 17, 4250-4261. DOI: 10.1021/acs.jctc.1c00471
   
   for ddCOSMO and CPCM-X implicit solvation:
   * M. Stahn, S. Ehlert, S. Grimme, J. Phys. Chem. A,
     2023, XX, XXXX-XXXX. DOI: 10.1021/acs.jpca.3c04382
   
   for DFT-D4:
   * E. Caldeweyher, C. Bannwarth and S. Grimme, J. Chem. Phys., 2017,
     147, 034112. DOI: 10.1063/1.4993215
   * E. Caldeweyher, S. Ehlert, A. Hansen, H. Neugebauer, S. Spicher,
     C. Bannwarth and S. Grimme, J. Chem. Phys., 2019, 150, 154122.
     DOI: 10.1063/1.5090222
   * E. Caldeweyher, J.-M. Mewes, S. Ehlert and S. Grimme, Phys. Chem. Chem. Phys.
     2020, 22, 8499-8512. DOI: 10.1039/D0CP00502A
   
   for sTDA-xTB:
   * S. Grimme and C. Bannwarth, J. Chem. Phys., 2016, 145, 054103.
     DOI: 10.1063/1.4959605
   
   in the mass-spec context:
   * V. Asgeirsson, C. Bauer and S. Grimme, Chem. Sci., 2017, 8, 4879.
     DOI: 10.1039/c7sc00601b
   * J. Koopman and S. Grimme, ACS Omega 2019, 4, 12, 15120-15133.
     DOI: 10.1021/acsomega.9b02011
   
   for metadynamics refer to:
   * S. Grimme, J. Chem. Theory Comput., 2019, 155, 2847-2862
     DOI: 10.1021/acs.jctc.9b00143
   
   for SPH calculations refer to:
   * S. Spicher and S. Grimme, J. Chem. Theory Comput., 2021, 17, 1701-1714
     DOI: 10.1021/acs.jctc.0c01306
   
   for ONIOM refer to:
   * C. Plett, A. Katbashev, S. Ehlert, S. Grimme, M. Bursch,
     Phys. Chem. Chem. Phys., 2023, 25, 17860-17868. DOI: 10.1039/D3CP02178E
   
   for DIPRO refer to:
   * J. Kohn, N. Gildemeister, S. Grimme, D. Fazzi, A. Hansen,
     J. Chem. Phys., 2023, just accepted.
   
   for PTB refer to:
   * S. Grimme, M. Mueller, A. Hansen, J. Chem. Phys., 2023, 158, 124111.
     DOI: 10.1063/5.0137838
   
   with help from (in alphabetical order)
   P. Atkinson, C. Bannwarth, F. Bohle, G. Brandenburg, E. Caldeweyher
   M. Checinski, S. Dohm, S. Ehlert, S. Ehrlich, I. Gerasimov, C. Hölzer
   A. Katbashev, J. Kohn, J. Koopman, C. Lavigne, S. Lehtola, F. März, M. Müller,
   F. Musil, H. Neugebauer, J. Pisarek, C. Plett, P. Pracht, F. Pultar,
   J. Seibert, P. Shushkov, S. Spicher, M. Stahn, M. Steiner, T. Strunk,
   J. Stückrath, T. Rose, and J. Unsleber
   
 * started run on 2026/03/16 at 14:15:32.766     
   ID    Z sym.   atoms
    1    6 C      1
    2    1 H      2-4
    3    9 F      5
    4   53 I      6

           -------------------------------------------------
          |                Calculation Setup                |
           -------------------------------------------------

          program call               : /software/orca-6.1.0-el8-x86_64/bin/otool_xtb reactant_optfreq_XTB.xyz --grad -c -1 -u 0 -P 8 --namespace reactant_optfreq --input reactant_optfreq_XTB.input.tmp --acc 0.200000
          hostname                   : midway3-login4.rcc.local
          calculation namespace      : reactant_optfreq
          coordinate file            : reactant_optfreq_XTB.xyz
          omp threads                :                     8


molecular fragmentation (1/2 indicates fragments):
111121
# atoms in fragment 1/2:     5     1
 fragment masses (1/2) :      141.94       19.00
CMA distance (Bohr)    :   7.912
constraining FC (au)   :  0.0500

           -------------------------------------------------
          |                 G F N 2 - x T B                 |
           -------------------------------------------------

        Reference                      10.1021/acs.jctc.8b01176
      * Hamiltonian:
        H0-scaling (s, p, d)           1.850000    2.230000    2.230000
        zeta-weighting                 0.500000
      * Dispersion:
        s8                             2.700000
        a1                             0.520000
        a2                             5.000000
        s9                             5.000000
      * Repulsion:
        kExp                           1.500000    1.000000
        rExp                           1.000000
      * Coulomb:
        alpha                          2.000000
        third order                    shell-resolved
        anisotropic                    true
        a3                             3.000000
        a5                             4.000000
        cn-shift                       1.200000
        cn-exp                         4.000000
        max-rad                        5.000000

q/qsh data taken from xtbrestart
CAMM data taken from xtbrestart

          ...................................................
          :                      SETUP                      :
          :.................................................:
          :  # basis functions                  21          :
          :  # atomic orbitals                  20          :
          :  # shells                           10          :
          :  # electrons                        22          :
          :  max. iterations                   250          :
          :  Hamiltonian                  GFN2-xTB          :
          :  restarted?                       true          :
          :  GBSA solvation                  false          :
          :  PC potential                    false          :
          :  electronic temp.          300.0000000     K    :
          :  accuracy                    0.2000000          :
          :  -> integral cutoff          0.3198970E+02      :
          :  -> integral neglect         0.2000000E-08      :
          :  -> SCF convergence          0.2000000E-06 Eh   :
          :  -> wf. convergence          0.2000000E-04 e    :
          :  Broyden damping             0.4000000          :
          :  net charge                         -1          :
          :  unpaired electrons                  0          :
          ...................................................

 iter      E             dE          RMSdq      gap      omega  full diag
   1    -12.4708013 -0.124708E+02  0.178E-02    1.11       0.0  T
   2    -12.4708017 -0.349979E-06  0.867E-03    1.12       4.7  T
   3    -12.4708017 -0.203512E-07  0.389E-03    1.11      10.5  T
   4    -12.4708017 -0.243390E-07  0.251E-03    1.12      16.2  T
   5    -12.4708017 -0.173059E-08  0.840E-04    1.12      48.6  T
   6    -12.4708017 -0.271246E-09  0.378E-04    1.12     107.9  T
   7    -12.4708017 -0.604636E-10  0.151E-04    1.12     269.8  T
   8    -12.4708017 -0.403944E-11  0.197E-05    1.12    2071.5  T

   *** convergence criteria satisfied after 8 iterations ***

         #    Occupation            Energy/Eh            Energy/eV
      -------------------------------------------------------------
         1        2.0000           -0.5851648             -15.9231
       ...           ...                  ...                  ...
         5        2.0000           -0.3233879              -8.7998
         6        2.0000           -0.3138652              -8.5407
         7        2.0000           -0.2598795              -7.0717
         8        2.0000           -0.2568044              -6.9880
         9        2.0000           -0.1175338              -3.1983
        10        2.0000           -0.1149568              -3.1281
        11        2.0000           -0.1149293              -3.1274 (HOMO)
        12                         -0.0739218              -2.0115 (LUMO)
        13                          0.1816657               4.9434
        14                          0.1831273               4.9831
        15                          0.2116893               5.7604
        16                          0.2122009               5.7743
       ...                                ...                  ...
        20                          0.5071668              13.8007
      -------------------------------------------------------------
                  HL-Gap            0.0410075 Eh            1.1159 eV
             Fermi-level           -0.0941014 Eh           -2.5606 eV

 SCC (total)                   0 d,  0 h,  0 min,  0.088 sec
 SCC setup                      ...        0 min,  0.000 sec (  0.234%)
 Dispersion                     ...        0 min,  0.000 sec (  0.083%)
 classical contributions        ...        0 min,  0.000 sec (  0.034%)
 integral evaluation            ...        0 min,  0.086 sec ( 97.269%)
 iterations                     ...        0 min,  0.001 sec (  1.593%)
 molecular gradient             ...        0 min,  0.001 sec (  0.600%)
 printout                       ...        0 min,  0.000 sec (  0.153%)

         :::::::::::::::::::::::::::::::::::::::::::::::::::::
         ::                     SUMMARY                     ::
         :::::::::::::::::::::::::::::::::::::::::::::::::::::
         :: total energy             -12.416182662908 Eh    ::
         :: gradient norm              0.000893761158 Eh/a0 ::
         :: HOMO-LUMO gap              1.115870037211 eV    ::
         ::.................................................::
         :: SCC energy               -12.470801438704 Eh    ::
         :: -> isotropic ES            0.219451841259 Eh    ::
         :: -> anisotropic ES         -0.006176346898 Eh    ::
         :: -> anisotropic XC         -0.003197131326 Eh    ::
         :: -> dispersion             -0.002589118033 Eh    ::
         :: repulsion energy           0.054618775796 Eh    ::
         :: add. restraining           0.000000000000 Eh    ::
         :: total charge              -0.999999999122 e     ::
         :::::::::::::::::::::::::::::::::::::::::::::::::::::


Property printout bound to 'properties.out'

           -------------------------------------------------
          | TOTAL ENERGY              -12.416182662908 Eh   |
          | GRADIENT NORM               0.000893761158 Eh/α |
          | HOMO-LUMO GAP               1.115870037211 eV   |
           -------------------------------------------------

------------------------------------------------------------------------
 * finished run on 2026/03/16 at 14:15:32.950     
------------------------------------------------------------------------
 total:
 * wall-time:     0 d,  0 h,  0 min,  0.183 sec
 *  cpu-time:     0 d,  0 h,  0 min,  0.300 sec
 * ratio c/w:     1.638 speedup
 SCF:
 * wall-time:     0 d,  0 h,  0 min,  0.088 sec
 *  cpu-time:     0 d,  0 h,  0 min,  0.226 sec
 * ratio c/w:     2.553 speedup


-------------------------   --------------------
FINAL SINGLE POINT ENERGY       -12.416182662910
-------------------------   --------------------


-------------
DIPOLE MOMENT
-------------
                                X             Y             Z
Total Dipole Moment    :      0.10200      -1.86500      -1.09200
                        -----------------------------------------
Magnitude (a.u.)       :      2.16358
Magnitude (Debye)      :      5.49939


------------------
CARTESIAN GRADIENT
------------------

   1   C   :   -0.000017980    0.000348431    0.000583838
   2   H   :    0.000020611   -0.000496986   -0.000181635
   3   H   :   -0.000011999    0.000022333   -0.000119972
   4   H   :    0.000011700    0.000026514   -0.000121509
   5   F   :   -0.000002791    0.000104164   -0.000106530
   6   I   :    0.000000459   -0.000004455   -0.000054193

Difference to translation invariance:
           :   -0.0000000000   -0.0000000000    0.0000000000

Difference to rotation invariance:
           :   -0.0000000831   -0.0000000050   -0.0000000000

Norm of the Cartesian gradient     ...    0.0008937612
RMS gradient                       ...    0.0002106615
MAX gradient                       ...    0.0005838384
------------------------------------------------------------------------------
                         ORCA GEOMETRY RELAXATION STEP
------------------------------------------------------------------------------

Reading the OPT-File                    .... done
Getting information on internals        .... done
Copying old internal coords+grads       .... done
Making the new internal coordinates     .... (2022 redundants) done
Validating the new internal coordinates .... (2022 redundants) done
Calculating the B-matrix                .... done
Calculating the G,G- and P matrices     .... done
Transforming gradient to internals      .... done
Projecting the internal gradient        .... done
Number of atoms                         ....   6
Number of internal coordinates          ....  15
Current Energy                          ....   -12.416182663 Eh
Current gradient norm                   ....     0.000893761 Eh/bohr
Maximum allowed component of the step   ....  0.300
Current trust radius                    ....  0.450
Updating the Hessian (BFGS)             .... done
Forming the augmented Hessian           .... done
Diagonalizing the augmented Hessian     .... done
Last element of RFO vector              ....  0.999979457
Lowest eigenvalues of augmented Hessian:
 -0.000003879  0.032995691  0.099470160  0.103090059  0.126767994
Length of the computed step             ....  0.006409937
The final length of the internal step   ....  0.006409937
Converting the step to Cartesian space:
 Initial RMS(Int)=    0.0016550387
Transforming coordinates:
 Iter   0:  RMS(Cart)=    0.0023079778 RMS(Int)=    0.0016539693
done
Storing new coordinates                 .... done
The predicted energy change is          ....    -0.000001940
Previously predicted energy change      ....    -0.000003770
Actually observed energy change         ....    -0.000005415
Ratio of predicted to observed change   ....     1.436381199
New trust radius                        ....     0.450000000

                                .--------------------.
          ----------------------|Geometry convergence|-------------------------
          Item                value                   Tolerance       Converged
          ---------------------------------------------------------------------
          Energy change      -0.0000054153            0.0000050000      NO
          RMS gradient        0.0001766570            0.0001000000      NO
          MAX gradient        0.0004735068            0.0003000000      NO
          RMS step            0.0016550387            0.0020000000      YES
          MAX step            0.0046943081            0.0040000000      NO
          -------------------------------------------------------------------------
          ........................................................
          Max(Bonds)      0.0015      Max(Angles)    0.27
          Max(Dihed)        0.04      Max(Improp)    0.00
          ---------------------------------------------------------------------

The optimization has not yet converged - more geometry cycles are needed


    ---------------------------------------------------------------------------
                         Redundant Internal Coordinates
                            (Angstroem and degrees)

        Definition                    Value    dE/dq     Step     New-Value
    ----------------------------------------------------------------------------
     1. B(H   1,C   0)                1.1131 -0.000474  0.0015    1.1146   
     2. B(H   2,C   0)                1.0850 -0.000026  0.0000    1.0850   
     3. B(H   3,C   0)                1.0850 -0.000029  0.0000    1.0850   
     4. B(F   4,H   1)                1.6472 -0.000067 -0.0009    1.6463   
     5. B(I   5,C   0)                2.1771  0.000047 -0.0006    2.1765   
     6. A(H   1,C   0,H   3)          110.28  0.000118   -0.06    110.22   
     7. A(H   1,C   0,H   2)          110.28  0.000117   -0.06    110.22   
     8. A(H   1,C   0,I   5)          114.79 -0.000010   -0.01    114.78   
     9. A(H   2,C   0,I   5)          105.82 -0.000115    0.07    105.89   
    10. A(H   3,C   0,I   5)          105.82 -0.000116    0.07    105.89   
    11. A(H   2,C   0,H   3)          109.63 -0.000011   -0.00    109.63   
    12. A(C   0,H   1,F   4)          158.91  0.000414   -0.27    158.65   
    13. D(F   4,H   1,C   0,H   3)     60.68  0.000071   -0.04     60.63   
    14. D(F   4,H   1,C   0,I   5)   -179.94  0.000001   -0.00   -179.94   
    15. D(F   4,H   1,C   0,H   2)    -60.55 -0.000069    0.04    -60.51   
    ----------------------------------------------------------------------------

Geometry step timings:
Preparation and reading OPT file:      0.000 s ( 2.533 %)
Internal coordinates            :      0.000 s ( 4.704 %)
B/P matrices and projection     :      0.000 s (11.641 %)
Hessian update/contruction      :      0.000 s (29.674 %)
Making the step                 :      0.000 s ( 8.565 %)
Converting the step to Cartesian:      0.000 s ( 3.016 %)
Storing new data                :      0.000 s ( 7.479 %)
Checking convergence            :      0.000 s ( 8.745 %)
Final printing                  :      0.000 s (23.583 %)
Total time                      :      0.002 s

Time for energy+gradient        :      0.194 s
Time for complete geometry iter :      0.198 s

         *************************************************************
         *                GEOMETRY OPTIMIZATION CYCLE   4            *
         *************************************************************
---------------------------------
CARTESIAN COORDINATES (ANGSTROEM)
---------------------------------
  C     0.026438   -0.483988   -0.269921
  H    -0.012517    0.232453    0.583078
  H     0.946751   -1.057704   -0.235987
  H    -0.824059   -1.156757   -0.233671
  F    -0.039317    0.760004    2.142381
  I    -0.027818    0.439560   -2.239986

----------------------------
CARTESIAN COORDINATES (A.U.)
----------------------------
  NO LB    ZA    FRAG    MASS        X           Y           Z
   0 C   6.0000    0    12.011    0.049961   -0.914605   -0.510077
   1 H   1.0000    0     1.008   -0.023654    0.439272    1.101858
   2 H   1.0000    0     1.008    1.789101   -1.998771   -0.445951
   3 H   1.0000    0     1.008   -1.557245   -2.185955   -0.441574
   4 F   9.0000    0    18.998   -0.074298    1.436200    4.048513
   5 I  53.0000    0   126.900   -0.052568    0.830648   -4.232960

      -----------------------------------------------------------      
     |                   =====================                   |     
     |                           x T B                           |     
     |                   =====================                   |     
     |                         S. Grimme                         |     
     |          Mulliken Center for Theoretical Chemistry        |     
[...]
             Fermi-level           -0.0940476 Eh           -2.5592 eV

 SCC (total)                   0 d,  0 h,  0 min,  0.089 sec
 SCC setup                      ...        0 min,  0.000 sec (  0.324%)
 Dispersion                     ...        0 min,  0.000 sec (  0.064%)
 classical contributions        ...        0 min,  0.000 sec (  0.034%)
 integral evaluation            ...        0 min,  0.087 sec ( 97.719%)
 iterations                     ...        0 min,  0.001 sec (  1.053%)
 molecular gradient             ...        0 min,  0.001 sec (  0.614%)
 printout                       ...        0 min,  0.000 sec (  0.168%)

         :::::::::::::::::::::::::::::::::::::::::::::::::::::
         ::                     SUMMARY                     ::
         :::::::::::::::::::::::::::::::::::::::::::::::::::::
         :: total energy             -12.416185876588 Eh    ::
         :: gradient norm              0.000550112363 Eh/a0 ::
         :: HOMO-LUMO gap              1.123357335697 eV    ::
         ::.................................................::
         :: SCC energy               -12.470647828468 Eh    ::
         :: -> isotropic ES            0.219371910102 Eh    ::
         :: -> anisotropic ES         -0.006158300747 Eh    ::
         :: -> anisotropic XC         -0.003193519499 Eh    ::
         :: -> dispersion             -0.002588499744 Eh    ::
         :: repulsion energy           0.054461951880 Eh    ::
         :: add. restraining           0.000000000000 Eh    ::
         :: total charge              -0.999999999242 e     ::
         :::::::::::::::::::::::::::::::::::::::::::::::::::::

           ------------------------------------------------- 
          |                Numerical Hessian                |
           ------------------------------------------------- 
step length          :   0.00500
SCC accuracy         :   0.30000
Hessian scale factor :   1.00000
frozen atoms in %    :   0.00000    0
RMS gradient         :   0.00055
estimated CPU  time      0.00 min
estimated wall time      0.00 min

writing file <hessian>.

 projected vibrational frequencies (cm⁻¹)
eigval :       -0.00    -0.00    -0.00     0.00     0.00     0.00
eigval :       79.37   261.72   302.14   522.48   884.11   961.02
eigval :     1302.67  1402.08  1441.32  2511.95  3032.17  3039.21

Property printout bound to 'properties.out'
Molecule has the following symmetry elements: (sigma) 
It seems to be the Cs point group

           -------------------------------------------------
          | TOTAL ENERGY              -12.416185876588 Eh   |
          | TOTAL ENTHALPY            -12.374554545397 Eh   |
          | TOTAL FREE ENERGY         -12.410211602051 Eh   |
          | GRADIENT NORM               0.000550110333 Eh/α |
          | HOMO-LUMO GAP               1.123357198528 eV   |
           -------------------------------------------------

------------------------------------------------------------------------
 * finished run on 2026/03/16 at 14:15:33.467     
------------------------------------------------------------------------
 total:
 * wall-time:     0 d,  0 h,  0 min,  0.196 sec
 *  cpu-time:     0 d,  0 h,  0 min,  0.372 sec
 * ratio c/w:     1.900 speedup
 SCF:
 * wall-time:     0 d,  0 h,  0 min,  0.090 sec
 *  cpu-time:     0 d,  0 h,  0 min,  0.170 sec
 * ratio c/w:     1.895 speedup
 analytical hessian:
 * wall-time:     0 d,  0 h,  0 min,  0.014 sec
 *  cpu-time:     0 d,  0 h,  0 min,  0.106 sec
 * ratio c/w:     7.820 speedup


-------------------------   --------------------
FINAL SINGLE POINT ENERGY       -12.416185876590
-------------------------   --------------------


-------------
DIPOLE MOMENT
-------------
                                X             Y             Z
Total Dipole Moment    :      0.10200      -1.85200      -1.09100
                        -----------------------------------------
Magnitude (a.u.)       :      2.15188
Magnitude (Debye)      :      5.46965


-----------------------
VIBRATIONAL FREQUENCIES
-----------------------

Scaling factor for frequencies =  1.000000000  (already applied!)

     0:       0.00 cm**-1
     1:       0.00 cm**-1
     2:       0.00 cm**-1
     3:       0.00 cm**-1
     4:       0.00 cm**-1
     5:       0.00 cm**-1
     6:      79.37 cm**-1
     7:     261.72 cm**-1
     8:     302.13 cm**-1
     9:     522.48 cm**-1
    10:     884.09 cm**-1
    11:     960.99 cm**-1
    12:    1302.64 cm**-1
    13:    1402.04 cm**-1
    14:    1441.28 cm**-1
    15:    2511.87 cm**-1
    16:    3032.09 cm**-1
    17:    3039.12 cm**-1


------------
NORMAL MODES
------------

These modes are the Cartesian displacements weighted by the diagonal matrix
M(i,i)=1/sqrt(m[i]) where m[i] is the mass of the displaced atom
Thus, these vectors are normalized but *not* orthogonal

                  0          1          2          3          4          5    
      0       0.000000   0.000000   0.000000   0.000000   0.000000   0.000000
      1       0.000000   0.000000   0.000000   0.000000   0.000000   0.000000
      2       0.000000   0.000000   0.000000   0.000000   0.000000   0.000000
      3       0.000000   0.000000   0.000000   0.000000   0.000000   0.000000
      4       0.000000   0.000000   0.000000   0.000000   0.000000   0.000000
      5       0.000000   0.000000   0.000000   0.000000   0.000000   0.000000
      6       0.000000   0.000000   0.000000   0.000000   0.000000   0.000000
      7       0.000000   0.000000   0.000000   0.000000   0.000000   0.000000
      8       0.000000   0.000000   0.000000   0.000000   0.000000   0.000000
      9       0.000000   0.000000   0.000000   0.000000   0.000000   0.000000
     10       0.000000   0.000000   0.000000   0.000000   0.000000   0.000000
     11       0.000000   0.000000   0.000000   0.000000   0.000000   0.000000
     12       0.000000   0.000000   0.000000   0.000000   0.000000   0.000000
     13       0.000000   0.000000   0.000000   0.000000   0.000000   0.000000
     14       0.000000   0.000000   0.000000   0.000000   0.000000   0.000000
     15       0.000000   0.000000   0.000000   0.000000   0.000000   0.000000
     16       0.000000   0.000000   0.000000   0.000000   0.000000   0.000000
     17       0.000000   0.000000   0.000000   0.000000   0.000000   0.000000
                  6          7          8          9         10         11    
      0      -0.020866  -0.021211  -0.104353   0.012142  -0.005055  -0.096989
      1       0.378501   0.386648  -0.005675  -0.206942   0.088576  -0.005506
      2       0.151966   0.104349   0.000053   0.542481   0.028061   0.000035
      3      -0.026083  -0.026905  -0.571783   0.007989   0.029951   0.348298
      4       0.467627   0.501378  -0.031703  -0.136260  -0.513546   0.020029
      5       0.043718   0.014669   0.000476   0.476894   0.630639  -0.001108
      6      -0.023634  -0.027675   0.194596   0.028367  -0.041790   0.129179
      7       0.382473   0.378095   0.487935  -0.177844  -0.024007   0.301685
      8       0.259568   0.244738   0.232092   0.413655  -0.403147  -0.571146
      9      -0.018135  -0.014531   0.247156  -0.006566   0.043613   0.163443
     10       0.382593   0.380292  -0.462857  -0.181091  -0.020091  -0.285263
     11       0.259558   0.245600  -0.232567   0.413529  -0.402259   0.571678
     12       0.008557   0.010277   0.043440   0.001158  -0.000166  -0.003689
     13      -0.143314  -0.195543   0.002367  -0.021970   0.002965  -0.000205
     14       0.395419  -0.371072  -0.000170  -0.074387  -0.003396   0.000022
     15       0.001233   0.001018   0.004407  -0.001559   0.000251   0.004641
     16      -0.024161  -0.017328   0.000235   0.026809  -0.004398   0.000262
     17      -0.078052   0.041665   0.000020  -0.050568  -0.000759  -0.000002
                 12         13         14         15         16         17    
      0      -0.001787   0.062824  -0.004083  -0.002952   0.002831  -0.092027
      1       0.029137   0.003539   0.073342   0.054000  -0.062567  -0.004672
      2      -0.104874  -0.000087   0.015939   0.057515   0.000215   0.000119
      3       0.024251  -0.779313  -0.010142   0.039051  -0.000764  -0.038668
      4      -0.420215  -0.043897   0.178595  -0.712315   0.009411  -0.002218
      5       0.373368   0.001218  -0.122194  -0.692309   0.033237  -0.000190
      6      -0.074365  -0.064479  -0.363955  -0.037305  -0.614377   0.595151
      7      -0.085424  -0.164153  -0.583162   0.035700   0.335380  -0.384898
      8       0.568518  -0.402699  -0.034026   0.010441  -0.018022   0.013226
      9       0.084964  -0.081230   0.426631   0.033144   0.580984   0.539710
     10      -0.076602   0.155916  -0.538957   0.039649   0.408271   0.442705
     11       0.567838   0.403225  -0.035081   0.010342  -0.019801  -0.014435
     12      -0.000097   0.003677   0.000010  -0.000044   0.000002   0.000206
     13       0.001742   0.000204  -0.000143   0.000693  -0.000024   0.000012
     14      -0.000561  -0.000013   0.000974  -0.002041  -0.000235   0.000001
     15      -0.000093   0.000851  -0.000032   0.000009   0.000003  -0.000028
     16       0.001606   0.000049   0.000574  -0.000155  -0.000056  -0.000001
     17      -0.001982  -0.000004  -0.000135   0.000196   0.000051  -0.000000


The first frequency considered to be a vibration is 6
The total number of vibrations considered is 12


--------------------------
THERMOCHEMISTRY AT 298.15K
--------------------------

Temperature         ...   298.15 K
Pressure            ...     1.00 atm
Total Mass          ...   160.93 AMU
Quasi RRHO          ...     True
Cut-Off Frequency   ...     1.00 cm^-1

Throughout the following assumptions are being made:
  (1) The electronic state is orbitally nondegenerate
  (2) There are no thermally accessible electronically excited states
  (3) Hindered rotations indicated by low frequency modes are not
      treated as such but are treated as vibrations and this may
      cause some error
  (4) All equations used are the standard statistical mechanics
      equations for an ideal gas
  (5) All vibrations are strictly harmonic

freq.      79.37  E(vib)   ...       0.49 
freq.     261.72  E(vib)   ...       0.30 
freq.     302.13  E(vib)   ...       0.26 
freq.     522.48  E(vib)   ...       0.13 
freq.     884.09  E(vib)   ...       0.04 
freq.     960.99  E(vib)   ...       0.03 
freq.    1302.64  E(vib)   ...       0.01 
freq.    1402.04  E(vib)   ...       0.00 
freq.    1441.28  E(vib)   ...       0.00 
freq.    2511.87  E(vib)   ...       0.00 
freq.    3032.09  E(vib)   ...       0.00 
freq.    3039.12  E(vib)   ...       0.00 

------------
INNER ENERGY
------------

The inner energy is: U= E(el) + E(ZPE) + E(vib) + E(rot) + E(trans)
    E(el)   - is the total energy from the electronic structure calculation
              = E(kin-el) + E(nuc-el) + E(el-el) + E(nuc-nuc)
    E(ZPE)  - the the zero temperature vibrational energy from the frequency calculation
    E(vib)  - the the finite temperature correction to E(ZPE) due to population
              of excited vibrational states
    E(rot)  - is the rotational thermal energy
    E(trans)- is the translational thermal energy

Summary of contributions to the inner energy U:
Electronic energy                ...    -12.41618588 Eh
Zero point energy                ...      0.03585795 Eh      22.50 kcal/mol
Thermal vibrational correction   ...      0.00199564 Eh       1.25 kcal/mol
Thermal rotational correction    ...      0.00141627 Eh       0.89 kcal/mol
Thermal translational correction ...      0.00141627 Eh       0.89 kcal/mol
-----------------------------------------------------------------------
Total thermal energy                    -12.37549974 Eh


Summary of corrections to the electronic energy:
(perhaps to be used in another calculation)
Total thermal correction                  0.00482818 Eh       3.03 kcal/mol
Non-thermal (ZPE) correction              0.03585795 Eh      22.50 kcal/mol
-----------------------------------------------------------------------
Total correction                          0.04068614 Eh      25.53 kcal/mol


--------
ENTHALPY
--------

The enthalpy is H = U + kB*T
                kB is Boltzmann's constant
Total thermal energy              ...    -12.37549974 Eh 
Thermal Enthalpy correction       ...      0.00094421 Eh       0.59 kcal/mol
-----------------------------------------------------------------------
Total Enthalpy                    ...    -12.37455553 Eh


WARNING (ORCA/SYM): The number of Z matrix atoms does not agree with
the number of centers in the basis set. The point group will therefore
be determined without considering basis set information.


Note: Only C1 symmetry has been detected, increase convergence thresholds 
      if your molecule has a higher symmetry. Symmetry factor of 1.0 is   
      used for the rotational entropy correction. 
 

Note: Rotational entropy computed according to Herzberg 
Infrared and Raman Spectra, Chapter V,1, Van Nostrand Reinhold, 1945 
Point Group:  C1, Symmetry Number:   1  
Rotational constants in cm-1:     0.928489     0.048288     0.046301 

Vibrational entropy computed according to the QRRHO of S. Grimme
Chem.Eur.J. 2012 18 9955 using a reference frequency of 100.0 cm-1


-------
ENTROPY
-------

The entropy contributions are T*S = T*(S(el)+S(vib)+S(rot)+S(trans))
     S(el)   - electronic entropy
     S(vib)  - vibrational entropy
     S(rot)  - rotational entropy
     S(trans)- translational entropy
The entropies will be listed as multiplied by the temperature to get
units of energy

Electronic entropy                ...      0.00000000 Eh      0.00 kcal/mol
Vibrational entropy               ...      0.00347126 Eh      2.18 kcal/mol
Rotational entropy                ...      0.01242708 Eh      7.80 kcal/mol
Translational entropy             ...      0.01954513 Eh     12.26 kcal/mol
-----------------------------------------------------------------------
Final entropy term                ...      0.03544347 Eh     22.24 kcal/mol

In case the symmetry of your molecule has not been determined correctly
or in case you have a reason to use a different symmetry number we print 
out the resulting rotational entropy values for sn=1,12:

 non-linear molecules -----------------------------------
|  sn= 1 | S(rot)=       0.01242708 Eh      7.80 kcal/mol|
|  sn= 2 | S(rot)=       0.01177263 Eh      7.39 kcal/mol|
|  sn= 3 | S(rot)=       0.01138979 Eh      7.15 kcal/mol|
|  sn= 4 | S(rot)=       0.01111817 Eh      6.98 kcal/mol|
|  sn= 5 | S(rot)=       0.01090748 Eh      6.84 kcal/mol|
|  sn= 6 | S(rot)=       0.01073534 Eh      6.74 kcal/mol|
|  sn= 7 | S(rot)=       0.01058979 Eh      6.65 kcal/mol|
|  sn= 8 | S(rot)=       0.01046371 Eh      6.57 kcal/mol|
|  sn= 9 | S(rot)=       0.01035250 Eh      6.50 kcal/mol|
|  sn=10 | S(rot)=       0.01025303 Eh      6.43 kcal/mol|
|  sn=11 | S(rot)=       0.01016303 Eh      6.38 kcal/mol|
|  sn=12 | S(rot)=       0.01008088 Eh      6.33 kcal/mol|
 linear molecules ---------------------------------------
|  Dinfh | S(rot)=       0.00822689 Eh      5.16 kcal/mol|
|  Cinfv | S(rot)=       0.00888135 Eh      5.57 kcal/mol|
 --------------------------------------------------------


-------------------
GIBBS FREE ENERGY
-------------------

The Gibbs free energy is G = H - T*S

Total enthalpy                    ...    -12.37455553 Eh 
Total entropy correction          ...     -0.03544347 Eh    -22.24 kcal/mol
-----------------------------------------------------------------------
Final Gibbs free energy         ...    -12.40999901 Eh

For completeness - the Gibbs free energy minus the electronic energy
G-E(el)                           ...      0.00618687 Eh      3.88 kcal/mol


--------------------------------
SUGGESTED CITATIONS FOR THIS RUN
--------------------------------

Below you find a list of papers that are relevant to this ORCA run
We neither can nor want to force you to cite these papers, but we appreciate if you do
You receive ORCA, which is the product of decades of hard work by many enthusiastic individuals, for free
The only thing we kindly ask in return is that you cite our papers,
We deeply appreciate it, if you show your appreciation for ORCA by not just citing the generic ORCA reference.

Please note that relegating all ORCA citations to the supporting information does *not* help us.
SI sections are not indexed - citations you put there will not count into any citation statistics
But we need these citations in order to attract the funding resources that allow us to do what we are doing

Therefore, if you are a happy ORCA user, please consider citing a few of the papers listed below in the main body of your paper

In addition to the list printed below, the program has created the file reactant_optfreq.bibtex that contains the list in bibtex format
You can import this file easily into all common literature databanks and citation aid programs


List of essential papers. We consider these as the minimum necessary citations

  1. Bannwarth, C.; Ehlert, S.; Grimme, S.
     GFN2-xTB—An Accurate and Broadly Parametrized Self-Consistent Tight-Binding Quantum Chemical Method with Multipole Electrostatics and Density-Dependent Dispersion Contributions
     J. Chem. Theory Comput. 2019 15(3), 1652-1671
     doi.org/10.1021/acs.jctc.8b01176
  2. Neese, F.
     Software update: the ORCA program system, version 6.0
     WIRES Comput. Molec. Sci. 2025 15(1), e70019
     doi.org/10.1002/wcms.7019

List of papers to cite with high priority. The work reported in these papers was absolutely
necessary for this run to complete.
Our perspective: the developers of density functionals and basis sets usually get cited in chemistry papers
Good! But without the algorithms to do something with them, the functionals or basis sets would not do anything.
Hence, in our opinion, the algorithm design and method developments papers are equally worthy of getting cited

  1. Bykov, D.; Petrenko, T.; Izsak, R.; Kossmann, S.; Becker, U.; Valeev, E.; Neese, F.
     Efficient implementation of the analytic second derivatives of Hartree-Fock and hybrid DFT energies: a detailed analysis of different approximations
     Molec. Phys. 2015 113 , 1961-1977
     doi.org/10.1080/00268976.2015.1025114
  2. Bannwarth, C.; Caldeweyher, E.; Ehlert, S.; Hansen, A.; Pracht, P.; Seibert, J.; Spicher, S.; Grimme, S.
     Extended tight-binding quantum chemistry methods
     WIRES Comput. Molec. Sci. 2020 11(2), e1493
     doi.org/10.1002/wcms.1493

List of suggested additional citations. These are papers that are important in the 'surrounding' of 
of this run, or papers that preceded the highly important papers. If you like your results we are grateful for a citation.

  1. Neese, F.
     The ORCA program system
     WIRES Comput. Molec. Sci. 2012 2(1), 73-78
     doi.org/10.1002/wcms.81
  2. Neese, F.
     Software update: the ORCA program system, version 4.0
     WIRES Comput. Molec. Sci. 2018 8(1), 1-6
     doi.org/10.1002/wcms.1327
  3. Neese, F.; Wennmohs, F.; Becker, U.; Riplinger, C.
     The ORCA quantum chemistry program package
     J. Chem. Phys. 2020 152(22), 224108
     doi.org/10.1063/5.0004608
  4. Neese, F.
     Software update: The ORCA program system—Version 5.0
     WIRES Comput. Molec. Sci. 2022 12(1), e1606
     doi.org/10.1002/wcms.1606

List of optional additional citations

  1. Neese, F.
     Approximate second-order SCF convergence for spin unrestricted wavefunctions
     Chem. Phys. Lett. 2000 325(1-3), 93-98
     doi.org/10.1016/s0009-2614(00)00662-x

Timings for individual modules:

Sum of individual times          ...        1.121 sec (=   0.019 min)
Geometry relaxation              ...        0.011 sec (=   0.000 min)   1.0 %
XTB module                       ...        1.109 sec (=   0.018 min)  99.0 %
                             ****ORCA TERMINATED NORMALLY****
TOTAL RUN TIME: 0 days 0 hours 0 minutes 2 seconds 98 msec
