
                                 *****************
                                 * O   R   C   A *
                                 *****************

                                            #,                                       
                                            ###                                      
                                            ####                                     
                                            #####                                    
                                            ######                                   
                                           ########,                                 
                                     ,,################,,,,,                         
                               ,,#################################,,                 
                          ,,##########################################,,             
                       ,#########################################, ''#####,          
                    ,#############################################,,   '####,        
                  ,##################################################,,,,####,       
                ,###########''''           ''''###############################       
              ,#####''   ,,,,##########,,,,          '''####'''          '####       
            ,##' ,,,,###########################,,,                        '##       
           ' ,,###''''                  '''############,,,                           
         ,,##''                                '''############,,,,        ,,,,,,###''
      ,#''                                            '''#######################'''  
     '                                                          ''''####''''         
             ,#######,   #######,   ,#######,      ##                                
            ,#'     '#,  ##    ##  ,#'     '#,    #''#        ,####,    ,#,          
            ##       ##  ##   ,#'  ##            #'  '#       #'       ,# #          
            ##       ##  #######   ##           ,######,      #####,      #          
            '#,     ,#'  ##    ##  '#,     ,#' ,#      #,     #,   #      #          
             '#######'   ##     ##  '#######'  #'      '#     '####' #    #          



                #########################################################
                #                        -***-                          #
                #          Department of theory and spectroscopy        #
                #                                                       #
                #                      Frank Neese                      #
                #                                                       #
                #     Directorship, Architecture, Infrastructure        #
                #                    SHARK, DRIVERS                     #
                #        Core code/Algorithms in most modules           #
                #                                                       #
                #        Max Planck Institute fuer Kohlenforschung      #
                #                Kaiser Wilhelm Platz 1                 #
                #                 D-45470 Muelheim/Ruhr                 #
                #                      Germany                          #
                #                                                       #
                #                  All rights reserved                  #
                #                        -***-                          #
                #########################################################


                         Program Version 6.1.0  -  RELEASE   -
                                (GIT: $679e74b$)
                          ($2025-06-10 18:02:51 +0200$)


 With contributions from (in alphabetic order):
[Max-Planck-Institut fuer Kohlenforschung]                               
  Daniel Aravena         : Magnetic Suceptibility                        
  Michael Atanasov       : Ab Initio Ligand Field Theory (pilot matlab implementation)
  Alexander A. Auer      : GIAO ZORA, VPT2 properties, NMR spectrum      
  Ute Becker             : All parallelization in ORCA, NUMFREQ, NUMCALC 
  Giovanni Bistoni       : ED, misc. LED, open-shell LED, HFLD           
  Dmytro Bykov           : pre 5.0 version of the SCF Hessian            
  Marcos Casanova-Páez   : Triplet and SCS-CIS(D). UHF-(DLPNO)-IP/EA/STEOM-CCSD. UHF-CVS-IP/STEOM-CCSD   
  Vijay G. Chilkuri      : MRCI spin determinant printing, contributions to CSF-ICE 
  Pauline Colinet        : FMM embedding                                 
  Dipayan Datta          : RHF DLPNO-CCSD density                        
  Achintya Kumar Dutta   : EOM-CC, STEOM-CC                              
  Nicolas Foglia         : Exact transition moments, OPA infrastructure, MCD improvements    
  Dmitry Ganyushin       : Spin-Orbit,Spin-Spin,Magnetic field MRCI      
  Miquel Garcia-Rates    : C-PCM and meta-GGA Hessian, CCSD/C-PCM, Gaussian charge scheme 
  Tiago L. C. Gouveia    : GS-ROHF, GS-ROCIS                             
  Yang Guo               : DLPNO-NEVPT2, F12-NEVPT2, CIM, IAO-localization        
  Andreas Hansen         : Spin unrestricted coupled pair/coupled cluster methods 
  Ingolf Harden          : AUTO-CI MPn and infrastructure                
  Benjamin Helmich-Paris : MC-RPA, TRAH-(SCF,CASSCF), AVAS, COSX integrals, SCF dyn. polar., MC-PDFT, srDFT 
  Lee Huntington         : MR-EOM, pCC                                   
  Robert Izsak           : Overlap fitted RIJCOSX, COSX-SCS-MP3, EOM     
  Riya Kayal             : Wick's Theorem for AUTO-CI, AUTO-CI UHF-CCSDT 
  Emily Kempfer          : AUTO-CI RHF CISDT and CCSDT, approximate NEVPT4
  Christian Kollmar      : KDIIS, OOCD, Brueckner-CCSD(T), CCSD density, CASPT2, CASPT2-K, improved NEVPT2 
  Axel Koslowski         : Symmetry handling                             
  Simone Kossmann        : meta-GGA functionals, TD-DFT gradient, OOMP2, (MP2 Hessian; deprecated post 5.0) 
  Lucas Lang             : DCDCAS, Hyperfine gauge corrections, ICE-SOC+SSC
  Marvin Lechner         : AUTO-CI (C++ implementation), FIC-MRCC        
  Spencer Leger          : CASSCF response                               
  Dagmar Lenk            : GEPOL surface, SMD, ORCA-2-JSON               
  Dimitrios Liakos       : Extrapolation schemes; Compound Job, Property file
  Dimitrios Manganas     : Further ROCIS development; embedding schemes. LFT, Crystal Embedding 
  Dimitrios Pantazis     : SARC Basis sets                               
  Anastasios Papadopoulos: AUTO-CI, single reference methods and gradients 
  Taras Petrenko         : pre 6.0 DFT Hessian and TD-DFT gradient,  ECA, NRVS 
  Petra Pikulova         : Analytic Raman intensities                    
  Peter Pinski           : DLPNO-MP2, DLPNO-MP2 Gradient                 
  Shashank Vittal Rao    : ES-AILFT, MagRelax                            
  Christoph Reimann      : Effective Core Potentials                     
  Marius Retegan         : Local ZFS, SOC                                
  Christoph Riplinger    : Optimizer, TS searches, QM/MM, DLPNO-CCSD(T), (RO)-DLPNO pert. Triples 
  Michael Roemelt        : Original ROCIS implementation, recursive CI coupling coefficients
  Masaaki Saitow         : Open-shell DLPNO-CCSD energy and density      
  Barbara Sandhoefer     : DKH picture change effects                    
  Yorick L. A. Schmerwitz: GMF and freeze-and-release deltaSCF, NEB S-IDPP initial path                    
  Kantharuban Sivalingam : CASSCF convergence/infrastructure, NEVPT2, NEVPT3, NEVPT4(SD), FIC-MRCI and CEPA variants
  Bernardo de Souza      : ESD, SOC TD-DFT                               
  Georgi L. Stoychev     : AutoAux, RI-MP2 NMR, DLPNO-MP2 response, X2C  
  Van Anh Tran           : RI-MP2 g-tensors                              
  Willem Van den Heuvel  : Paramagnetic NMR                              
  Zikuan Wang            : NOTCH, Electric field optimization            
  Frank Wennmohs         : Technical directorship and infrastructure     
  Hang Xu                : AUTO-CI-Response properties                   
                                                                         
[FACCTs GmbH]                                                            
  Markus Bursch, Nicolas Foglia, Miquel Garcia-Rates, Ingolf Harden, Hagen Neugebauer, Anastasios Papadopoulos, 
  Christoph Riplinger, Bernardo de Souza, Georgi L. Stoychev                                                    
                                                                 
  APM, various basis sets, CI-OPT, improved COSX, DLPNO-Multilevel,           
  DOCKER, DRACO, updates on ESD, Fragmentator, GOAT, IRC, LR-CPCM, L-BFGS, MBIS, meta-GGA TD-DFT gradient, ML-optimized integration grids, 
  MM, NACMEs, nearIR, NEB, NEB-TS, NL-DFT gradient (VV10), 2- and 3-layer-ONIOM, interface openCOSMO-RS, QMMM,   
  Crystal-QMMM, RESP, rigid body optimization, SF, symmetry and pop. for TD-DFT, various functionals, SOLVATOR                                   
                                                                         
[Other institutions]                                                     
  V. Asgeirsson          : NEB                                           
  Christoph Bannwarth    : sTDA-DFT, sTD-DFT, PBEh-3c, B97-3c, D3        
  Giovanni Bistoni       : ETS/NOCV, ADLD/ADEX, COVALED                  
  Martin Brehm           : Molecular dynamics                            
  Ronald Cardenas        : ETS/NOCV                                      
  Martina Colucci        : COVALED                                       
  Sebastian Ehlert       : rSCAN, r2SCAN, r2SCAN-3c, D4, dhf basis sets  
  Marvin Friede          : D4 for Fr, Ra, Ac-Lr                          
  Lars Goerigk           : TD-DFT with DH, B97 family of functionals     
  Stefan Grimme          : VdW corrections, initial TS optimization, DFT functionals, gCP, sTDA/sTD-DF 
  Waldemar Hujo          : DFT-NL                                        
  H. Jonsson             : NEB                                           
  Holger Kruse           : gCP                                           
  Marcel Mueller         : wB97X-3c, vDZP basis set                      
  Hagen Neugebauer       : wr2SCAN, Native XTB                           
  Gianluca Regni         : ADLD/ADEX                                     
  Tobias Risthaus        : pre 6.0 range-separated hybrid DFT and stability analysis
  Lukas Wittmann         : regularized MP2, r2SCAN double-hybrids, wr2SCAN        
                                                                         
We gratefully acknowledge several colleagues who have allowed us to      
interface, adapt or use parts of their codes:                            
  Ed Valeev, F. Pavosevic, A. Kumar             : LibInt (2-el integral package), F12 methods 
  Garnet Chan, S. Sharma, J. Yang, R. Olivares  : DMRG                   
  Ulf Ekstrom                                   : XCFun DFT Library      
  Mihaly Kallay                                 : mrcc  (arbitrary order and MRCC methods)
  Frank Weinhold                                : gennbo (NPA and NBO analysis)           
  Simon Mueller                                 : openCOSMO-RS                            
  Christopher J. Cramer and Donald G. Truhlar   : smd solvation model                     
  S Lehtola, MJT Oliveira, MAL Marques          : LibXC Library                           
  Liviu Ungur et al                             : ANISO software                          


 Your calculation uses the libint2 library for the computation of 2-el integrals
 For citations please refer to: http://libint.valeyev.net

 Your ORCA version has been built with support for libXC version: 7.0.0
 For citations please refer to: https://libxc.gitlab.io

 This ORCA versions uses:
   CBLAS   interface :  Fast vector & matrix operations
   LAPACKE interface :  Fast linear algebra routines
   SCALAPACK package :  Parallel linear algebra routines
   Shared memory     :  Shared parallel matrices
   BLAS/LAPACK       :  OpenBLAS 0.3.29  USE64BITINT DYNAMIC_ARCH NO_AFFINITY SkylakeX SINGLE_THREADED
        Core in use  :  SkylakeX
   Copyright (c) 2011-2014, The OpenBLAS Project


  ***********************************
  * Starting time: Thu Mar 12 12:38:57 2026
  * Host name:     midway3-login4.rcc.local
  * Process ID:    2731295
  * Working dir.:  /home/rzhu16/orca_TS_search/sn2_f_i/geo_opt_reactant_product
  ***********************************

Your calculation utilizes the semiempirical GFN2-xTB method
Please cite in your paper:
Bannwarth, C.; Ehlert S.; Grimme, S. J. Chem. Theory Comput. 2019, 15, 1652.
   

================================================================================

cite the ECPs for I  [Def2-ECP] as follows:
Ce-Yb(ecp-28): M. Dolg, H. Stoll, H.Preuss, J. Chem. Phys., 1989, 90, 1730-1734.
Y-Cd(ecp-28), Hf-Hg(ecp-46): D. Andrae,U. Haeussermann, M. Dolg, H. Stoll, H. Preuss, Theor. Chim. Acta, 1990, 77, 123-141.
In-Sb(ecp-28), Tl-Bi(ecp-46): B. Metz, H. Stoll, M. Dolg, J. Chem. Phys., 2000, 113, 2563-2569.
Te-Xe(ecp-28), Po-Rn(ecp-46): K. A. Peterson, D. Figgen, E. Goll, H. Stoll, M. Dolg, J. Chem. Phys., 2003, 119, 11113-11123.
Rb(ecp-28), Cs(ecp-46): T. Leininger, A. Nicklass, W. Kuechle, H. Stoll, M. Dolg, A. Bergner, Chem. Phys. Lett., 1996, 255, 274-280.
Sr(ecp-28), Ba(ecp-46): M. Kaupp, P. V. Schleyer, H. Stoll and H. Preuss, J. Chem. Phys., 1991, 94, 1360-1366.
La(ecp-46): M. Dolg, H. Stoll, A. Savin, H. Preuss, Theor. Chim. Acta, 1989, 75, 173-194.
Lu(ecp-28): X. Cao, M. Dolg, J. Chem. Phys., 2001, 115, 7348-7355.

ECP parameters for I  [Def2-ECP] have been obtained from:
TURBOMOLE (7.0.2)

================================================================================
                                        WARNINGS
                       Please study these warnings very carefully!
================================================================================


WARNING: Analytical Hessian for XTB is limited in the analysis of the data.
       : If you want to obtain extensive IR and deltaG analysis, please use ! XTB NumFreq. 


WARNING: Geometry Optimization
  ===> : Switching off AutoStart
         For restart on a previous wavefunction, please use MOREAD

WARNING: Found dipole moment calculation with XTB calculation
  ===> : Switching off dipole moment calculation


WARNING: Found frequency calculation in combination with XTB calculation
  ===> : Need to redirect dipole moment calculation to properties.out


================================================================================
                                       INPUT FILE
================================================================================
NAME = reactant_optfreq.inp
|  1> ! XTB2 Opt Freq PAL8
|  2> 
|  3> * xyz -1 1
|  4>   C       0.000094     -0.500025     -0.273526
|  5>   H      -0.000442      0.212173      0.583045
|  6>   H       0.887355     -1.124279     -0.246189
|  7>   H      -0.886340     -1.125473     -0.246439
|  8>   F      -0.000313      0.785459      2.150238
|  9>   I      -0.000242      0.430394     -2.242854
| 10> *
| 11> 
| 12>                          ****END OF INPUT****
================================================================================

                       *****************************
                       * Geometry Optimization Run *
                       *****************************

Geometry optimization settings:
Update method            Update   .... BFGS
Choice of coordinates    CoordSys .... (2022) Redundant Internals
Initial Hessian          InHess   .... Almloef's Model
Max. no of cycles        MaxIter  .... 50

Convergence Tolerances:
Energy Change            TolE     ....  5.0000e-06 Eh
Max. Gradient            TolMAXG  ....  3.0000e-04 Eh/bohr
RMS Gradient             TolRMSG  ....  1.0000e-04 Eh/bohr
Max. Displacement        TolMAXD  ....  4.0000e-03 bohr
RMS Displacement         TolRMSD  ....  2.0000e-03 bohr
Strict Convergence                .... False

------------------------------------------------------------------------------
                        ORCA OPTIMIZATION COORDINATE SETUP
------------------------------------------------------------------------------

The optimization will be done in redundant internal coordinates (2022)
Making redundant internal coordinates   ...  (2022 redundants) done
Evaluating the initial hessian          ...  (Almloef) done
Evaluating the coordinates              ...  done
Calculating the B-matrix                .... done
Calculating the G-matrix                .... done
The number of degrees of freedom        ....   15

    -----------------------------------------------------------------
                    Redundant Internal Coordinates


    -----------------------------------------------------------------
         Definition                    Initial Value    Approx d2E/dq
    -----------------------------------------------------------------
      1. B(H   1,C   0)                  1.1140         0.329741   
      2. B(H   2,C   0)                  1.0852         0.366498   
      3. B(H   3,C   0)                  1.0852         0.366491   
      4. B(F   4,H   1)                  1.6688         0.035750   
      5. B(I   5,C   0)                  2.1781         0.116128   
      6. A(H   1,C   0,H   3)          110.4191         0.287645   
      7. A(H   1,C   0,H   2)          110.4134         0.287646   
      8. A(H   1,C   0,I   5)          114.9695         0.281115   
      9. A(H   2,C   0,I   5)          105.5829         0.285766   
     10. A(H   3,C   0,I   5)          105.5834         0.285765   
     11. A(H   2,C   0,H   3)          109.6137         0.292454   
     12. A(C   0,H   1,F   4)          160.3508         0.204010   
     13. D(F   4,H   1,C   0,H   3)     60.7561         0.098149   
     14. D(F   4,H   1,C   0,I   5)   -179.9322         0.098149   
     15. D(F   4,H   1,C   0,H   2)    -60.6253         0.098149   
    -----------------------------------------------------------------

Number of atoms                         .... 6
Number of degrees of freedom            .... 15


         *************************************************************
         *                GEOMETRY OPTIMIZATION CYCLE   1            *
         *************************************************************
---------------------------------
CARTESIAN COORDINATES (ANGSTROEM)
---------------------------------
  C     0.000094   -0.500025   -0.273526
  H    -0.000442    0.212173    0.583045
  H     0.887355   -1.124279   -0.246189
  H    -0.886340   -1.125473   -0.246439
  F    -0.000313    0.785459    2.150238
  I    -0.000242    0.430394   -2.242854

----------------------------
CARTESIAN COORDINATES (A.U.)
----------------------------
  NO LB    ZA    FRAG    MASS        X           Y           Z
   0 C   6.0000    0    12.011    0.000178   -0.944910   -0.516889
   1 H   1.0000    0     1.008   -0.000835    0.400949    1.101795
   2 H   1.0000    0     1.008    1.676858   -2.124579   -0.465230
   3 H   1.0000    0     1.008   -1.674940   -2.126836   -0.465702
   4 F   9.0000    0    18.998   -0.000591    1.484302    4.063361
   5 I  53.0000    0   126.900   -0.000457    0.813327   -4.238380

      -----------------------------------------------------------      
     |                   =====================                   |     
     |                           x T B                           |     
     |                   =====================                   |     
     |                         S. Grimme                         |     
     |          Mulliken Center for Theoretical Chemistry        |     
     |                    University of Bonn                     |     
      -----------------------------------------------------------      

   * xtb version 6.7.1 (edcfbbe) compiled by 'albert@albert-system' on 2024-07-22

   xtb is free software: you can redistribute it and/or modify it under
   the terms of the GNU Lesser General Public License as published by
   the Free Software Foundation, either version 3 of the License, or
   (at your option) any later version.
   
   xtb is distributed in the hope that it will be useful,
   but WITHOUT ANY WARRANTY; without even the implied warranty of
   MERCHANTABILITY or FITNESS FOR A PARTICULAR PURPOSE.  See the
   GNU Lesser General Public License for more details.
   
   Cite this work as:
   * C. Bannwarth, E. Caldeweyher, S. Ehlert, A. Hansen, P. Pracht,
     J. Seibert, S. Spicher, S. Grimme, WIREs Comput. Mol. Sci., 2020, 11,
     e01493. DOI: 10.1002/wcms.1493
   
   for GFN2-xTB:
   * C. Bannwarth, S. Ehlert and S. Grimme., J. Chem. Theory Comput., 2019,
     15, 1652-1671. DOI: 10.1021/acs.jctc.8b01176
   for GFN1-xTB:
   * S. Grimme, C. Bannwarth, P. Shushkov, J. Chem. Theory Comput., 2017,
     13, 1989-2009. DOI: 10.1021/acs.jctc.7b00118
   for GFN0-xTB:
   * P. Pracht, E. Caldeweyher, S. Ehlert, S. Grimme, ChemRxiv, 2019, preprint.
     DOI: 10.26434/chemrxiv.8326202.v1
   for GFN-FF:
   * S. Spicher and S. Grimme, Angew. Chem. Int. Ed., 2020, 59, 15665-15673.
     DOI: 10.1002/anie.202004239
   
   for ALPB and GBSA implicit solvation:
   * S. Ehlert, M. Stahn, S. Spicher, S. Grimme, J. Chem. Theory Comput.,
     2021, 17, 4250-4261. DOI: 10.1021/acs.jctc.1c00471
   
   for ddCOSMO and CPCM-X implicit solvation:
   * M. Stahn, S. Ehlert, S. Grimme, J. Phys. Chem. A,
     2023, XX, XXXX-XXXX. DOI: 10.1021/acs.jpca.3c04382
   
   for DFT-D4:
   * E. Caldeweyher, C. Bannwarth and S. Grimme, J. Chem. Phys., 2017,
     147, 034112. DOI: 10.1063/1.4993215
   * E. Caldeweyher, S. Ehlert, A. Hansen, H. Neugebauer, S. Spicher,
     C. Bannwarth and S. Grimme, J. Chem. Phys., 2019, 150, 154122.
     DOI: 10.1063/1.5090222
   * E. Caldeweyher, J.-M. Mewes, S. Ehlert and S. Grimme, Phys. Chem. Chem. Phys.
     2020, 22, 8499-8512. DOI: 10.1039/D0CP00502A
   
   for sTDA-xTB:
   * S. Grimme and C. Bannwarth, J. Chem. Phys., 2016, 145, 054103.
     DOI: 10.1063/1.4959605
   
   in the mass-spec context:
   * V. Asgeirsson, C. Bauer and S. Grimme, Chem. Sci., 2017, 8, 4879.
     DOI: 10.1039/c7sc00601b
   * J. Koopman and S. Grimme, ACS Omega 2019, 4, 12, 15120-15133.
     DOI: 10.1021/acsomega.9b02011
   
   for metadynamics refer to:
   * S. Grimme, J. Chem. Theory Comput., 2019, 155, 2847-2862
     DOI: 10.1021/acs.jctc.9b00143
   
   for SPH calculations refer to:
   * S. Spicher and S. Grimme, J. Chem. Theory Comput., 2021, 17, 1701-1714
     DOI: 10.1021/acs.jctc.0c01306
   
   for ONIOM refer to:
   * C. Plett, A. Katbashev, S. Ehlert, S. Grimme, M. Bursch,
     Phys. Chem. Chem. Phys., 2023, 25, 17860-17868. DOI: 10.1039/D3CP02178E
   
   for DIPRO refer to:
   * J. Kohn, N. Gildemeister, S. Grimme, D. Fazzi, A. Hansen,
     J. Chem. Phys., 2023, just accepted.
   
   for PTB refer to:
   * S. Grimme, M. Mueller, A. Hansen, J. Chem. Phys., 2023, 158, 124111.
     DOI: 10.1063/5.0137838
   
   with help from (in alphabetical order)
   P. Atkinson, C. Bannwarth, F. Bohle, G. Brandenburg, E. Caldeweyher
   M. Checinski, S. Dohm, S. Ehlert, S. Ehrlich, I. Gerasimov, C. Hölzer
   A. Katbashev, J. Kohn, J. Koopman, C. Lavigne, S. Lehtola, F. März, M. Müller,
   F. Musil, H. Neugebauer, J. Pisarek, C. Plett, P. Pracht, F. Pultar,
   J. Seibert, P. Shushkov, S. Spicher, M. Stahn, M. Steiner, T. Strunk,
   J. Stückrath, T. Rose, and J. Unsleber
   
 * started run on 2026/03/12 at 12:38:57.686     
   ID    Z sym.   atoms
    1    6 C      1
    2    1 H      2-4
    3    9 F      5
    4   53 I      6

           -------------------------------------------------
          |                Calculation Setup                |
           -------------------------------------------------

          program call               : /software/orca-6.1.0-el8-x86_64/bin/otool_xtb reactant_optfreq_XTB.xyz --grad -c -1 -u 0 -P 8 --namespace reactant_optfreq --input reactant_optfreq_XTB.input.tmp --acc 0.200000
          hostname                   : midway3-login4.rcc.local
          calculation namespace      : reactant_optfreq
          coordinate file            : reactant_optfreq_XTB.xyz
          omp threads                :                     8


molecular fragmentation (1/2 indicates fragments):
111121
# atoms in fragment 1/2:     5     1
 fragment masses (1/2) :      141.94       19.00
CMA distance (Bohr)    :   7.943
constraining FC (au)   :  0.0500

           -------------------------------------------------
          |                 G F N 2 - x T B                 |
           -------------------------------------------------

        Reference                      10.1021/acs.jctc.8b01176
      * Hamiltonian:
        H0-scaling (s, p, d)           1.850000    2.230000    2.230000
        zeta-weighting                 0.500000
      * Dispersion:
        s8                             2.700000
        a1                             0.520000
        a2                             5.000000
        s9                             5.000000
      * Repulsion:
        kExp                           1.500000    1.000000
        rExp                           1.000000
      * Coulomb:
        alpha                          2.000000
        third order                    shell-resolved
        anisotropic                    true
        a3                             3.000000
        a5                             4.000000
        cn-shift                       1.200000
        cn-exp                         4.000000
        max-rad                        5.000000


          ...................................................
          :                      SETUP                      :
          :.................................................:
          :  # basis functions                  21          :
          :  # atomic orbitals                  20          :
          :  # shells                           10          :
          :  # electrons                        22          :
          :  max. iterations                   250          :
          :  Hamiltonian                  GFN2-xTB          :
          :  restarted?                      false          :
          :  GBSA solvation                  false          :
          :  PC potential                    false          :
          :  electronic temp.          300.0000000     K    :
          :  accuracy                    0.2000000          :
          :  -> integral cutoff          0.3198970E+02      :
          :  -> integral neglect         0.2000000E-08      :
          :  -> SCF convergence          0.2000000E-06 Eh   :
          :  -> wf. convergence          0.2000000E-04 e    :
          :  Broyden damping             0.4000000          :
          :  net charge                         -1          :
          :  unpaired electrons                  0          :
          ...................................................

 iter      E             dE          RMSdq      gap      omega  full diag
   1    -12.4432671 -0.124433E+02  0.109E+01    4.90       0.0  T
   2    -12.4640067 -0.207396E-01  0.415E+00    2.62       1.0  T
   3    -12.4693952 -0.538855E-02  0.185E+00    0.90       1.0  T
   4    -12.4691957  0.199543E-03  0.937E-01    1.49       1.0  T
   5    -12.4704001 -0.120442E-02  0.566E-01    1.03       1.0  T
   6    -12.4701195  0.280592E-03  0.560E-01    0.88       1.0  T
   7    -12.4705307 -0.411123E-03  0.725E-02    1.11       1.0  T
   8    -12.4705560 -0.253153E-04  0.452E-02    1.07       1.0  T
   9    -12.4705583 -0.233276E-05  0.191E-02    1.03       2.1  T
  10    -12.4705604 -0.210923E-05  0.379E-03    1.04      10.8  T
  11    -12.4705604  0.798828E-11  0.144E-03    1.04      28.4  T
  12    -12.4705604 -0.474998E-08  0.984E-04    1.04      41.5  T
  13    -12.4705604 -0.592309E-08  0.142E-04    1.04     286.7  T
  14    -12.4705604 -0.900755E-10  0.124E-05    1.04    3291.2  T

   *** convergence criteria satisfied after 14 iterations ***

         #    Occupation            Energy/Eh            Energy/eV
      -------------------------------------------------------------
         1        2.0000           -0.5860150             -15.9463
       ...           ...                  ...                  ...
         5        2.0000           -0.3243296              -8.8255
         6        2.0000           -0.3155567              -8.5867
         7        2.0000           -0.2606502              -7.0927
         8        2.0000           -0.2576730              -7.0116
         9        2.0000           -0.1165508              -3.1715
        10        2.0000           -0.1137746              -3.0960
        11        2.0000           -0.1137558              -3.0955 (HOMO)
        12                         -0.0754277              -2.0525 (LUMO)
        13                          0.1806791               4.9165
        14                          0.1822156               4.9583
        15                          0.2105598               5.7296
        16                          0.2112677               5.7489
       ...                                ...                  ...
        20                          0.5053884              13.7523
      -------------------------------------------------------------
                  HL-Gap            0.0383281 Eh            1.0430 eV
             Fermi-level           -0.0942547 Eh           -2.5648 eV

 SCC (total)                   0 d,  0 h,  0 min,  0.081 sec
 SCC setup                      ...        0 min,  0.000 sec (  0.214%)
 Dispersion                     ...        0 min,  0.000 sec (  0.063%)
 classical contributions        ...        0 min,  0.000 sec (  0.040%)
 integral evaluation            ...        0 min,  0.078 sec ( 96.385%)
 iterations                     ...        0 min,  0.002 sec (  2.458%)
 molecular gradient             ...        0 min,  0.001 sec (  0.622%)
 printout                       ...        0 min,  0.000 sec (  0.195%)

         :::::::::::::::::::::::::::::::::::::::::::::::::::::
         ::                     SUMMARY                     ::
         :::::::::::::::::::::::::::::::::::::::::::::::::::::
         :: total energy             -12.416127374252 Eh    ::
         :: gradient norm              0.001791292351 Eh/a0 ::
         :: HOMO-LUMO gap              1.042961458142 eV    ::
         ::.................................................::
         :: SCC energy               -12.470560133770 Eh    ::
         :: -> isotropic ES            0.220320583722 Eh    ::
         :: -> anisotropic ES         -0.006229011605 Eh    ::
         :: -> anisotropic XC         -0.003188328743 Eh    ::
         :: -> dispersion             -0.002580566587 Eh    ::
         :: repulsion energy           0.054432759519 Eh    ::
         :: add. restraining           0.000000000000 Eh    ::
         :: total charge              -0.999999999860 e     ::
         :::::::::::::::::::::::::::::::::::::::::::::::::::::


Property printout bound to 'properties.out'

           -------------------------------------------------
          | TOTAL ENERGY              -12.416127374252 Eh   |
          | GRADIENT NORM               0.001791292351 Eh/α |
          | HOMO-LUMO GAP               1.042961458142 eV   |
           -------------------------------------------------

------------------------------------------------------------------------
 * finished run on 2026/03/12 at 12:38:57.786     
------------------------------------------------------------------------
 total:
 * wall-time:     0 d,  0 h,  0 min,  0.100 sec
 *  cpu-time:     0 d,  0 h,  0 min,  0.522 sec
 * ratio c/w:     5.242 speedup
 SCF:
 * wall-time:     0 d,  0 h,  0 min,  0.081 sec
 *  cpu-time:     0 d,  0 h,  0 min,  0.462 sec
 * ratio c/w:     5.711 speedup


-------------------------   --------------------
FINAL SINGLE POINT ENERGY       -12.416127374250
-------------------------   --------------------


-------------
DIPOLE MOMENT
-------------
                                X             Y             Z
Total Dipole Moment    :      0.00100      -1.90100      -1.11800
                        -----------------------------------------
Magnitude (a.u.)       :      2.20539
Magnitude (Debye)      :      5.60564


------------------
CARTESIAN GRADIENT
------------------

   1   C   :   -0.000000176    0.000121694   -0.000055079
   2   H   :   -0.000002939   -0.000499955    0.000189744
   3   H   :    0.000088864   -0.000118727   -0.000508464
   4   H   :   -0.000089835   -0.000122678   -0.000511278
   5   F   :    0.000002767    0.000838325    0.001216352
   6   I   :    0.000001318   -0.000218659   -0.000331275

Difference to translation invariance:
           :    0.0000000000   -0.0000000000    0.0000000000

Difference to rotation invariance:
           :    0.0000000044    0.0000000031   -0.0000000003

Norm of the Cartesian gradient     ...    0.0017912924
RMS gradient                       ...    0.0004222117
MAX gradient                       ...    0.0012163517
------------------------------------------------------------------------------
                         ORCA GEOMETRY RELAXATION STEP
------------------------------------------------------------------------------

Reading the OPT-File                    .... done
Getting information on internals        .... done
Copying old internal coords+grads       .... done
Making the new internal coordinates     .... (2022 redundants) done
Validating the new internal coordinates .... (2022 redundants) done
Calculating the B-matrix                .... done
Calculating the G,G- and P matrices     .... done
Transforming gradient to internals      .... done
Projecting the internal gradient        .... done
Number of atoms                         ....   6
Number of internal coordinates          ....  15
Current Energy                          ....   -12.416127374 Eh
Current gradient norm                   ....     0.001791292 Eh/bohr
Maximum allowed component of the step   ....  0.300
Current trust radius                    ....  0.300
Evaluating the initial hessian          ....  (Almloef) done
Projecting the Hessian                  .... done
Forming the augmented Hessian           .... done
Diagonalizing the augmented Hessian     .... done
Last element of RFO vector              ....  0.999166744
Lowest eigenvalues of augmented Hessian:
 -0.000075801  0.035807511  0.098149260  0.116128593  0.204016421
Length of the computed step             ....  0.040848464
The final length of the internal step   ....  0.040848464
Converting the step to Cartesian space:
 Initial RMS(Int)=    0.0105470282
Transforming coordinates:
 Iter   0:  RMS(Cart)=    0.0104556930 RMS(Int)=    0.0105434227
done
Storing new coordinates                 .... done

                                .--------------------.
          ----------------------|Geometry convergence|-------------------------
          Item                value                   Tolerance       Converged
          ---------------------------------------------------------------------
          RMS gradient        0.0006822995            0.0001000000      NO
          MAX gradient        0.0014303208            0.0003000000      NO
          RMS step            0.0105470282            0.0020000000      NO
          MAX step            0.0399238637            0.0040000000      NO
          -------------------------------------------------------------------------
          ........................................................
          Max(Bonds)      0.0211      Max(Angles)    0.33
          Max(Dihed)        0.04      Max(Improp)    0.00
          ---------------------------------------------------------------------

The optimization has not yet converged - more geometry cycles are needed


    ---------------------------------------------------------------------------
                         Redundant Internal Coordinates
                            (Angstroem and degrees)

        Definition                    Value    dE/dq     Step     New-Value
    ----------------------------------------------------------------------------
     1. B(H   1,C   0)                1.1140  0.001298 -0.0021    1.1119   
     2. B(H   2,C   0)                1.0852  0.000128 -0.0002    1.0850   
     3. B(H   3,C   0)                1.0852  0.000131 -0.0002    1.0850   
     4. B(F   4,H   1)                1.6688  0.001430 -0.0211    1.6476   
     5. B(I   5,C   0)                2.1781  0.000206 -0.0009    2.1771   
     6. A(H   1,C   0,H   3)          110.42  0.000417   -0.09    110.33   
     7. A(H   1,C   0,H   2)          110.41  0.000409   -0.08    110.33   
     8. A(H   1,C   0,I   5)          114.97  0.000667   -0.13    114.84   
     9. A(H   2,C   0,I   5)          105.58 -0.000689    0.14    105.73   
    10. A(H   3,C   0,I   5)          105.58 -0.000688    0.14    105.73   
    11. A(H   2,C   0,H   3)          109.61 -0.000230    0.03    109.65   
    12. A(C   0,H   1,F   4)          160.35  0.001165   -0.33    160.02   
    13. D(F   4,H   1,C   0,H   3)     60.76  0.000129   -0.04     60.72   
    14. D(F   4,H   1,C   0,I   5)   -179.93  0.000004   -0.00   -179.93   
    15. D(F   4,H   1,C   0,H   2)    -60.63 -0.000129    0.03    -60.59   
    ----------------------------------------------------------------------------

Geometry step timings:
Preparation and reading OPT file:      0.000 s ( 2.844 %)
Internal coordinates            :      0.000 s ( 3.305 %)
B/P matrices and projection     :      0.000 s (11.453 %)
Hessian update/contruction      :      0.000 s (37.433 %)
Making the step                 :      0.000 s ( 9.992 %)
Converting the step to Cartesian:      0.000 s ( 4.151 %)
Storing new data                :      0.000 s ( 6.533 %)
Checking convergence            :      0.000 s ( 4.766 %)
Final printing                  :      0.000 s (19.216 %)
Total time                      :      0.001 s

Time for energy+gradient        :      0.109 s
Time for complete geometry iter :      0.111 s

         *************************************************************
         *                GEOMETRY OPTIMIZATION CYCLE   2            *
         *************************************************************
---------------------------------
CARTESIAN COORDINATES (ANGSTROEM)
---------------------------------
  C     0.000101   -0.498191   -0.270692
  H    -0.000442    0.214458    0.582793
  H     0.887388   -1.121949   -0.240383
  H    -0.886369   -1.123121   -0.240621
  F    -0.000318    0.774877    2.132186
  I    -0.000249    0.432175   -2.239008

----------------------------
CARTESIAN COORDINATES (A.U.)
----------------------------
  NO LB    ZA    FRAG    MASS        X           Y           Z
   0 C   6.0000    0    12.011    0.000192   -0.941444   -0.511534
   1 H   1.0000    0     1.008   -0.000835    0.405267    1.101320
   2 H   1.0000    0     1.008    1.676920   -2.120176   -0.454257
   3 H   1.0000    0     1.008   -1.674995   -2.122392   -0.454709
   4 F   9.0000    0    18.998   -0.000601    1.464306    4.029247
   5 I  53.0000    0   126.900   -0.000470    0.816692   -4.231111

      -----------------------------------------------------------      
     |                   =====================                   |     
     |                           x T B                           |     
     |                   =====================                   |     
     |                         S. Grimme                         |     
     |          Mulliken Center for Theoretical Chemistry        |     
     |                    University of Bonn                     |     
      -----------------------------------------------------------      

   * xtb version 6.7.1 (edcfbbe) compiled by 'albert@albert-system' on 2024-07-22

   xtb is free software: you can redistribute it and/or modify it under
   the terms of the GNU Lesser General Public License as published by
   the Free Software Foundation, either version 3 of the License, or
   (at your option) any later version.
   
   xtb is distributed in the hope that it will be useful,
   but WITHOUT ANY WARRANTY; without even the implied warranty of
   MERCHANTABILITY or FITNESS FOR A PARTICULAR PURPOSE.  See the
   GNU Lesser General Public License for more details.
   
   Cite this work as:
   * C. Bannwarth, E. Caldeweyher, S. Ehlert, A. Hansen, P. Pracht,
     J. Seibert, S. Spicher, S. Grimme, WIREs Comput. Mol. Sci., 2020, 11,
     e01493. DOI: 10.1002/wcms.1493
   
   for GFN2-xTB:
   * C. Bannwarth, S. Ehlert and S. Grimme., J. Chem. Theory Comput., 2019,
     15, 1652-1671. DOI: 10.1021/acs.jctc.8b01176
   for GFN1-xTB:
   * S. Grimme, C. Bannwarth, P. Shushkov, J. Chem. Theory Comput., 2017,
     13, 1989-2009. DOI: 10.1021/acs.jctc.7b00118
   for GFN0-xTB:
   * P. Pracht, E. Caldeweyher, S. Ehlert, S. Grimme, ChemRxiv, 2019, preprint.
     DOI: 10.26434/chemrxiv.8326202.v1
   for GFN-FF:
   * S. Spicher and S. Grimme, Angew. Chem. Int. Ed., 2020, 59, 15665-15673.
     DOI: 10.1002/anie.202004239
   
   for ALPB and GBSA implicit solvation:
   * S. Ehlert, M. Stahn, S. Spicher, S. Grimme, J. Chem. Theory Comput.,
     2021, 17, 4250-4261. DOI: 10.1021/acs.jctc.1c00471
   
   for ddCOSMO and CPCM-X implicit solvation:
   * M. Stahn, S. Ehlert, S. Grimme, J. Phys. Chem. A,
     2023, XX, XXXX-XXXX. DOI: 10.1021/acs.jpca.3c04382
   
   for DFT-D4:
   * E. Caldeweyher, C. Bannwarth and S. Grimme, J. Chem. Phys., 2017,
     147, 034112. DOI: 10.1063/1.4993215
   * E. Caldeweyher, S. Ehlert, A. Hansen, H. Neugebauer, S. Spicher,
     C. Bannwarth and S. Grimme, J. Chem. Phys., 2019, 150, 154122.
     DOI: 10.1063/1.5090222
   * E. Caldeweyher, J.-M. Mewes, S. Ehlert and S. Grimme, Phys. Chem. Chem. Phys.
     2020, 22, 8499-8512. DOI: 10.1039/D0CP00502A
   
   for sTDA-xTB:
   * S. Grimme and C. Bannwarth, J. Chem. Phys., 2016, 145, 054103.
     DOI: 10.1063/1.4959605
   
   in the mass-spec context:
   * V. Asgeirsson, C. Bauer and S. Grimme, Chem. Sci., 2017, 8, 4879.
     DOI: 10.1039/c7sc00601b
   * J. Koopman and S. Grimme, ACS Omega 2019, 4, 12, 15120-15133.
     DOI: 10.1021/acsomega.9b02011
   
   for metadynamics refer to:
   * S. Grimme, J. Chem. Theory Comput., 2019, 155, 2847-2862
     DOI: 10.1021/acs.jctc.9b00143
   
   for SPH calculations refer to:
   * S. Spicher and S. Grimme, J. Chem. Theory Comput., 2021, 17, 1701-1714
     DOI: 10.1021/acs.jctc.0c01306
   
   for ONIOM refer to:
   * C. Plett, A. Katbashev, S. Ehlert, S. Grimme, M. Bursch,
     Phys. Chem. Chem. Phys., 2023, 25, 17860-17868. DOI: 10.1039/D3CP02178E
   
   for DIPRO refer to:
   * J. Kohn, N. Gildemeister, S. Grimme, D. Fazzi, A. Hansen,
     J. Chem. Phys., 2023, just accepted.
   
   for PTB refer to:
   * S. Grimme, M. Mueller, A. Hansen, J. Chem. Phys., 2023, 158, 124111.
     DOI: 10.1063/5.0137838
   
   with help from (in alphabetical order)
   P. Atkinson, C. Bannwarth, F. Bohle, G. Brandenburg, E. Caldeweyher
   M. Checinski, S. Dohm, S. Ehlert, S. Ehrlich, I. Gerasimov, C. Hölzer
   A. Katbashev, J. Kohn, J. Koopman, C. Lavigne, S. Lehtola, F. März, M. Müller,
   F. Musil, H. Neugebauer, J. Pisarek, C. Plett, P. Pracht, F. Pultar,
   J. Seibert, P. Shushkov, S. Spicher, M. Stahn, M. Steiner, T. Strunk,
   J. Stückrath, T. Rose, and J. Unsleber
   
 * started run on 2026/03/12 at 12:38:57.797     
   ID    Z sym.   atoms
    1    6 C      1
    2    1 H      2-4
    3    9 F      5
    4   53 I      6

           -------------------------------------------------
          |                Calculation Setup                |
           -------------------------------------------------

          program call               : /software/orca-6.1.0-el8-x86_64/bin/otool_xtb reactant_optfreq_XTB.xyz --grad -c -1 -u 0 -P 8 --namespace reactant_optfreq --input reactant_optfreq_XTB.input.tmp --acc 0.200000
          hostname                   : midway3-login4.rcc.local
          calculation namespace      : reactant_optfreq
          coordinate file            : reactant_optfreq_XTB.xyz
          omp threads                :                     8


molecular fragmentation (1/2 indicates fragments):
111121
# atoms in fragment 1/2:     5     1
 fragment masses (1/2) :      141.94       19.00
CMA distance (Bohr)    :   7.899
constraining FC (au)   :  0.0500

           -------------------------------------------------
          |                 G F N 2 - x T B                 |
           -------------------------------------------------

        Reference                      10.1021/acs.jctc.8b01176
      * Hamiltonian:
        H0-scaling (s, p, d)           1.850000    2.230000    2.230000
        zeta-weighting                 0.500000
      * Dispersion:
        s8                             2.700000
        a1                             0.520000
        a2                             5.000000
        s9                             5.000000
      * Repulsion:
        kExp                           1.500000    1.000000
        rExp                           1.000000
      * Coulomb:
        alpha                          2.000000
        third order                    shell-resolved
        anisotropic                    true
        a3                             3.000000
        a5                             4.000000
        cn-shift                       1.200000
        cn-exp                         4.000000
        max-rad                        5.000000

q/qsh data taken from xtbrestart
CAMM data taken from xtbrestart

          ...................................................
          :                      SETUP                      :
          :.................................................:
          :  # basis functions                  21          :
          :  # atomic orbitals                  20          :
          :  # shells                           10          :
          :  # electrons                        22          :
          :  max. iterations                   250          :
          :  Hamiltonian                  GFN2-xTB          :
          :  restarted?                       true          :
          :  GBSA solvation                  false          :
          :  PC potential                    false          :
          :  electronic temp.          300.0000000     K    :
          :  accuracy                    0.2000000          :
          :  -> integral cutoff          0.3198970E+02      :
          :  -> integral neglect         0.2000000E-08      :
          :  -> SCF convergence          0.2000000E-06 Eh   :
          :  -> wf. convergence          0.2000000E-04 e    :
          :  Broyden damping             0.4000000          :
          :  net charge                         -1          :
          :  unpaired electrons                  0          :
          ...................................................

 iter      E             dE          RMSdq      gap      omega  full diag
   1    -12.4709107 -0.124709E+02  0.666E-02    1.08       0.0  T
   2    -12.4709168 -0.612022E-05  0.271E-02    1.11       1.5  T
   3    -12.4709172 -0.454669E-06  0.159E-02    1.10       2.6  T
   4    -12.4709173 -0.141086E-07  0.714E-03    1.11       5.7  T
   5    -12.4709173 -0.701435E-07  0.220E-03    1.10      18.6  T
   6    -12.4709173 -0.987175E-09  0.844E-04    1.10      48.4  T
   7    -12.4709173 -0.233328E-09  0.430E-04    1.10      95.0  T
   8    -12.4709173 -0.153459E-09  0.928E-05    1.10     440.2  T
   9    -12.4709173 -0.110525E-10  0.332E-05    1.10    1229.0  T

   *** convergence criteria satisfied after 9 iterations ***

         #    Occupation            Energy/Eh            Energy/eV
      -------------------------------------------------------------
         1        2.0000           -0.5852261             -15.9248
       ...           ...                  ...                  ...
         5        2.0000           -0.3234656              -8.8019
         6        2.0000           -0.3141022              -8.5472
         7        2.0000           -0.2599171              -7.0727
         8        2.0000           -0.2568317              -6.9887
         9        2.0000           -0.1172992              -3.1919
        10        2.0000           -0.1146924              -3.1209
        11        2.0000           -0.1146691              -3.1203 (HOMO)
        12                         -0.0740683              -2.0155 (LUMO)
        13                          0.1815510               4.9403
        14                          0.1830533               4.9811
        15                          0.2115954               5.7578
        16                          0.2121200               5.7721
       ...                                ...                  ...
        20                          0.5070774              13.7983
      -------------------------------------------------------------
                  HL-Gap            0.0406008 Eh            1.1048 eV
             Fermi-level           -0.0940440 Eh           -2.5591 eV

 SCC (total)                   0 d,  0 h,  0 min,  0.144 sec
 SCC setup                      ...        0 min,  0.000 sec (  0.115%)
 Dispersion                     ...        0 min,  0.000 sec (  0.035%)
 classical contributions        ...        0 min,  0.000 sec (  0.021%)
 integral evaluation            ...        0 min,  0.140 sec ( 97.045%)
 iterations                     ...        0 min,  0.003 sec (  1.759%)
 molecular gradient             ...        0 min,  0.001 sec (  0.899%)
 printout                       ...        0 min,  0.000 sec (  0.114%)

         :::::::::::::::::::::::::::::::::::::::::::::::::::::
         ::                     SUMMARY                     ::
         :::::::::::::::::::::::::::::::::::::::::::::::::::::
         :: total energy             -12.416167976378 Eh    ::
         :: gradient norm              0.002138738020 Eh/a0 ::
         :: HOMO-LUMO gap              1.104804208067 eV    ::
         ::.................................................::
         :: SCC energy               -12.470917045486 Eh    ::
         :: -> isotropic ES            0.219641880872 Eh    ::
         :: -> anisotropic ES         -0.006191868214 Eh    ::
         :: -> anisotropic XC         -0.003217817801 Eh    ::
         :: -> dispersion             -0.002590894509 Eh    ::
         :: repulsion energy           0.054749069107 Eh    ::
         :: add. restraining           0.000000000000 Eh    ::
         :: total charge              -0.999999998910 e     ::
         :::::::::::::::::::::::::::::::::::::::::::::::::::::


Property printout bound to 'properties.out'

           -------------------------------------------------
          | TOTAL ENERGY              -12.416167976378 Eh   |
          | GRADIENT NORM               0.002138738020 Eh/α |
          | HOMO-LUMO GAP               1.104804208067 eV   |
           -------------------------------------------------

------------------------------------------------------------------------
 * finished run on 2026/03/12 at 12:38:57.956     
------------------------------------------------------------------------
 total:
 * wall-time:     0 d,  0 h,  0 min,  0.158 sec
 *  cpu-time:     0 d,  0 h,  0 min,  0.495 sec
 * ratio c/w:     3.125 speedup
 SCF:
 * wall-time:     0 d,  0 h,  0 min,  0.145 sec
 *  cpu-time:     0 d,  0 h,  0 min,  0.438 sec
 * ratio c/w:     3.027 speedup


-------------------------   --------------------
FINAL SINGLE POINT ENERGY       -12.416167976380
-------------------------   --------------------


-------------
DIPOLE MOMENT
-------------
                                X             Y             Z
Total Dipole Moment    :      0.00100      -1.88200      -1.08100
                        -----------------------------------------
Magnitude (a.u.)       :      2.17037
Magnitude (Debye)      :      5.51663


------------------
CARTESIAN GRADIENT
------------------

   1   C   :   -0.000000934    0.000893012    0.001280995
   2   H   :   -0.000003784   -0.001229652   -0.000647586
   3   H   :   -0.000008240    0.000068443   -0.000236364
   4   H   :    0.000009149    0.000067721   -0.000238524
   5   F   :    0.000002937    0.000254248   -0.000047156
   6   I   :    0.000000873   -0.000053772   -0.000111365

Difference to translation invariance:
           :   -0.0000000000    0.0000000000    0.0000000000

Difference to rotation invariance:
           :   -0.0000000705    0.0000000033   -0.0000000004

Norm of the Cartesian gradient     ...    0.0021387380
RMS gradient                       ...    0.0005041054
MAX gradient                       ...    0.0012809955
------------------------------------------------------------------------------
                         ORCA GEOMETRY RELAXATION STEP
------------------------------------------------------------------------------

Reading the OPT-File                    .... done
Getting information on internals        .... done
Copying old internal coords+grads       .... done
Making the new internal coordinates     .... (2022 redundants) done
Validating the new internal coordinates .... (2022 redundants) done
Calculating the B-matrix                .... done
Calculating the G,G- and P matrices     .... done
Transforming gradient to internals      .... done
Projecting the internal gradient        .... done
Number of atoms                         ....   6
Number of internal coordinates          ....  15
Current Energy                          ....   -12.416167976 Eh
Current gradient norm                   ....     0.002138738 Eh/bohr
Maximum allowed component of the step   ....  0.300
Current trust radius                    ....  0.300
Updating the Hessian (BFGS)             .... done
Forming the augmented Hessian           .... done
Diagonalizing the augmented Hessian     .... done
Last element of RFO vector              ....  0.999961366
Lowest eigenvalues of augmented Hessian:
 -0.000009253  0.032302241  0.098149208  0.115713506  0.185732497
Length of the computed step             ....  0.008790461
The final length of the internal step   ....  0.008790461
Converting the step to Cartesian space:
 Initial RMS(Int)=    0.0022696873
Transforming coordinates:
 Iter   0:  RMS(Cart)=    0.0024569404 RMS(Int)=    0.0022672519
done
Storing new coordinates                 .... done
The predicted energy change is          ....    -0.000004627
Previously predicted energy change      ....    -0.000037964
Actually observed energy change         ....    -0.000040602
Ratio of predicted to observed change   ....     1.069498750
New trust radius                        ....     0.450000000

                                .--------------------.
          ----------------------|Geometry convergence|-------------------------
          Item                value                   Tolerance       Converged
          ---------------------------------------------------------------------
          Energy change      -0.0000406021            0.0000050000      NO
          RMS gradient        0.0003871375            0.0001000000      NO
          MAX gradient        0.0011584528            0.0003000000      NO
          RMS step            0.0022696873            0.0020000000      NO
          MAX step            0.0059913452            0.0040000000      NO
          -------------------------------------------------------------------------
          ........................................................
          Max(Bonds)      0.0032      Max(Angles)    0.27
          Max(Dihed)        0.04      Max(Improp)    0.00
          ---------------------------------------------------------------------

The optimization has not yet converged - more geometry cycles are needed


    ---------------------------------------------------------------------------
                         Redundant Internal Coordinates
                            (Angstroem and degrees)

        Definition                    Value    dE/dq     Step     New-Value
    ----------------------------------------------------------------------------
     1. B(H   1,C   0)                1.1119 -0.001158  0.0017    1.1136   
     2. B(H   2,C   0)                1.0850 -0.000053  0.0001    1.0851   
     3. B(H   3,C   0)                1.0850 -0.000053  0.0001    1.0851   
     4. B(F   4,H   1)                1.6476  0.000042 -0.0032    1.6445   
     5. B(I   5,C   0)                2.1771  0.000078 -0.0005    2.1766   
     6. A(H   1,C   0,H   3)          110.33  0.000194   -0.05    110.28   
     7. A(H   1,C   0,H   2)          110.33  0.000189   -0.05    110.28   
     8. A(H   1,C   0,I   5)          114.84  0.000113   -0.03    114.81   
     9. A(H   2,C   0,I   5)          105.73 -0.000268    0.08    105.81   
    10. A(H   3,C   0,I   5)          105.73 -0.000267    0.08    105.81   
    11. A(H   2,C   0,H   3)          109.65  0.000001   -0.01    109.64   
    12. A(C   0,H   1,F   4)          160.02  0.000794   -0.27    159.75   
    13. D(F   4,H   1,C   0,H   3)     60.72  0.000128   -0.04     60.68   
    14. D(F   4,H   1,C   0,I   5)   -179.93  0.000003   -0.00   -179.93   
    15. D(F   4,H   1,C   0,H   2)    -60.59 -0.000127    0.04    -60.55   
    ----------------------------------------------------------------------------

Geometry step timings:
Preparation and reading OPT file:      0.000 s ( 2.657 %)
Internal coordinates            :      0.000 s ( 3.189 %)
B/P matrices and projection     :      0.000 s (11.337 %)
Hessian update/contruction      :      0.000 s (32.861 %)
Making the step                 :      0.000 s ( 8.060 %)
Converting the step to Cartesian:      0.000 s ( 3.012 %)
Storing new data                :      0.000 s ( 8.415 %)
Checking convergence            :      0.000 s ( 8.592 %)
Final printing                  :      0.000 s (21.878 %)
Total time                      :      0.001 s

Time for energy+gradient        :      0.167 s
Time for complete geometry iter :      0.170 s

         *************************************************************
         *                GEOMETRY OPTIMIZATION CYCLE   3            *
         *************************************************************
---------------------------------
CARTESIAN COORDINATES (ANGSTROEM)
---------------------------------
  C     0.000108   -0.497579   -0.271298
  H    -0.000442    0.217283    0.582575
  H     0.887391   -1.121342   -0.238931
  H    -0.886369   -1.122500   -0.239160
  F    -0.000323    0.771222    2.130929
  I    -0.000252    0.431165   -2.239841

----------------------------
CARTESIAN COORDINATES (A.U.)
----------------------------
  NO LB    ZA    FRAG    MASS        X           Y           Z
   0 C   6.0000    0    12.011    0.000204   -0.940289   -0.512678
   1 H   1.0000    0     1.008   -0.000835    0.410606    1.100907
   2 H   1.0000    0     1.008    1.676925   -2.119029   -0.451514
   3 H   1.0000    0     1.008   -1.674995   -2.121217   -0.451947
   4 F   9.0000    0    18.998   -0.000611    1.457398    4.026873
   5 I  53.0000    0   126.900   -0.000476    0.814784   -4.232686

      -----------------------------------------------------------      
     |                   =====================                   |     
     |                           x T B                           |     
     |                   =====================                   |     
     |                         S. Grimme                         |     
     |          Mulliken Center for Theoretical Chemistry        |     
     |                    University of Bonn                     |     
      -----------------------------------------------------------      

   * xtb version 6.7.1 (edcfbbe) compiled by 'albert@albert-system' on 2024-07-22

   xtb is free software: you can redistribute it and/or modify it under
   the terms of the GNU Lesser General Public License as published by
   the Free Software Foundation, either version 3 of the License, or
   (at your option) any later version.
   
   xtb is distributed in the hope that it will be useful,
   but WITHOUT ANY WARRANTY; without even the implied warranty of
   MERCHANTABILITY or FITNESS FOR A PARTICULAR PURPOSE.  See the
   GNU Lesser General Public License for more details.
   
   Cite this work as:
   * C. Bannwarth, E. Caldeweyher, S. Ehlert, A. Hansen, P. Pracht,
     J. Seibert, S. Spicher, S. Grimme, WIREs Comput. Mol. Sci., 2020, 11,
     e01493. DOI: 10.1002/wcms.1493
   
   for GFN2-xTB:
   * C. Bannwarth, S. Ehlert and S. Grimme., J. Chem. Theory Comput., 2019,
     15, 1652-1671. DOI: 10.1021/acs.jctc.8b01176
   for GFN1-xTB:
   * S. Grimme, C. Bannwarth, P. Shushkov, J. Chem. Theory Comput., 2017,
     13, 1989-2009. DOI: 10.1021/acs.jctc.7b00118
   for GFN0-xTB:
   * P. Pracht, E. Caldeweyher, S. Ehlert, S. Grimme, ChemRxiv, 2019, preprint.
     DOI: 10.26434/chemrxiv.8326202.v1
   for GFN-FF:
   * S. Spicher and S. Grimme, Angew. Chem. Int. Ed., 2020, 59, 15665-15673.
     DOI: 10.1002/anie.202004239
   
   for ALPB and GBSA implicit solvation:
   * S. Ehlert, M. Stahn, S. Spicher, S. Grimme, J. Chem. Theory Comput.,
     2021, 17, 4250-4261. DOI: 10.1021/acs.jctc.1c00471
   
   for ddCOSMO and CPCM-X implicit solvation:
   * M. Stahn, S. Ehlert, S. Grimme, J. Phys. Chem. A,
     2023, XX, XXXX-XXXX. DOI: 10.1021/acs.jpca.3c04382
   
   for DFT-D4:
   * E. Caldeweyher, C. Bannwarth and S. Grimme, J. Chem. Phys., 2017,
     147, 034112. DOI: 10.1063/1.4993215
   * E. Caldeweyher, S. Ehlert, A. Hansen, H. Neugebauer, S. Spicher,
     C. Bannwarth and S. Grimme, J. Chem. Phys., 2019, 150, 154122.
     DOI: 10.1063/1.5090222
   * E. Caldeweyher, J.-M. Mewes, S. Ehlert and S. Grimme, Phys. Chem. Chem. Phys.
     2020, 22, 8499-8512. DOI: 10.1039/D0CP00502A
   
   for sTDA-xTB:
   * S. Grimme and C. Bannwarth, J. Chem. Phys., 2016, 145, 054103.
     DOI: 10.1063/1.4959605
   
   in the mass-spec context:
   * V. Asgeirsson, C. Bauer and S. Grimme, Chem. Sci., 2017, 8, 4879.
     DOI: 10.1039/c7sc00601b
   * J. Koopman and S. Grimme, ACS Omega 2019, 4, 12, 15120-15133.
     DOI: 10.1021/acsomega.9b02011
   
   for metadynamics refer to:
   * S. Grimme, J. Chem. Theory Comput., 2019, 155, 2847-2862
     DOI: 10.1021/acs.jctc.9b00143
   
   for SPH calculations refer to:
   * S. Spicher and S. Grimme, J. Chem. Theory Comput., 2021, 17, 1701-1714
     DOI: 10.1021/acs.jctc.0c01306
   
   for ONIOM refer to:
   * C. Plett, A. Katbashev, S. Ehlert, S. Grimme, M. Bursch,
     Phys. Chem. Chem. Phys., 2023, 25, 17860-17868. DOI: 10.1039/D3CP02178E
   
   for DIPRO refer to:
   * J. Kohn, N. Gildemeister, S. Grimme, D. Fazzi, A. Hansen,
     J. Chem. Phys., 2023, just accepted.
   
   for PTB refer to:
   * S. Grimme, M. Mueller, A. Hansen, J. Chem. Phys., 2023, 158, 124111.
     DOI: 10.1063/5.0137838
   
   with help from (in alphabetical order)
   P. Atkinson, C. Bannwarth, F. Bohle, G. Brandenburg, E. Caldeweyher
   M. Checinski, S. Dohm, S. Ehlert, S. Ehrlich, I. Gerasimov, C. Hölzer
   A. Katbashev, J. Kohn, J. Koopman, C. Lavigne, S. Lehtola, F. März, M. Müller,
   F. Musil, H. Neugebauer, J. Pisarek, C. Plett, P. Pracht, F. Pultar,
   J. Seibert, P. Shushkov, S. Spicher, M. Stahn, M. Steiner, T. Strunk,
   J. Stückrath, T. Rose, and J. Unsleber
   
 * started run on 2026/03/12 at 12:38:57.967     
   ID    Z sym.   atoms
    1    6 C      1
    2    1 H      2-4
    3    9 F      5
    4   53 I      6

           -------------------------------------------------
          |                Calculation Setup                |
           -------------------------------------------------

          program call               : /software/orca-6.1.0-el8-x86_64/bin/otool_xtb reactant_optfreq_XTB.xyz --grad -c -1 -u 0 -P 8 --namespace reactant_optfreq --input reactant_optfreq_XTB.input.tmp --acc 0.200000
          hostname                   : midway3-login4.rcc.local
          calculation namespace      : reactant_optfreq
          coordinate file            : reactant_optfreq_XTB.xyz
          omp threads                :                     8


molecular fragmentation (1/2 indicates fragments):
111121
# atoms in fragment 1/2:     5     1
 fragment masses (1/2) :      141.94       19.00
CMA distance (Bohr)    :   7.898
constraining FC (au)   :  0.0500

           -------------------------------------------------
          |                 G F N 2 - x T B                 |
           -------------------------------------------------

        Reference                      10.1021/acs.jctc.8b01176
      * Hamiltonian:
        H0-scaling (s, p, d)           1.850000    2.230000    2.230000
        zeta-weighting                 0.500000
      * Dispersion:
        s8                             2.700000
        a1                             0.520000
        a2                             5.000000
        s9                             5.000000
      * Repulsion:
        kExp                           1.500000    1.000000
        rExp                           1.000000
      * Coulomb:
        alpha                          2.000000
        third order                    shell-resolved
        anisotropic                    true
        a3                             3.000000
        a5                             4.000000
        cn-shift                       1.200000
        cn-exp                         4.000000
        max-rad                        5.000000

q/qsh data taken from xtbrestart
CAMM data taken from xtbrestart

          ...................................................
          :                      SETUP                      :
          :.................................................:
          :  # basis functions                  21          :
          :  # atomic orbitals                  20          :
          :  # shells                           10          :
          :  # electrons                        22          :
          :  max. iterations                   250          :
          :  Hamiltonian                  GFN2-xTB          :
          :  restarted?                       true          :
          :  GBSA solvation                  false          :
          :  PC potential                    false          :
          :  electronic temp.          300.0000000     K    :
          :  accuracy                    0.2000000          :
          :  -> integral cutoff          0.3198970E+02      :
          :  -> integral neglect         0.2000000E-08      :
          :  -> SCF convergence          0.2000000E-06 Eh   :
          :  -> wf. convergence          0.2000000E-04 e    :
          :  Broyden damping             0.4000000          :
          :  net charge                         -1          :
          :  unpaired electrons                  0          :
          ...................................................

 iter      E             dE          RMSdq      gap      omega  full diag
   1    -12.4707395 -0.124707E+02  0.199E-02    1.11       0.0  T
   2    -12.4707398 -0.345624E-06  0.917E-03    1.12       4.5  T
   3    -12.4707398 -0.127302E-07  0.416E-03    1.12       9.8  T
   4    -12.4707398 -0.220829E-07  0.245E-03    1.12      16.7  T
   5    -12.4707399 -0.260676E-08  0.893E-04    1.12      45.7  T
   6    -12.4707399 -0.268603E-09  0.378E-04    1.12     107.9  T
   7    -12.4707399 -0.614104E-10  0.142E-04    1.12     287.0  T
   8    -12.4707399 -0.357048E-11  0.141E-05    1.12    2888.2  T

   *** convergence criteria satisfied after 8 iterations ***

         #    Occupation            Energy/Eh            Energy/eV
      -------------------------------------------------------------
         1        2.0000           -0.5851191             -15.9219
       ...           ...                  ...                  ...
         5        2.0000           -0.3233525              -8.7989
         6        2.0000           -0.3137162              -8.5367
         7        2.0000           -0.2598145              -7.0699
         8        2.0000           -0.2566899              -6.9849
         9        2.0000           -0.1174934              -3.1972
        10        2.0000           -0.1148947              -3.1264
        11        2.0000           -0.1148704              -3.1258 (HOMO)
        12                         -0.0737789              -2.0076 (LUMO)
        13                          0.1816752               4.9436
        14                          0.1831433               4.9836
        15                          0.2117586               5.7622
        16                          0.2122415               5.7754
       ...                                ...                  ...
        20                          0.5076118              13.8128
      -------------------------------------------------------------
                  HL-Gap            0.0410915 Eh            1.1182 eV
             Fermi-level           -0.0940001 Eh           -2.5579 eV

 SCC (total)                   0 d,  0 h,  0 min,  0.052 sec
 SCC setup                      ...        0 min,  0.000 sec (  0.332%)
 Dispersion                     ...        0 min,  0.000 sec (  0.107%)
 classical contributions        ...        0 min,  0.000 sec (  0.067%)
 integral evaluation            ...        0 min,  0.049 sec ( 93.833%)
 iterations                     ...        0 min,  0.002 sec (  3.288%)
 molecular gradient             ...        0 min,  0.001 sec (  1.995%)
 printout                       ...        0 min,  0.000 sec (  0.343%)

         :::::::::::::::::::::::::::::::::::::::::::::::::::::
         ::                     SUMMARY                     ::
         :::::::::::::::::::::::::::::::::::::::::::::::::::::
         :: total energy             -12.416175113488 Eh    ::
         :: gradient norm              0.001058102165 Eh/a0 ::
         :: HOMO-LUMO gap              1.118155707425 eV    ::
         ::.................................................::
         :: SCC energy               -12.470739570209 Eh    ::
         :: -> isotropic ES            0.219458975341 Eh    ::
         :: -> anisotropic ES         -0.006158256606 Eh    ::
         :: -> anisotropic XC         -0.003209273583 Eh    ::
         :: -> dispersion             -0.002591733526 Eh    ::
         :: repulsion energy           0.054564456720 Eh    ::
         :: add. restraining           0.000000000000 Eh    ::
         :: total charge              -0.999999999158 e     ::
         :::::::::::::::::::::::::::::::::::::::::::::::::::::


Property printout bound to 'properties.out'

           -------------------------------------------------
          | TOTAL ENERGY              -12.416175113488 Eh   |
          | GRADIENT NORM               0.001058102165 Eh/α |
          | HOMO-LUMO GAP               1.118155707425 eV   |
           -------------------------------------------------

------------------------------------------------------------------------
 * finished run on 2026/03/12 at 12:38:58.055     
------------------------------------------------------------------------
 total:
 * wall-time:     0 d,  0 h,  0 min,  0.088 sec
 *  cpu-time:     0 d,  0 h,  0 min,  0.338 sec
 * ratio c/w:     3.856 speedup
 SCF:
 * wall-time:     0 d,  0 h,  0 min,  0.053 sec
 *  cpu-time:     0 d,  0 h,  0 min,  0.275 sec
 * ratio c/w:     5.227 speedup


-------------------------   --------------------
FINAL SINGLE POINT ENERGY       -12.416175113490
-------------------------   --------------------


-------------
DIPOLE MOMENT
-------------
                                X             Y             Z
Total Dipole Moment    :      0.00100      -1.87400      -1.07700
                        -----------------------------------------
Magnitude (a.u.)       :      2.16144
Magnitude (Debye)      :      5.49393


------------------
CARTESIAN GRADIENT
------------------

   1   C   :    0.000000815    0.000453773    0.000597788
   2   H   :   -0.000005266   -0.000672182   -0.000124517
   3   H   :    0.000015034    0.000028957   -0.000130392
   4   H   :   -0.000014166    0.000029264   -0.000132041
   5   F   :    0.000002982    0.000164025   -0.000145703
   6   I   :    0.000000602   -0.000003838   -0.000065135

Difference to translation invariance:
           :   -0.0000000000   -0.0000000000    0.0000000000

Difference to rotation invariance:
           :   -0.0000000496    0.0000000031   -0.0000000005

Norm of the Cartesian gradient     ...    0.0010581022
RMS gradient                       ...    0.0002493971
MAX gradient                       ...    0.0006721817
------------------------------------------------------------------------------
                         ORCA GEOMETRY RELAXATION STEP
------------------------------------------------------------------------------

Reading the OPT-File                    .... done
Getting information on internals        .... done
Copying old internal coords+grads       .... done
Making the new internal coordinates     .... (2022 redundants) done
Validating the new internal coordinates .... (2022 redundants) done
Calculating the B-matrix                .... done
Calculating the G,G- and P matrices     .... done
Transforming gradient to internals      .... done
Projecting the internal gradient        .... done
Number of atoms                         ....   6
Number of internal coordinates          ....  15
Current Energy                          ....   -12.416175113 Eh
Current gradient norm                   ....     0.001058102 Eh/bohr
Maximum allowed component of the step   ....  0.300
Current trust radius                    ....  0.450
Updating the Hessian (BFGS)             .... done
Forming the augmented Hessian           .... done
Diagonalizing the augmented Hessian     .... done
Last element of RFO vector              ....  0.999941938
Lowest eigenvalues of augmented Hessian:
 -0.000008559  0.033302059  0.085936128  0.098154140  0.119120861
Length of the computed step             ....  0.010776522
The final length of the internal step   ....  0.010776522
Converting the step to Cartesian space:
 Initial RMS(Int)=    0.0027824860
Transforming coordinates:
 Iter   0:  RMS(Cart)=    0.0042573424 RMS(Int)=    0.0027793369
done
Storing new coordinates                 .... done
The predicted energy change is          ....    -0.000004280
Previously predicted energy change      ....    -0.000004627
Actually observed energy change         ....    -0.000007137
Ratio of predicted to observed change   ....     1.542590610
New trust radius                        ....     0.300000000

                                .--------------------.
          ----------------------|Geometry convergence|-------------------------
          Item                value                   Tolerance       Converged
          ---------------------------------------------------------------------
          Energy change      -0.0000071371            0.0000050000      NO
          RMS gradient        0.0002265804            0.0001000000      NO
          MAX gradient        0.0006324228            0.0003000000      NO
          RMS step            0.0027824860            0.0020000000      NO
          MAX step            0.0088887831            0.0040000000      NO
          -------------------------------------------------------------------------
          ........................................................
          Max(Bonds)      0.0020      Max(Angles)    0.51
          Max(Dihed)        0.07      Max(Improp)    0.00
          ---------------------------------------------------------------------

The optimization has not yet converged - more geometry cycles are needed


    ---------------------------------------------------------------------------
                         Redundant Internal Coordinates
                            (Angstroem and degrees)

        Definition                    Value    dE/dq     Step     New-Value
    ----------------------------------------------------------------------------
     1. B(H   1,C   0)                1.1136 -0.000533  0.0020    1.1156   
     2. B(H   2,C   0)                1.0851 -0.000008  0.0000    1.0851   
     3. B(H   3,C   0)                1.0851 -0.000009  0.0000    1.0851   
     4. B(F   4,H   1)                1.6445 -0.000082 -0.0013    1.6431   
     5. B(I   5,C   0)                2.1766  0.000057 -0.0008    2.1758   
     6. A(H   1,C   0,H   3)          110.28  0.000120   -0.08    110.20   
     7. A(H   1,C   0,H   2)          110.28  0.000117   -0.08    110.19   
     8. A(H   1,C   0,I   5)          114.81 -0.000007   -0.02    114.79   
     9. A(H   2,C   0,I   5)          105.81 -0.000129    0.11    105.91   
    10. A(H   3,C   0,I   5)          105.81 -0.000129    0.11    105.91   
    11. A(H   2,C   0,H   3)          109.64  0.000011   -0.02    109.62   
    12. A(C   0,H   1,F   4)          159.75  0.000632   -0.51    159.24   
    13. D(F   4,H   1,C   0,H   3)     60.68  0.000085   -0.07     60.61   
    14. D(F   4,H   1,C   0,I   5)   -179.93  0.000002   -0.00   -179.94   
    15. D(F   4,H   1,C   0,H   2)    -60.55 -0.000084    0.06    -60.49   
    ----------------------------------------------------------------------------

Geometry step timings:
Preparation and reading OPT file:      0.000 s ( 3.179 %)
Internal coordinates            :      0.000 s ( 3.795 %)
B/P matrices and projection     :      0.000 s (13.538 %)
Hessian update/contruction      :      0.000 s (30.359 %)
Making the step                 :      0.000 s ( 8.410 %)
Converting the step to Cartesian:      0.000 s ( 2.872 %)
Storing new data                :      0.000 s ( 7.179 %)
Checking convergence            :      0.000 s ( 7.590 %)
Final printing                  :      0.000 s (23.077 %)
Total time                      :      0.001 s

Time for energy+gradient        :      0.096 s
Time for complete geometry iter :      0.098 s

         *************************************************************
         *                GEOMETRY OPTIMIZATION CYCLE   4            *
         *************************************************************
---------------------------------
CARTESIAN COORDINATES (ANGSTROEM)
---------------------------------
  C     0.000118   -0.496179   -0.272607
  H    -0.000442    0.221939    0.581167
  H     0.887301   -1.119923   -0.236860
  H    -0.886277   -1.121060   -0.237073
  F    -0.000332    0.765221    2.131904
  I    -0.000257    0.428251   -2.242255

----------------------------
CARTESIAN COORDINATES (A.U.)
----------------------------
  NO LB    ZA    FRAG    MASS        X           Y           Z
   0 C   6.0000    0    12.011    0.000223   -0.937642   -0.515153
   1 H   1.0000    0     1.008   -0.000835    0.419404    1.098246
   2 H   1.0000    0     1.008    1.676755   -2.116348   -0.447600
   3 H   1.0000    0     1.008   -1.674820   -2.118497   -0.448004
   4 F   9.0000    0    18.998   -0.000627    1.446059    4.028714
   5 I  53.0000    0   126.900   -0.000485    0.809277   -4.237248

      -----------------------------------------------------------      
     |                   =====================                   |     
     |                           x T B                           |     
     |                   =====================                   |     
     |                         S. Grimme                         |     
     |          Mulliken Center for Theoretical Chemistry        |     
     |                    University of Bonn                     |     
[...]
             Fermi-level           -0.0942159 Eh           -2.5637 eV

 SCC (total)                   0 d,  0 h,  0 min,  0.089 sec
 SCC setup                      ...        0 min,  0.000 sec (  0.185%)
 Dispersion                     ...        0 min,  0.000 sec (  0.055%)
 classical contributions        ...        0 min,  0.000 sec (  0.027%)
 integral evaluation            ...        0 min,  0.087 sec ( 98.196%)
 iterations                     ...        0 min,  0.001 sec (  0.899%)
 molecular gradient             ...        0 min,  0.000 sec (  0.502%)
 printout                       ...        0 min,  0.000 sec (  0.119%)

         :::::::::::::::::::::::::::::::::::::::::::::::::::::
         ::                     SUMMARY                     ::
         :::::::::::::::::::::::::::::::::::::::::::::::::::::
         :: total energy             -12.416188858663 Eh    ::
         :: gradient norm              0.000287118636 Eh/a0 ::
         :: HOMO-LUMO gap              1.114517061702 eV    ::
         ::.................................................::
         :: SCC energy               -12.470831318197 Eh    ::
         :: -> isotropic ES            0.219440535067 Eh    ::
         :: -> anisotropic ES         -0.006204723521 Eh    ::
         :: -> anisotropic XC         -0.003182353741 Eh    ::
         :: -> dispersion             -0.002584262496 Eh    ::
         :: repulsion energy           0.054642459534 Eh    ::
         :: add. restraining           0.000000000000 Eh    ::
         :: total charge              -0.999999999102 e     ::
         :::::::::::::::::::::::::::::::::::::::::::::::::::::

           ------------------------------------------------- 
          |                Numerical Hessian                |
           ------------------------------------------------- 
step length          :   0.00500
SCC accuracy         :   0.30000
Hessian scale factor :   1.00000
frozen atoms in %    :   0.00000    0
RMS gradient         :   0.00029
estimated CPU  time      0.00 min
estimated wall time      0.00 min

writing file <hessian>.

 projected vibrational frequencies (cm⁻¹)
eigval :       -0.00    -0.00     0.00     0.00     0.00     0.00
eigval :       77.66   257.73   297.71   521.05   875.64   959.05
eigval :     1301.22  1402.60  1441.80  2535.18  3032.91  3039.71

Property printout bound to 'properties.out'
Molecule has the following symmetry elements: (sigma) 
It seems to be the Cs point group

           -------------------------------------------------
          | TOTAL ENERGY              -12.416188858664 Eh   |
          | TOTAL ENTHALPY            -12.374535295689 Eh   |
          | TOTAL FREE ENERGY         -12.410230940618 Eh   |
          | GRADIENT NORM               0.000287110243 Eh/α |
          | HOMO-LUMO GAP               1.114517187068 eV   |
           -------------------------------------------------

------------------------------------------------------------------------
 * finished run on 2026/03/12 at 12:38:58.691     
------------------------------------------------------------------------
 total:
 * wall-time:     0 d,  0 h,  0 min,  0.113 sec
 *  cpu-time:     0 d,  0 h,  0 min,  0.497 sec
 * ratio c/w:     4.397 speedup
 SCF:
 * wall-time:     0 d,  0 h,  0 min,  0.089 sec
 *  cpu-time:     0 d,  0 h,  0 min,  0.357 sec
 * ratio c/w:     4.010 speedup
 analytical hessian:
 * wall-time:     0 d,  0 h,  0 min,  0.010 sec
 *  cpu-time:     0 d,  0 h,  0 min,  0.079 sec
 * ratio c/w:     7.843 speedup


-------------------------   --------------------
FINAL SINGLE POINT ENERGY       -12.416188858660
-------------------------   --------------------


-------------
DIPOLE MOMENT
-------------
                                X             Y             Z
Total Dipole Moment    :      0.00100      -1.81400      -1.07900
                        -----------------------------------------
Magnitude (a.u.)       :      2.11065
Magnitude (Debye)      :      5.36484


-----------------------
VIBRATIONAL FREQUENCIES
-----------------------

Scaling factor for frequencies =  1.000000000  (already applied!)

     0:       0.00 cm**-1
     1:       0.00 cm**-1
     2:       0.00 cm**-1
     3:       0.00 cm**-1
     4:       0.00 cm**-1
     5:       0.00 cm**-1
     6:      77.66 cm**-1
     7:     257.73 cm**-1
     8:     297.70 cm**-1
     9:     521.04 cm**-1
    10:     875.61 cm**-1
    11:     959.03 cm**-1
    12:    1301.19 cm**-1
    13:    1402.56 cm**-1
    14:    1441.76 cm**-1
    15:    2535.10 cm**-1
    16:    3032.83 cm**-1
    17:    3039.63 cm**-1


------------
NORMAL MODES
------------

These modes are the Cartesian displacements weighted by the diagonal matrix
M(i,i)=1/sqrt(m[i]) where m[i] is the mass of the displaced atom
Thus, these vectors are normalized but *not* orthogonal

                  0          1          2          3          4          5    
      0       0.000000   0.000000   0.000000   0.000000   0.000000   0.000000
      1       0.000000   0.000000   0.000000   0.000000   0.000000   0.000000
      2       0.000000   0.000000   0.000000   0.000000   0.000000   0.000000
      3       0.000000   0.000000   0.000000   0.000000   0.000000   0.000000
      4       0.000000   0.000000   0.000000   0.000000   0.000000   0.000000
      5       0.000000   0.000000   0.000000   0.000000   0.000000   0.000000
      6       0.000000   0.000000   0.000000   0.000000   0.000000   0.000000
      7       0.000000   0.000000   0.000000   0.000000   0.000000   0.000000
      8       0.000000   0.000000   0.000000   0.000000   0.000000   0.000000
      9       0.000000   0.000000   0.000000   0.000000   0.000000   0.000000
     10       0.000000   0.000000   0.000000   0.000000   0.000000   0.000000
     11       0.000000   0.000000   0.000000   0.000000   0.000000   0.000000
     12       0.000000   0.000000   0.000000   0.000000   0.000000   0.000000
     13       0.000000   0.000000   0.000000   0.000000   0.000000   0.000000
     14       0.000000   0.000000   0.000000   0.000000   0.000000   0.000000
     15       0.000000   0.000000   0.000000   0.000000   0.000000   0.000000
     16       0.000000   0.000000   0.000000   0.000000   0.000000   0.000000
     17       0.000000   0.000000   0.000000   0.000000   0.000000   0.000000
                  6          7          8          9         10         11    
      0       0.000174  -0.000271  -0.105590   0.000094   0.000099  -0.097416
      1      -0.380006   0.385545  -0.000150  -0.203481  -0.089803  -0.000089
      2      -0.149143   0.101158  -0.000019   0.543993  -0.026644  -0.000019
      3       0.000351  -0.000864  -0.576380   0.000091  -0.000379   0.348651
      4      -0.474160   0.501381  -0.000458  -0.133705   0.512058   0.000390
      5      -0.034203   0.007305  -0.000091   0.477301  -0.639277  -0.000157
      6       0.002615  -0.006419   0.218567   0.017766   0.042341   0.147399
      7      -0.385977   0.380537   0.476755  -0.176967   0.024589   0.289778
      8      -0.258388   0.242692   0.228471   0.414999   0.397329  -0.573252
      9      -0.002406   0.006607   0.219198  -0.017633  -0.042561   0.147618
     10      -0.385734   0.379440  -0.476629  -0.176920   0.024770  -0.289576
     11      -0.258340   0.242236  -0.228471   0.415035   0.397009   0.573548
     12      -0.000072   0.000125   0.043913   0.000005   0.000000  -0.003618
     13       0.143214  -0.195858   0.000065  -0.021504  -0.002648  -0.000004
     14      -0.386185  -0.377795   0.000061  -0.074287   0.003198   0.000002
     15      -0.000010   0.000012   0.004521  -0.000011  -0.000005   0.004649
     16       0.024423  -0.017189   0.000007   0.026352   0.004437   0.000004
     17       0.076308   0.043075  -0.000007  -0.050752   0.000811   0.000000
                 12         13         14         15         16         17    
      0       0.000014   0.063020   0.000055  -0.000043  -0.000327  -0.092099
      1      -0.027700   0.000056  -0.073741   0.054431  -0.062723   0.000204
      2       0.105368   0.000001  -0.015502   0.056827   0.000753  -0.000012
      3      -0.000302  -0.779013   0.000012   0.000568  -0.000164  -0.039067
      4       0.411906  -0.000561  -0.176727  -0.720026   0.010302  -0.000064
      5      -0.371937  -0.000055   0.123338  -0.685308   0.034011  -0.000142
      6       0.079988  -0.073416   0.395881  -0.035727  -0.596598   0.570780
      7       0.076151  -0.164855   0.562344   0.038406   0.370174  -0.415934
      8      -0.572638  -0.402505   0.030821   0.010368  -0.022548   0.018074
      9      -0.079978  -0.073589  -0.396605   0.035680   0.600654   0.565282
     10       0.076082   0.164623   0.561897   0.038455   0.374219   0.413538
     11      -0.572556   0.402566   0.030835   0.010366  -0.022571  -0.017772
     12       0.000001   0.003587   0.000000  -0.000001   0.000001   0.000207
     13      -0.001614   0.000003   0.000119   0.000737  -0.000020   0.000000
     14       0.000431  -0.000001  -0.000934  -0.001978  -0.000230   0.000001
     15       0.000001   0.000854   0.000000   0.000000  -0.000000  -0.000028
     16      -0.001618   0.000001  -0.000565  -0.000153  -0.000055   0.000000
     17       0.002013   0.000000   0.000138   0.000196   0.000052  -0.000000


The first frequency considered to be a vibration is 6
The total number of vibrations considered is 12


--------------------------
THERMOCHEMISTRY AT 298.15K
--------------------------

Temperature         ...   298.15 K
Pressure            ...     1.00 atm
Total Mass          ...   160.93 AMU
Quasi RRHO          ...     True
Cut-Off Frequency   ...     1.00 cm^-1

Throughout the following assumptions are being made:
  (1) The electronic state is orbitally nondegenerate
  (2) There are no thermally accessible electronically excited states
  (3) Hindered rotations indicated by low frequency modes are not
      treated as such but are treated as vibrations and this may
      cause some error
  (4) All equations used are the standard statistical mechanics
      equations for an ideal gas
  (5) All vibrations are strictly harmonic

freq.      77.66  E(vib)   ...       0.49 
freq.     257.73  E(vib)   ...       0.30 
freq.     297.70  E(vib)   ...       0.27 
freq.     521.04  E(vib)   ...       0.13 
freq.     875.61  E(vib)   ...       0.04 
freq.     959.03  E(vib)   ...       0.03 
freq.    1301.19  E(vib)   ...       0.01 
freq.    1402.56  E(vib)   ...       0.00 
freq.    1441.76  E(vib)   ...       0.00 
freq.    2535.10  E(vib)   ...       0.00 
freq.    3032.83  E(vib)   ...       0.00 
freq.    3039.63  E(vib)   ...       0.00 

------------
INNER ENERGY
------------

The inner energy is: U= E(el) + E(ZPE) + E(vib) + E(rot) + E(trans)
    E(el)   - is the total energy from the electronic structure calculation
              = E(kin-el) + E(nuc-el) + E(el-el) + E(nuc-nuc)
    E(ZPE)  - the the zero temperature vibrational energy from the frequency calculation
    E(vib)  - the the finite temperature correction to E(ZPE) due to population
              of excited vibrational states
    E(rot)  - is the rotational thermal energy
    E(trans)- is the translational thermal energy

Summary of contributions to the inner energy U:
Electronic energy                ...    -12.41618886 Eh
Zero point energy                ...      0.03586255 Eh      22.50 kcal/mol
Thermal vibrational correction   ...      0.00201327 Eh       1.26 kcal/mol
Thermal rotational correction    ...      0.00141627 Eh       0.89 kcal/mol
Thermal translational correction ...      0.00141627 Eh       0.89 kcal/mol
-----------------------------------------------------------------------
Total thermal energy                    -12.37548049 Eh


Summary of corrections to the electronic energy:
(perhaps to be used in another calculation)
Total thermal correction                  0.00484581 Eh       3.04 kcal/mol
Non-thermal (ZPE) correction              0.03586255 Eh      22.50 kcal/mol
-----------------------------------------------------------------------
Total correction                          0.04070837 Eh      25.54 kcal/mol


--------
ENTHALPY
--------

The enthalpy is H = U + kB*T
                kB is Boltzmann's constant
Total thermal energy              ...    -12.37548049 Eh 
Thermal Enthalpy correction       ...      0.00094421 Eh       0.59 kcal/mol
-----------------------------------------------------------------------
Total Enthalpy                    ...    -12.37453628 Eh


WARNING (ORCA/SYM): The number of Z matrix atoms does not agree with
the number of centers in the basis set. The point group will therefore
be determined without considering basis set information.


Note: Only C1 symmetry has been detected, increase convergence thresholds 
      if your molecule has a higher symmetry. Symmetry factor of 1.0 is   
      used for the rotational entropy correction. 
 

Note: Rotational entropy computed according to Herzberg 
Infrared and Raman Spectra, Chapter V,1, Van Nostrand Reinhold, 1945 
Point Group:  C1, Symmetry Number:   1  
Rotational constants in cm-1:     0.949226     0.047982     0.046069 

Vibrational entropy computed according to the QRRHO of S. Grimme
Chem.Eur.J. 2012 18 9955 using a reference frequency of 100.0 cm-1


-------
ENTROPY
-------

The entropy contributions are T*S = T*(S(el)+S(vib)+S(rot)+S(trans))
     S(el)   - electronic entropy
     S(vib)  - vibrational entropy
     S(rot)  - rotational entropy
     S(trans)- translational entropy
The entropies will be listed as multiplied by the temperature to get
units of energy

Electronic entropy                ...      0.00000000 Eh      0.00 kcal/mol
Vibrational entropy               ...      0.00350645 Eh      2.20 kcal/mol
Rotational entropy                ...      0.01242202 Eh      7.79 kcal/mol
Translational entropy             ...      0.01954513 Eh     12.26 kcal/mol
-----------------------------------------------------------------------
Final entropy term                ...      0.03547360 Eh     22.26 kcal/mol

In case the symmetry of your molecule has not been determined correctly
or in case you have a reason to use a different symmetry number we print 
out the resulting rotational entropy values for sn=1,12:

 non-linear molecules -----------------------------------
|  sn= 1 | S(rot)=       0.01242202 Eh      7.79 kcal/mol|
|  sn= 2 | S(rot)=       0.01176756 Eh      7.38 kcal/mol|
|  sn= 3 | S(rot)=       0.01138473 Eh      7.14 kcal/mol|
|  sn= 4 | S(rot)=       0.01111311 Eh      6.97 kcal/mol|
|  sn= 5 | S(rot)=       0.01090242 Eh      6.84 kcal/mol|
|  sn= 6 | S(rot)=       0.01073028 Eh      6.73 kcal/mol|
|  sn= 7 | S(rot)=       0.01058473 Eh      6.64 kcal/mol|
|  sn= 8 | S(rot)=       0.01045865 Eh      6.56 kcal/mol|
|  sn= 9 | S(rot)=       0.01034744 Eh      6.49 kcal/mol|
|  sn=10 | S(rot)=       0.01024796 Eh      6.43 kcal/mol|
|  sn=11 | S(rot)=       0.01015797 Eh      6.37 kcal/mol|
|  sn=12 | S(rot)=       0.01007582 Eh      6.32 kcal/mol|
 linear molecules ---------------------------------------
|  Dinfh | S(rot)=       0.00823163 Eh      5.17 kcal/mol|
|  Cinfv | S(rot)=       0.00888608 Eh      5.58 kcal/mol|
 --------------------------------------------------------


-------------------
GIBBS FREE ENERGY
-------------------

The Gibbs free energy is G = H - T*S

Total enthalpy                    ...    -12.37453628 Eh 
Total entropy correction          ...     -0.03547360 Eh    -22.26 kcal/mol
-----------------------------------------------------------------------
Final Gibbs free energy         ...    -12.41000988 Eh

For completeness - the Gibbs free energy minus the electronic energy
G-E(el)                           ...      0.00617898 Eh      3.88 kcal/mol


--------------------------------
SUGGESTED CITATIONS FOR THIS RUN
--------------------------------

Below you find a list of papers that are relevant to this ORCA run
We neither can nor want to force you to cite these papers, but we appreciate if you do
You receive ORCA, which is the product of decades of hard work by many enthusiastic individuals, for free
The only thing we kindly ask in return is that you cite our papers,
We deeply appreciate it, if you show your appreciation for ORCA by not just citing the generic ORCA reference.

Please note that relegating all ORCA citations to the supporting information does *not* help us.
SI sections are not indexed - citations you put there will not count into any citation statistics
But we need these citations in order to attract the funding resources that allow us to do what we are doing

Therefore, if you are a happy ORCA user, please consider citing a few of the papers listed below in the main body of your paper

In addition to the list printed below, the program has created the file reactant_optfreq.bibtex that contains the list in bibtex format
You can import this file easily into all common literature databanks and citation aid programs


List of essential papers. We consider these as the minimum necessary citations

  1. Bannwarth, C.; Ehlert, S.; Grimme, S.
     GFN2-xTB—An Accurate and Broadly Parametrized Self-Consistent Tight-Binding Quantum Chemical Method with Multipole Electrostatics and Density-Dependent Dispersion Contributions
     J. Chem. Theory Comput. 2019 15(3), 1652-1671
     doi.org/10.1021/acs.jctc.8b01176
  2. Neese, F.
     Software update: the ORCA program system, version 6.0
     WIRES Comput. Molec. Sci. 2025 15(1), e70019
     doi.org/10.1002/wcms.7019

List of papers to cite with high priority. The work reported in these papers was absolutely
necessary for this run to complete.
Our perspective: the developers of density functionals and basis sets usually get cited in chemistry papers
Good! But without the algorithms to do something with them, the functionals or basis sets would not do anything.
Hence, in our opinion, the algorithm design and method developments papers are equally worthy of getting cited

  1. Bykov, D.; Petrenko, T.; Izsak, R.; Kossmann, S.; Becker, U.; Valeev, E.; Neese, F.
     Efficient implementation of the analytic second derivatives of Hartree-Fock and hybrid DFT energies: a detailed analysis of different approximations
     Molec. Phys. 2015 113 , 1961-1977
     doi.org/10.1080/00268976.2015.1025114
  2. Bannwarth, C.; Caldeweyher, E.; Ehlert, S.; Hansen, A.; Pracht, P.; Seibert, J.; Spicher, S.; Grimme, S.
     Extended tight-binding quantum chemistry methods
     WIRES Comput. Molec. Sci. 2020 11(2), e1493
     doi.org/10.1002/wcms.1493

List of suggested additional citations. These are papers that are important in the 'surrounding' of 
of this run, or papers that preceded the highly important papers. If you like your results we are grateful for a citation.

  1. Neese, F.
     The ORCA program system
     WIRES Comput. Molec. Sci. 2012 2(1), 73-78
     doi.org/10.1002/wcms.81
  2. Neese, F.
     Software update: the ORCA program system, version 4.0
     WIRES Comput. Molec. Sci. 2018 8(1), 1-6
     doi.org/10.1002/wcms.1327
  3. Neese, F.; Wennmohs, F.; Becker, U.; Riplinger, C.
     The ORCA quantum chemistry program package
     J. Chem. Phys. 2020 152(22), 224108
     doi.org/10.1063/5.0004608
  4. Neese, F.
     Software update: The ORCA program system—Version 5.0
     WIRES Comput. Molec. Sci. 2022 12(1), e1606
     doi.org/10.1002/wcms.1606

List of optional additional citations

  1. Neese, F.
     Approximate second-order SCF convergence for spin unrestricted wavefunctions
     Chem. Phys. Lett. 2000 325(1-3), 93-98
     doi.org/10.1016/s0009-2614(00)00662-x

Timings for individual modules:

Sum of individual times          ...        1.002 sec (=   0.017 min)
Geometry relaxation              ...        0.013 sec (=   0.000 min)   1.3 %
XTB module                       ...        0.990 sec (=   0.016 min)  98.7 %
                             ****ORCA TERMINATED NORMALLY****
TOTAL RUN TIME: 0 days 0 hours 0 minutes 1 seconds 471 msec
