
                                 *****************
                                 * O   R   C   A *
                                 *****************

                                            #,                                       
                                            ###                                      
                                            ####                                     
                                            #####                                    
                                            ######                                   
                                           ########,                                 
                                     ,,################,,,,,                         
                               ,,#################################,,                 
                          ,,##########################################,,             
                       ,#########################################, ''#####,          
                    ,#############################################,,   '####,        
                  ,##################################################,,,,####,       
                ,###########''''           ''''###############################       
              ,#####''   ,,,,##########,,,,          '''####'''          '####       
            ,##' ,,,,###########################,,,                        '##       
           ' ,,###''''                  '''############,,,                           
         ,,##''                                '''############,,,,        ,,,,,,###''
      ,#''                                            '''#######################'''  
     '                                                          ''''####''''         
             ,#######,   #######,   ,#######,      ##                                
            ,#'     '#,  ##    ##  ,#'     '#,    #''#        ,####,    ,#,          
            ##       ##  ##   ,#'  ##            #'  '#       #'       ,# #          
            ##       ##  #######   ##           ,######,      #####,      #          
            '#,     ,#'  ##    ##  '#,     ,#' ,#      #,     #,   #      #          
             '#######'   ##     ##  '#######'  #'      '#     '####' #    #          



                #########################################################
                #                        -***-                          #
                #          Department of theory and spectroscopy        #
                #                                                       #
                #                      Frank Neese                      #
                #                                                       #
                #     Directorship, Architecture, Infrastructure        #
                #                    SHARK, DRIVERS                     #
                #        Core code/Algorithms in most modules           #
                #                                                       #
                #        Max Planck Institute fuer Kohlenforschung      #
                #                Kaiser Wilhelm Platz 1                 #
                #                 D-45470 Muelheim/Ruhr                 #
                #                      Germany                          #
                #                                                       #
                #                  All rights reserved                  #
                #                        -***-                          #
                #########################################################


                         Program Version 6.1.0  -  RELEASE   -
                                (GIT: $679e74b$)
                          ($2025-06-10 18:02:51 +0200$)


 With contributions from (in alphabetic order):
[Max-Planck-Institut fuer Kohlenforschung]                               
  Daniel Aravena         : Magnetic Suceptibility                        
  Michael Atanasov       : Ab Initio Ligand Field Theory (pilot matlab implementation)
  Alexander A. Auer      : GIAO ZORA, VPT2 properties, NMR spectrum      
  Ute Becker             : All parallelization in ORCA, NUMFREQ, NUMCALC 
  Giovanni Bistoni       : ED, misc. LED, open-shell LED, HFLD           
  Dmytro Bykov           : pre 5.0 version of the SCF Hessian            
  Marcos Casanova-Páez   : Triplet and SCS-CIS(D). UHF-(DLPNO)-IP/EA/STEOM-CCSD. UHF-CVS-IP/STEOM-CCSD   
  Vijay G. Chilkuri      : MRCI spin determinant printing, contributions to CSF-ICE 
  Pauline Colinet        : FMM embedding                                 
  Dipayan Datta          : RHF DLPNO-CCSD density                        
  Achintya Kumar Dutta   : EOM-CC, STEOM-CC                              
  Nicolas Foglia         : Exact transition moments, OPA infrastructure, MCD improvements    
  Dmitry Ganyushin       : Spin-Orbit,Spin-Spin,Magnetic field MRCI      
  Miquel Garcia-Rates    : C-PCM and meta-GGA Hessian, CCSD/C-PCM, Gaussian charge scheme 
  Tiago L. C. Gouveia    : GS-ROHF, GS-ROCIS                             
  Yang Guo               : DLPNO-NEVPT2, F12-NEVPT2, CIM, IAO-localization        
  Andreas Hansen         : Spin unrestricted coupled pair/coupled cluster methods 
  Ingolf Harden          : AUTO-CI MPn and infrastructure                
  Benjamin Helmich-Paris : MC-RPA, TRAH-(SCF,CASSCF), AVAS, COSX integrals, SCF dyn. polar., MC-PDFT, srDFT 
  Lee Huntington         : MR-EOM, pCC                                   
  Robert Izsak           : Overlap fitted RIJCOSX, COSX-SCS-MP3, EOM     
  Riya Kayal             : Wick's Theorem for AUTO-CI, AUTO-CI UHF-CCSDT 
  Emily Kempfer          : AUTO-CI RHF CISDT and CCSDT, approximate NEVPT4
  Christian Kollmar      : KDIIS, OOCD, Brueckner-CCSD(T), CCSD density, CASPT2, CASPT2-K, improved NEVPT2 
  Axel Koslowski         : Symmetry handling                             
  Simone Kossmann        : meta-GGA functionals, TD-DFT gradient, OOMP2, (MP2 Hessian; deprecated post 5.0) 
  Lucas Lang             : DCDCAS, Hyperfine gauge corrections, ICE-SOC+SSC
  Marvin Lechner         : AUTO-CI (C++ implementation), FIC-MRCC        
  Spencer Leger          : CASSCF response                               
  Dagmar Lenk            : GEPOL surface, SMD, ORCA-2-JSON               
  Dimitrios Liakos       : Extrapolation schemes; Compound Job, Property file
  Dimitrios Manganas     : Further ROCIS development; embedding schemes. LFT, Crystal Embedding 
  Dimitrios Pantazis     : SARC Basis sets                               
  Anastasios Papadopoulos: AUTO-CI, single reference methods and gradients 
  Taras Petrenko         : pre 6.0 DFT Hessian and TD-DFT gradient,  ECA, NRVS 
  Petra Pikulova         : Analytic Raman intensities                    
  Peter Pinski           : DLPNO-MP2, DLPNO-MP2 Gradient                 
  Shashank Vittal Rao    : ES-AILFT, MagRelax                            
  Christoph Reimann      : Effective Core Potentials                     
  Marius Retegan         : Local ZFS, SOC                                
  Christoph Riplinger    : Optimizer, TS searches, QM/MM, DLPNO-CCSD(T), (RO)-DLPNO pert. Triples 
  Michael Roemelt        : Original ROCIS implementation, recursive CI coupling coefficients
  Masaaki Saitow         : Open-shell DLPNO-CCSD energy and density      
  Barbara Sandhoefer     : DKH picture change effects                    
  Yorick L. A. Schmerwitz: GMF and freeze-and-release deltaSCF, NEB S-IDPP initial path                    
  Kantharuban Sivalingam : CASSCF convergence/infrastructure, NEVPT2, NEVPT3, NEVPT4(SD), FIC-MRCI and CEPA variants
  Bernardo de Souza      : ESD, SOC TD-DFT                               
  Georgi L. Stoychev     : AutoAux, RI-MP2 NMR, DLPNO-MP2 response, X2C  
  Van Anh Tran           : RI-MP2 g-tensors                              
  Willem Van den Heuvel  : Paramagnetic NMR                              
  Zikuan Wang            : NOTCH, Electric field optimization            
  Frank Wennmohs         : Technical directorship and infrastructure     
  Hang Xu                : AUTO-CI-Response properties                   
                                                                         
[FACCTs GmbH]                                                            
  Markus Bursch, Nicolas Foglia, Miquel Garcia-Rates, Ingolf Harden, Hagen Neugebauer, Anastasios Papadopoulos, 
  Christoph Riplinger, Bernardo de Souza, Georgi L. Stoychev                                                    
                                                                 
  APM, various basis sets, CI-OPT, improved COSX, DLPNO-Multilevel,           
  DOCKER, DRACO, updates on ESD, Fragmentator, GOAT, IRC, LR-CPCM, L-BFGS, MBIS, meta-GGA TD-DFT gradient, ML-optimized integration grids, 
  MM, NACMEs, nearIR, NEB, NEB-TS, NL-DFT gradient (VV10), 2- and 3-layer-ONIOM, interface openCOSMO-RS, QMMM,   
  Crystal-QMMM, RESP, rigid body optimization, SF, symmetry and pop. for TD-DFT, various functionals, SOLVATOR                                   
                                                                         
[Other institutions]                                                     
  V. Asgeirsson          : NEB                                           
  Christoph Bannwarth    : sTDA-DFT, sTD-DFT, PBEh-3c, B97-3c, D3        
  Giovanni Bistoni       : ETS/NOCV, ADLD/ADEX, COVALED                  
  Martin Brehm           : Molecular dynamics                            
  Ronald Cardenas        : ETS/NOCV                                      
  Martina Colucci        : COVALED                                       
  Sebastian Ehlert       : rSCAN, r2SCAN, r2SCAN-3c, D4, dhf basis sets  
  Marvin Friede          : D4 for Fr, Ra, Ac-Lr                          
  Lars Goerigk           : TD-DFT with DH, B97 family of functionals     
  Stefan Grimme          : VdW corrections, initial TS optimization, DFT functionals, gCP, sTDA/sTD-DF 
  Waldemar Hujo          : DFT-NL                                        
  H. Jonsson             : NEB                                           
  Holger Kruse           : gCP                                           
  Marcel Mueller         : wB97X-3c, vDZP basis set                      
  Hagen Neugebauer       : wr2SCAN, Native XTB                           
  Gianluca Regni         : ADLD/ADEX                                     
  Tobias Risthaus        : pre 6.0 range-separated hybrid DFT and stability analysis
  Lukas Wittmann         : regularized MP2, r2SCAN double-hybrids, wr2SCAN        
                                                                         
We gratefully acknowledge several colleagues who have allowed us to      
interface, adapt or use parts of their codes:                            
  Ed Valeev, F. Pavosevic, A. Kumar             : LibInt (2-el integral package), F12 methods 
  Garnet Chan, S. Sharma, J. Yang, R. Olivares  : DMRG                   
  Ulf Ekstrom                                   : XCFun DFT Library      
  Mihaly Kallay                                 : mrcc  (arbitrary order and MRCC methods)
  Frank Weinhold                                : gennbo (NPA and NBO analysis)           
  Simon Mueller                                 : openCOSMO-RS                            
  Christopher J. Cramer and Donald G. Truhlar   : smd solvation model                     
  S Lehtola, MJT Oliveira, MAL Marques          : LibXC Library                           
  Liviu Ungur et al                             : ANISO software                          


 Your calculation uses the libint2 library for the computation of 2-el integrals
 For citations please refer to: http://libint.valeyev.net

 Your ORCA version has been built with support for libXC version: 7.0.0
 For citations please refer to: https://libxc.gitlab.io

 This ORCA versions uses:
   CBLAS   interface :  Fast vector & matrix operations
   LAPACKE interface :  Fast linear algebra routines
   SCALAPACK package :  Parallel linear algebra routines
   Shared memory     :  Shared parallel matrices
   BLAS/LAPACK       :  OpenBLAS 0.3.29  USE64BITINT DYNAMIC_ARCH NO_AFFINITY SkylakeX SINGLE_THREADED
        Core in use  :  SkylakeX
   Copyright (c) 2011-2014, The OpenBLAS Project


  ***********************************
  * Starting time: Thu Mar 12 12:46:47 2026
  * Host name:     midway3-login4.rcc.local
  * Process ID:    2791281
  * Working dir.:  /home/rzhu16/orca_TS_search/sn2_cl_f/geo_opt_reactant_product
  ***********************************

Your calculation utilizes the semiempirical GFN2-xTB method
Please cite in your paper:
Bannwarth, C.; Ehlert S.; Grimme, S. J. Chem. Theory Comput. 2019, 15, 1652.
   

================================================================================

================================================================================
                                        WARNINGS
                       Please study these warnings very carefully!
================================================================================


WARNING: Analytical Hessian for XTB is limited in the analysis of the data.
       : If you want to obtain extensive IR and deltaG analysis, please use ! XTB NumFreq. 


WARNING: Geometry Optimization
  ===> : Switching off AutoStart
         For restart on a previous wavefunction, please use MOREAD

WARNING: Found dipole moment calculation with XTB calculation
  ===> : Switching off dipole moment calculation


WARNING: Found frequency calculation in combination with XTB calculation
  ===> : Need to redirect dipole moment calculation to properties.out


================================================================================
                                       INPUT FILE
================================================================================
NAME = product_optfreq.inp
|  1> ! XTB2 Opt Freq PAL8
|  2> 
|  3> * xyz -1 1
|  4>   C       0.104013     -0.063478      0.017156
|  5>   H       0.098855      0.998997     -0.112657
|  6>   H       1.013100     -0.597467     -0.122300
|  7>   H      -0.826120     -0.578180     -0.109982
|  8>   Cl      0.134047     -0.077149      2.089278
|  9>   F       0.241954     -0.141627     -2.006749
| 10> *
| 11> 
| 12>                          ****END OF INPUT****
================================================================================

                       *****************************
                       * Geometry Optimization Run *
                       *****************************

Geometry optimization settings:
Update method            Update   .... BFGS
Choice of coordinates    CoordSys .... (2022) Redundant Internals
Initial Hessian          InHess   .... Almloef's Model
Max. no of cycles        MaxIter  .... 50

Convergence Tolerances:
Energy Change            TolE     ....  5.0000e-06 Eh
Max. Gradient            TolMAXG  ....  3.0000e-04 Eh/bohr
RMS Gradient             TolRMSG  ....  1.0000e-04 Eh/bohr
Max. Displacement        TolMAXD  ....  4.0000e-03 bohr
RMS Displacement         TolRMSD  ....  2.0000e-03 bohr
Strict Convergence                .... False

------------------------------------------------------------------------------
                        ORCA OPTIMIZATION COORDINATE SETUP
------------------------------------------------------------------------------

The optimization will be done in redundant internal coordinates (2022)
Making redundant internal coordinates   ...  (2022 redundants) done
Evaluating the initial hessian          ...  (Almloef) done
Evaluating the coordinates              ...  done
Calculating the B-matrix                .... done
Calculating the G-matrix                .... done
The number of degrees of freedom        ....   21

    -----------------------------------------------------------------
                    Redundant Internal Coordinates


    -----------------------------------------------------------------
         Definition                    Initial Value    Approx d2E/dq
    -----------------------------------------------------------------
      1. B(H   1,C   0)                  1.0704         0.387001   
      2. B(H   2,C   0)                  1.0635         0.396920   
      3. B(H   3,C   0)                  1.0706         0.386670   
      4. B(Cl  4,H   2)                  2.4361         0.010000   
      5. B(Cl  4,H   1)                  2.4511         0.010000   
      6. B(Cl  4,C   0)                  2.0724         0.114297   
      7. B(Cl  4,H   3)                  2.4515         0.010000   
      8. B(F   5,H   1)                  2.2156         0.010000   
      9. B(F   5,H   2)                  2.0865         0.010000   
     10. B(F   5,C   0)                  2.0301         0.049513   
     11. B(F   5,H   3)                  2.2202         0.010000   
     12. A(H   1,C   0,H   3)          117.2973         0.297490   
     13. A(H   2,C   0,H   3)          119.0570         0.298688   
     14. A(H   1,C   0,Cl  4)           97.3470         0.282499   
     15. A(H   2,C   0,Cl  4)           96.6274         0.283611   
     16. A(H   3,C   0,Cl  4)           97.3630         0.282462   
     17. A(H   1,C   0,F   5)           85.2753         0.238304   
     18. A(H   2,C   0,F   5)           77.9866         0.239162   
     19. A(H   3,C   0,F   5)           85.5342         0.238275   
     20. A(Cl  4,C   0,F   5)          174.6115         0.227542   
     21. A(H   1,C   0,H   2)          119.1180         0.298728   
    -----------------------------------------------------------------

Number of atoms                         .... 6
Number of degrees of freedom            .... 21


         *************************************************************
         *                GEOMETRY OPTIMIZATION CYCLE   1            *
         *************************************************************
---------------------------------
CARTESIAN COORDINATES (ANGSTROEM)
---------------------------------
  C     0.104013   -0.063478    0.017156
  H     0.098855    0.998997   -0.112657
  H     1.013100   -0.597467   -0.122300
  H    -0.826120   -0.578180   -0.109982
  Cl    0.134047   -0.077149    2.089278
  F     0.241954   -0.141627   -2.006749

----------------------------
CARTESIAN COORDINATES (A.U.)
----------------------------
  NO LB    ZA    FRAG    MASS        X           Y           Z
   0 C   6.0000    0    12.011    0.196556   -0.119956    0.032420
   1 H   1.0000    0     1.008    0.186809    1.887831   -0.212891
   2 H   1.0000    0     1.008    1.914482   -1.129049   -0.231114
   3 H   1.0000    0     1.008   -1.561141   -1.092602   -0.207836
   4 Cl 17.0000    0    35.453    0.253312   -0.145790    3.948163
   5 F   9.0000    0    18.998    0.457227   -0.267636   -3.792206

      -----------------------------------------------------------      
     |                   =====================                   |     
     |                           x T B                           |     
     |                   =====================                   |     
     |                         S. Grimme                         |     
     |          Mulliken Center for Theoretical Chemistry        |     
     |                    University of Bonn                     |     
      -----------------------------------------------------------      

   * xtb version 6.7.1 (edcfbbe) compiled by 'albert@albert-system' on 2024-07-22

   xtb is free software: you can redistribute it and/or modify it under
   the terms of the GNU Lesser General Public License as published by
   the Free Software Foundation, either version 3 of the License, or
   (at your option) any later version.
   
   xtb is distributed in the hope that it will be useful,
   but WITHOUT ANY WARRANTY; without even the implied warranty of
   MERCHANTABILITY or FITNESS FOR A PARTICULAR PURPOSE.  See the
   GNU Lesser General Public License for more details.
   
   Cite this work as:
   * C. Bannwarth, E. Caldeweyher, S. Ehlert, A. Hansen, P. Pracht,
     J. Seibert, S. Spicher, S. Grimme, WIREs Comput. Mol. Sci., 2020, 11,
     e01493. DOI: 10.1002/wcms.1493
   
   for GFN2-xTB:
   * C. Bannwarth, S. Ehlert and S. Grimme., J. Chem. Theory Comput., 2019,
     15, 1652-1671. DOI: 10.1021/acs.jctc.8b01176
   for GFN1-xTB:
   * S. Grimme, C. Bannwarth, P. Shushkov, J. Chem. Theory Comput., 2017,
     13, 1989-2009. DOI: 10.1021/acs.jctc.7b00118
   for GFN0-xTB:
   * P. Pracht, E. Caldeweyher, S. Ehlert, S. Grimme, ChemRxiv, 2019, preprint.
     DOI: 10.26434/chemrxiv.8326202.v1
   for GFN-FF:
   * S. Spicher and S. Grimme, Angew. Chem. Int. Ed., 2020, 59, 15665-15673.
     DOI: 10.1002/anie.202004239
   
   for ALPB and GBSA implicit solvation:
   * S. Ehlert, M. Stahn, S. Spicher, S. Grimme, J. Chem. Theory Comput.,
     2021, 17, 4250-4261. DOI: 10.1021/acs.jctc.1c00471
   
   for ddCOSMO and CPCM-X implicit solvation:
   * M. Stahn, S. Ehlert, S. Grimme, J. Phys. Chem. A,
     2023, XX, XXXX-XXXX. DOI: 10.1021/acs.jpca.3c04382
   
   for DFT-D4:
   * E. Caldeweyher, C. Bannwarth and S. Grimme, J. Chem. Phys., 2017,
     147, 034112. DOI: 10.1063/1.4993215
   * E. Caldeweyher, S. Ehlert, A. Hansen, H. Neugebauer, S. Spicher,
     C. Bannwarth and S. Grimme, J. Chem. Phys., 2019, 150, 154122.
     DOI: 10.1063/1.5090222
   * E. Caldeweyher, J.-M. Mewes, S. Ehlert and S. Grimme, Phys. Chem. Chem. Phys.
     2020, 22, 8499-8512. DOI: 10.1039/D0CP00502A
   
   for sTDA-xTB:
   * S. Grimme and C. Bannwarth, J. Chem. Phys., 2016, 145, 054103.
     DOI: 10.1063/1.4959605
   
   in the mass-spec context:
   * V. Asgeirsson, C. Bauer and S. Grimme, Chem. Sci., 2017, 8, 4879.
     DOI: 10.1039/c7sc00601b
   * J. Koopman and S. Grimme, ACS Omega 2019, 4, 12, 15120-15133.
     DOI: 10.1021/acsomega.9b02011
   
   for metadynamics refer to:
   * S. Grimme, J. Chem. Theory Comput., 2019, 155, 2847-2862
     DOI: 10.1021/acs.jctc.9b00143
   
   for SPH calculations refer to:
   * S. Spicher and S. Grimme, J. Chem. Theory Comput., 2021, 17, 1701-1714
     DOI: 10.1021/acs.jctc.0c01306
   
   for ONIOM refer to:
   * C. Plett, A. Katbashev, S. Ehlert, S. Grimme, M. Bursch,
     Phys. Chem. Chem. Phys., 2023, 25, 17860-17868. DOI: 10.1039/D3CP02178E
   
   for DIPRO refer to:
   * J. Kohn, N. Gildemeister, S. Grimme, D. Fazzi, A. Hansen,
     J. Chem. Phys., 2023, just accepted.
   
   for PTB refer to:
   * S. Grimme, M. Mueller, A. Hansen, J. Chem. Phys., 2023, 158, 124111.
     DOI: 10.1063/5.0137838
   
   with help from (in alphabetical order)
   P. Atkinson, C. Bannwarth, F. Bohle, G. Brandenburg, E. Caldeweyher
   M. Checinski, S. Dohm, S. Ehlert, S. Ehrlich, I. Gerasimov, C. Hölzer
   A. Katbashev, J. Kohn, J. Koopman, C. Lavigne, S. Lehtola, F. März, M. Müller,
   F. Musil, H. Neugebauer, J. Pisarek, C. Plett, P. Pracht, F. Pultar,
   J. Seibert, P. Shushkov, S. Spicher, M. Stahn, M. Steiner, T. Strunk,
   J. Stückrath, T. Rose, and J. Unsleber
   
 * started run on 2026/03/12 at 12:46:47.925     
   ID    Z sym.   atoms
    1    6 C      1
    2    1 H      2-4
    3   17 Cl     5
    4    9 F      6

           -------------------------------------------------
          |                Calculation Setup                |
           -------------------------------------------------

          program call               : /software/orca-6.1.0-el8-x86_64/bin/otool_xtb product_optfreq_XTB.xyz --grad -c -1 -u 0 -P 8 --namespace product_optfreq --input product_optfreq_XTB.input.tmp --acc 0.200000
          hostname                   : midway3-login4.rcc.local
          calculation namespace      : product_optfreq
          coordinate file            : product_optfreq_XTB.xyz
          omp threads                :                     8


molecular fragmentation (1/2 indicates fragments):
111112
# atoms in fragment 1/2:     5     1
 fragment masses (1/2) :       50.49       19.00
CMA distance (Bohr)    :   6.564
constraining FC (au)   :  0.0500

           -------------------------------------------------
          |                 G F N 2 - x T B                 |
           -------------------------------------------------

        Reference                      10.1021/acs.jctc.8b01176
      * Hamiltonian:
        H0-scaling (s, p, d)           1.850000    2.230000    2.230000
        zeta-weighting                 0.500000
      * Dispersion:
        s8                             2.700000
        a1                             0.520000
        a2                             5.000000
        s9                             5.000000
      * Repulsion:
        kExp                           1.500000    1.000000
        rExp                           1.000000
      * Coulomb:
        alpha                          2.000000
        third order                    shell-resolved
        anisotropic                    true
        a3                             3.000000
        a5                             4.000000
        cn-shift                       1.200000
        cn-exp                         4.000000
        max-rad                        5.000000


          ...................................................
          :                      SETUP                      :
          :.................................................:
          :  # basis functions                  21          :
          :  # atomic orbitals                  20          :
          :  # shells                           10          :
          :  # electrons                        22          :
          :  max. iterations                   250          :
          :  Hamiltonian                  GFN2-xTB          :
          :  restarted?                      false          :
          :  GBSA solvation                  false          :
          :  PC potential                    false          :
          :  electronic temp.          300.0000000     K    :
          :  accuracy                    0.2000000          :
          :  -> integral cutoff          0.3198970E+02      :
          :  -> integral neglect         0.2000000E-08      :
          :  -> SCF convergence          0.2000000E-06 Eh   :
          :  -> wf. convergence          0.2000000E-04 e    :
          :  Broyden damping             0.4000000          :
          :  net charge                         -1          :
          :  unpaired electrons                  0          :
          ...................................................

 iter      E             dE          RMSdq      gap      omega  full diag
   1    -13.1158955 -0.131159E+02  0.668E+00    4.85       0.0  T
   2    -13.1943366 -0.784410E-01  0.268E+00    2.61       1.0  T
   3    -13.2070946 -0.127580E-01  0.183E+00    3.73       1.0  T
   4    -13.2100354 -0.294084E-02  0.397E-01    3.24       1.0  T
   5    -13.2104584 -0.423005E-03  0.186E-01    3.32       1.0  T
   6    -13.2104759 -0.174520E-04  0.146E-01    3.31       1.0  T
   7    -13.2105378 -0.619465E-04  0.651E-02    3.31       1.0  T
   8    -13.2105483 -0.104925E-04  0.127E-02    3.30       3.2  T
   9    -13.2105491 -0.756307E-06  0.185E-03    3.31      22.1  T
  10    -13.2105491 -0.490928E-08  0.814E-04    3.31      50.1  T
  11    -13.2105491 -0.983642E-09  0.520E-04    3.31      78.5  T
  12    -13.2105491 -0.411553E-09  0.289E-04    3.31     141.3  T
  13    -13.2105491 -0.259538E-09  0.256E-05    3.31    1591.6  T
  14    -13.2105491 -0.138201E-11  0.105E-05    3.31    3891.6  T

   *** convergence criteria satisfied after 14 iterations ***

         #    Occupation            Energy/Eh            Energy/eV
      -------------------------------------------------------------
         1        2.0000           -0.8654461             -23.5500
       ...           ...                  ...                  ...
         5        2.0000           -0.3243078              -8.8249
         6        2.0000           -0.2815394              -7.6611
         7        2.0000           -0.2369409              -6.4475
         8        2.0000           -0.2368726              -6.4456
         9        2.0000           -0.1734203              -4.7190
        10        2.0000           -0.1691655              -4.6032
        11        2.0000           -0.1688728              -4.5953 (HOMO)
        12                         -0.0473687              -1.2890 (LUMO)
        13                          0.2330545               6.3417
        14                          0.2330616               6.3419
        15                          0.2338359               6.3630
        16                          0.2339075               6.3649
       ...                                ...                  ...
        20                          0.4566548              12.4262
      -------------------------------------------------------------
                  HL-Gap            0.1215041 Eh            3.3063 eV
             Fermi-level           -0.1081207 Eh           -2.9421 eV

 SCC (total)                   0 d,  0 h,  0 min,  0.135 sec
 SCC setup                      ...        0 min,  0.000 sec (  0.205%)
 Dispersion                     ...        0 min,  0.000 sec (  0.046%)
 classical contributions        ...        0 min,  0.000 sec (  0.028%)
 integral evaluation            ...        0 min,  0.132 sec ( 97.913%)
 iterations                     ...        0 min,  0.002 sec (  1.271%)
 molecular gradient             ...        0 min,  0.001 sec (  0.419%)
 printout                       ...        0 min,  0.000 sec (  0.103%)

         :::::::::::::::::::::::::::::::::::::::::::::::::::::
         ::                     SUMMARY                     ::
         :::::::::::::::::::::::::::::::::::::::::::::::::::::
         :: total energy             -13.150494916376 Eh    ::
         :: gradient norm              0.014662497709 Eh/a0 ::
         :: HOMO-LUMO gap              3.306293791797 eV    ::
         ::.................................................::
         :: SCC energy               -13.210549194714 Eh    ::
         :: -> isotropic ES            0.188180244979 Eh    ::
         :: -> anisotropic ES         -0.000255853449 Eh    ::
         :: -> anisotropic XC          0.002565310836 Eh    ::
         :: -> dispersion             -0.002061755997 Eh    ::
         :: repulsion energy           0.060054278338 Eh    ::
         :: add. restraining           0.000000000000 Eh    ::
         :: total charge              -1.000000000000 e     ::
         :::::::::::::::::::::::::::::::::::::::::::::::::::::


Property printout bound to 'properties.out'

           -------------------------------------------------
          | TOTAL ENERGY              -13.150494916376 Eh   |
          | GRADIENT NORM               0.014662497709 Eh/α |
          | HOMO-LUMO GAP               3.306293791797 eV   |
           -------------------------------------------------

------------------------------------------------------------------------
 * finished run on 2026/03/12 at 12:46:48.087     
------------------------------------------------------------------------
 total:
 * wall-time:     0 d,  0 h,  0 min,  0.161 sec
 *  cpu-time:     0 d,  0 h,  0 min,  0.703 sec
 * ratio c/w:     4.359 speedup
 SCF:
 * wall-time:     0 d,  0 h,  0 min,  0.135 sec
 *  cpu-time:     0 d,  0 h,  0 min,  0.628 sec
 * ratio c/w:     4.650 speedup


-------------------------   --------------------
FINAL SINGLE POINT ENERGY       -13.150494916380
-------------------------   --------------------


-------------
DIPOLE MOMENT
-------------
                                X             Y             Z
Total Dipole Moment    :     -0.39800       0.23000       0.20000
                        -----------------------------------------
Magnitude (a.u.)       :      0.50130
Magnitude (Debye)      :      1.27421


------------------
CARTESIAN GRADIENT
------------------

   1   C   :    0.000444110   -0.000229686    0.011047700
   2   H   :   -0.001198686   -0.000068297    0.000356686
   3   H   :   -0.003212239    0.001840880   -0.002647708
   4   H   :   -0.000609569    0.000990443    0.000453311
   5   Cl  :    0.001157942   -0.000642386   -0.002435221
   6   F   :    0.003418442   -0.001890954   -0.006774768

Difference to translation invariance:
           :    0.0000000000   -0.0000000000    0.0000000000

Difference to rotation invariance:
           :    0.0000000008    0.0000000014   -0.0000000000

Norm of the Cartesian gradient     ...    0.0146624977
RMS gradient                       ...    0.0034559839
MAX gradient                       ...    0.0110476995
------------------------------------------------------------------------------
                         ORCA GEOMETRY RELAXATION STEP
------------------------------------------------------------------------------

Reading the OPT-File                    .... done
Getting information on internals        .... done
Copying old internal coords+grads       .... done
Making the new internal coordinates     .... (2022 redundants) done
Validating the new internal coordinates .... (2022 redundants) done
Calculating the B-matrix                .... done
Calculating the G,G- and P matrices     .... done
Transforming gradient to internals      .... done
Projecting the internal gradient        .... done
Number of atoms                         ....   6
Number of internal coordinates          ....  21
Current Energy                          ....   -13.150494916 Eh
Current gradient norm                   ....     0.014662498 Eh/bohr
Maximum allowed component of the step   ....  0.300
Current trust radius                    ....  0.300
Evaluating the initial hessian          ....  (Almloef) done
Projecting the Hessian                  .... done
Forming the augmented Hessian           .... done
Diagonalizing the augmented Hessian     .... done
Last element of RFO vector              ....  0.985385318
Lowest eigenvalues of augmented Hessian:
 -0.001053198  0.021850791  0.036489298  0.060592265  0.067555818
Length of the computed step             ....  0.172866562
The final length of the internal step   ....  0.172866562
Converting the step to Cartesian space:
 Initial RMS(Int)=    0.0377225765
Transforming coordinates:
 Iter   0:  RMS(Cart)=    0.0232022891 RMS(Int)=    0.0375926192
done
Storing new coordinates                 .... done

                                .--------------------.
          ----------------------|Geometry convergence|-------------------------
          Item                value                   Tolerance       Converged
          ---------------------------------------------------------------------
          RMS gradient        0.0019251723            0.0001000000      NO
          MAX gradient        0.0047925184            0.0003000000      NO
          RMS step            0.0377225765            0.0020000000      NO
          MAX step            0.0974533530            0.0040000000      NO
          -------------------------------------------------------------------------
          ........................................................
          Max(Bonds)      0.0516      Max(Angles)    1.42
          Max(Dihed)        0.00      Max(Improp)    0.00
          ---------------------------------------------------------------------

The optimization has not yet converged - more geometry cycles are needed


    ---------------------------------------------------------------------------
                         Redundant Internal Coordinates
                            (Angstroem and degrees)

        Definition                    Value    dE/dq     Step     New-Value
    ----------------------------------------------------------------------------
     1. B(H   1,C   0)                1.0704 -0.001257  0.0007    1.0710   
     2. B(H   2,C   0)                1.0635 -0.002026  0.0045    1.0680   
     3. B(H   3,C   0)                1.0706 -0.001244  0.0005    1.0711   
     4. B(Cl  4,H   2)                2.4361 -0.001164  0.0072    2.4433   
     5. B(Cl  4,H   1)                2.4511  0.000390  0.0035    2.4546   
     6. B(Cl  4,C   0)                2.0724 -0.002107  0.0098    2.0822   
     7. B(Cl  4,H   3)                2.4515  0.000433  0.0034    2.4549   
     8. B(F   5,H   1)                2.2156  0.002304 -0.0487    2.1669   
     9. B(F   5,H   2)                2.0865 -0.002194 -0.0182    2.0683   
    10. B(F   5,C   0)                2.0301  0.004793 -0.0516    1.9785   
    11. B(F   5,H   3)                2.2202  0.002451 -0.0497    2.1705   
    12. A(H   1,C   0,H   3)          117.30 -0.002074    0.42    117.72   
    13. A(H   2,C   0,H   3)          119.06  0.000029    0.00    119.06   
    14. A(H   1,C   0,Cl  4)           97.35  0.001753   -0.37     96.98   
    15. A(H   2,C   0,Cl  4)           96.63  0.001070   -0.26     96.37   
    16. A(H   3,C   0,Cl  4)           97.36  0.001775   -0.36     97.00   
    17. A(H   1,C   0,F   5)           85.28 -0.000749   -0.22     85.05   
    18. A(H   2,C   0,F   5)           77.99 -0.002994    1.42     79.41   
    19. A(H   3,C   0,F   5)           85.53 -0.000672   -0.27     85.26   
    20. A(Cl  4,C   0,F   5)          174.61 -0.001925    1.17    175.78   
    21. A(H   1,C   0,H   2)          119.12  0.000122   -0.01    119.11   
    ----------------------------------------------------------------------------

Geometry step timings:
Preparation and reading OPT file:      0.000 s ( 1.826 %)
Internal coordinates            :      0.000 s ( 2.385 %)
B/P matrices and projection     :      0.000 s ( 6.669 %)
Hessian update/contruction      :      0.001 s (50.708 %)
Making the step                 :      0.000 s ( 8.346 %)
Converting the step to Cartesian:      0.000 s ( 2.943 %)
Storing new data                :      0.000 s ( 5.142 %)
Checking convergence            :      0.000 s ( 4.359 %)
Final printing                  :      0.000 s (17.437 %)
Total time                      :      0.003 s

Time for energy+gradient        :      0.173 s
Time for complete geometry iter :      0.179 s

         *************************************************************
         *                GEOMETRY OPTIMIZATION CYCLE   2            *
         *************************************************************
---------------------------------
CARTESIAN COORDINATES (ANGSTROEM)
---------------------------------
  C     0.108912   -0.066208    0.004324
  H     0.107350    0.997193   -0.123178
  H     1.023350   -0.603168   -0.122214
  H    -0.820190   -0.584288   -0.120870
  Cl    0.123965   -0.071582    2.086477
  F     0.222462   -0.130851   -1.969793

----------------------------
CARTESIAN COORDINATES (A.U.)
----------------------------
  NO LB    ZA    FRAG    MASS        X           Y           Z
   0 C   6.0000    0    12.011    0.205813   -0.125116    0.008172
   1 H   1.0000    0     1.008    0.202863    1.884423   -0.232773
   2 H   1.0000    0     1.008    1.933851   -1.139822   -0.230951
   3 H   1.0000    0     1.008   -1.549935   -1.104145   -0.228412
   4 Cl 17.0000    0    35.453    0.234261   -0.135271    3.942869
   5 F   9.0000    0    18.998    0.420392   -0.247272   -3.722369

      -----------------------------------------------------------      
     |                   =====================                   |     
     |                           x T B                           |     
     |                   =====================                   |     
     |                         S. Grimme                         |     
     |          Mulliken Center for Theoretical Chemistry        |     
     |                    University of Bonn                     |     
      -----------------------------------------------------------      

   * xtb version 6.7.1 (edcfbbe) compiled by 'albert@albert-system' on 2024-07-22

   xtb is free software: you can redistribute it and/or modify it under
   the terms of the GNU Lesser General Public License as published by
   the Free Software Foundation, either version 3 of the License, or
   (at your option) any later version.
   
   xtb is distributed in the hope that it will be useful,
   but WITHOUT ANY WARRANTY; without even the implied warranty of
   MERCHANTABILITY or FITNESS FOR A PARTICULAR PURPOSE.  See the
   GNU Lesser General Public License for more details.
   
   Cite this work as:
   * C. Bannwarth, E. Caldeweyher, S. Ehlert, A. Hansen, P. Pracht,
     J. Seibert, S. Spicher, S. Grimme, WIREs Comput. Mol. Sci., 2020, 11,
     e01493. DOI: 10.1002/wcms.1493
   
   for GFN2-xTB:
   * C. Bannwarth, S. Ehlert and S. Grimme., J. Chem. Theory Comput., 2019,
     15, 1652-1671. DOI: 10.1021/acs.jctc.8b01176
   for GFN1-xTB:
   * S. Grimme, C. Bannwarth, P. Shushkov, J. Chem. Theory Comput., 2017,
     13, 1989-2009. DOI: 10.1021/acs.jctc.7b00118
   for GFN0-xTB:
   * P. Pracht, E. Caldeweyher, S. Ehlert, S. Grimme, ChemRxiv, 2019, preprint.
     DOI: 10.26434/chemrxiv.8326202.v1
   for GFN-FF:
   * S. Spicher and S. Grimme, Angew. Chem. Int. Ed., 2020, 59, 15665-15673.
     DOI: 10.1002/anie.202004239
   
   for ALPB and GBSA implicit solvation:
   * S. Ehlert, M. Stahn, S. Spicher, S. Grimme, J. Chem. Theory Comput.,
     2021, 17, 4250-4261. DOI: 10.1021/acs.jctc.1c00471
   
   for ddCOSMO and CPCM-X implicit solvation:
   * M. Stahn, S. Ehlert, S. Grimme, J. Phys. Chem. A,
     2023, XX, XXXX-XXXX. DOI: 10.1021/acs.jpca.3c04382
   
   for DFT-D4:
   * E. Caldeweyher, C. Bannwarth and S. Grimme, J. Chem. Phys., 2017,
     147, 034112. DOI: 10.1063/1.4993215
   * E. Caldeweyher, S. Ehlert, A. Hansen, H. Neugebauer, S. Spicher,
     C. Bannwarth and S. Grimme, J. Chem. Phys., 2019, 150, 154122.
     DOI: 10.1063/1.5090222
   * E. Caldeweyher, J.-M. Mewes, S. Ehlert and S. Grimme, Phys. Chem. Chem. Phys.
     2020, 22, 8499-8512. DOI: 10.1039/D0CP00502A
   
   for sTDA-xTB:
   * S. Grimme and C. Bannwarth, J. Chem. Phys., 2016, 145, 054103.
     DOI: 10.1063/1.4959605
   
   in the mass-spec context:
   * V. Asgeirsson, C. Bauer and S. Grimme, Chem. Sci., 2017, 8, 4879.
     DOI: 10.1039/c7sc00601b
   * J. Koopman and S. Grimme, ACS Omega 2019, 4, 12, 15120-15133.
     DOI: 10.1021/acsomega.9b02011
   
   for metadynamics refer to:
   * S. Grimme, J. Chem. Theory Comput., 2019, 155, 2847-2862
     DOI: 10.1021/acs.jctc.9b00143
   
   for SPH calculations refer to:
   * S. Spicher and S. Grimme, J. Chem. Theory Comput., 2021, 17, 1701-1714
     DOI: 10.1021/acs.jctc.0c01306
   
   for ONIOM refer to:
   * C. Plett, A. Katbashev, S. Ehlert, S. Grimme, M. Bursch,
     Phys. Chem. Chem. Phys., 2023, 25, 17860-17868. DOI: 10.1039/D3CP02178E
   
   for DIPRO refer to:
   * J. Kohn, N. Gildemeister, S. Grimme, D. Fazzi, A. Hansen,
     J. Chem. Phys., 2023, just accepted.
   
   for PTB refer to:
   * S. Grimme, M. Mueller, A. Hansen, J. Chem. Phys., 2023, 158, 124111.
     DOI: 10.1063/5.0137838
   
   with help from (in alphabetical order)
   P. Atkinson, C. Bannwarth, F. Bohle, G. Brandenburg, E. Caldeweyher
   M. Checinski, S. Dohm, S. Ehlert, S. Ehrlich, I. Gerasimov, C. Hölzer
   A. Katbashev, J. Kohn, J. Koopman, C. Lavigne, S. Lehtola, F. März, M. Müller,
   F. Musil, H. Neugebauer, J. Pisarek, C. Plett, P. Pracht, F. Pultar,
   J. Seibert, P. Shushkov, S. Spicher, M. Stahn, M. Steiner, T. Strunk,
   J. Stückrath, T. Rose, and J. Unsleber
   
 * started run on 2026/03/12 at 12:46:48.105     
   ID    Z sym.   atoms
    1    6 C      1
    2    1 H      2-4
    3   17 Cl     5
    4    9 F      6

           -------------------------------------------------
          |                Calculation Setup                |
           -------------------------------------------------

          program call               : /software/orca-6.1.0-el8-x86_64/bin/otool_xtb product_optfreq_XTB.xyz --grad -c -1 -u 0 -P 8 --namespace product_optfreq --input product_optfreq_XTB.input.tmp --acc 0.200000
          hostname                   : midway3-login4.rcc.local
          calculation namespace      : product_optfreq
          coordinate file            : product_optfreq_XTB.xyz
          omp threads                :                     8


molecular fragmentation (1/2 indicates fragments):
111112
# atoms in fragment 1/2:     5     1
 fragment masses (1/2) :       50.49       19.00
CMA distance (Bohr)    :   6.483
constraining FC (au)   :  0.0500

           -------------------------------------------------
          |                 G F N 2 - x T B                 |
           -------------------------------------------------

        Reference                      10.1021/acs.jctc.8b01176
      * Hamiltonian:
        H0-scaling (s, p, d)           1.850000    2.230000    2.230000
        zeta-weighting                 0.500000
      * Dispersion:
        s8                             2.700000
        a1                             0.520000
        a2                             5.000000
        s9                             5.000000
      * Repulsion:
        kExp                           1.500000    1.000000
        rExp                           1.000000
      * Coulomb:
        alpha                          2.000000
        third order                    shell-resolved
        anisotropic                    true
        a3                             3.000000
        a5                             4.000000
        cn-shift                       1.200000
        cn-exp                         4.000000
        max-rad                        5.000000

q/qsh data taken from xtbrestart
CAMM data taken from xtbrestart

          ...................................................
          :                      SETUP                      :
          :.................................................:
          :  # basis functions                  21          :
          :  # atomic orbitals                  20          :
          :  # shells                           10          :
          :  # electrons                        22          :
          :  max. iterations                   250          :
          :  Hamiltonian                  GFN2-xTB          :
          :  restarted?                       true          :
          :  GBSA solvation                  false          :
          :  PC potential                    false          :
          :  electronic temp.          300.0000000     K    :
          :  accuracy                    0.2000000          :
          :  -> integral cutoff          0.3198970E+02      :
          :  -> integral neglect         0.2000000E-08      :
          :  -> SCF convergence          0.2000000E-06 Eh   :
          :  -> wf. convergence          0.2000000E-04 e    :
          :  Broyden damping             0.4000000          :
          :  net charge                         -1          :
          :  unpaired electrons                  0          :
          ...................................................

 iter      E             dE          RMSdq      gap      omega  full diag
   1    -13.2102165 -0.132102E+02  0.302E-01    3.48       0.0  T
   2    -13.2105723 -0.355851E-03  0.893E-02    3.66       1.0  T
   3    -13.2105836 -0.112864E-04  0.399E-02    3.64       1.0  T
   4    -13.2105867 -0.312421E-05  0.250E-02    3.65       1.6  T
   5    -13.2105871 -0.357384E-06  0.239E-03    3.65      17.1  T
   6    -13.2105871 -0.353501E-08  0.961E-04    3.65      42.5  T
   7    -13.2105871 -0.149951E-08  0.715E-04    3.65      57.1  T
   8    -13.2105871 -0.129974E-08  0.323E-04    3.65     126.5  T
   9    -13.2105871 -0.220695E-09  0.493E-05    3.65     827.5  T
  10    -13.2105871 -0.335731E-11  0.325E-05    3.65    1254.3  T

   *** convergence criteria satisfied after 10 iterations ***

         #    Occupation            Energy/Eh            Energy/eV
      -------------------------------------------------------------
         1        2.0000           -0.8610877             -23.4314
       ...           ...                  ...                  ...
         5        2.0000           -0.3233519              -8.7989
         6        2.0000           -0.2791055              -7.5948
         7        2.0000           -0.2333834              -6.3507
         8        2.0000           -0.2333261              -6.3491
         9        2.0000           -0.1799985              -4.8980
        10        2.0000           -0.1769924              -4.8162
        11        2.0000           -0.1766408              -4.8066 (HOMO)
        12                         -0.0425525              -1.1579 (LUMO)
        13                          0.2386450               6.4939
        14                          0.2386464               6.4939
        15                          0.2394223               6.5150
        16                          0.2394778               6.5165
       ...                                ...                  ...
        20                          0.4503190              12.2538
      -------------------------------------------------------------
                  HL-Gap            0.1340883 Eh            3.6487 eV
             Fermi-level           -0.1095966 Eh           -2.9823 eV

 SCC (total)                   0 d,  0 h,  0 min,  0.120 sec
 SCC setup                      ...        0 min,  0.000 sec (  0.191%)
 Dispersion                     ...        0 min,  0.000 sec (  0.144%)
 classical contributions        ...        0 min,  0.000 sec (  0.030%)
 integral evaluation            ...        0 min,  0.111 sec ( 92.449%)
 iterations                     ...        0 min,  0.008 sec (  6.482%)
 molecular gradient             ...        0 min,  0.001 sec (  0.532%)
 printout                       ...        0 min,  0.000 sec (  0.152%)

         :::::::::::::::::::::::::::::::::::::::::::::::::::::
         ::                     SUMMARY                     ::
         :::::::::::::::::::::::::::::::::::::::::::::::::::::
         :: total energy             -13.151410796329 Eh    ::
         :: gradient norm              0.016773246862 Eh/a0 ::
         :: HOMO-LUMO gap              3.648727086490 eV    ::
         ::.................................................::
         :: SCC energy               -13.210587177324 Eh    ::
         :: -> isotropic ES            0.184729741532 Eh    ::
         :: -> anisotropic ES         -0.000379306595 Eh    ::
         :: -> anisotropic XC          0.002424573393 Eh    ::
         :: -> dispersion             -0.002067726589 Eh    ::
         :: repulsion energy           0.059176380995 Eh    ::
         :: add. restraining           0.000000000000 Eh    ::
         :: total charge              -1.000000000000 e     ::
         :::::::::::::::::::::::::::::::::::::::::::::::::::::


Property printout bound to 'properties.out'

           -------------------------------------------------
          | TOTAL ENERGY              -13.151410796329 Eh   |
          | GRADIENT NORM               0.016773246862 Eh/α |
          | HOMO-LUMO GAP               3.648727086490 eV   |
           -------------------------------------------------

------------------------------------------------------------------------
 * finished run on 2026/03/12 at 12:46:48.272     
------------------------------------------------------------------------
 total:
 * wall-time:     0 d,  0 h,  0 min,  0.166 sec
 *  cpu-time:     0 d,  0 h,  0 min,  0.621 sec
 * ratio c/w:     3.746 speedup
 SCF:
 * wall-time:     0 d,  0 h,  0 min,  0.120 sec
 *  cpu-time:     0 d,  0 h,  0 min,  0.519 sec
 * ratio c/w:     4.317 speedup


-------------------------   --------------------
FINAL SINGLE POINT ENERGY       -13.151410796330
-------------------------   --------------------


-------------
DIPOLE MOMENT
-------------
                                X             Y             Z
Total Dipole Moment    :     -0.35800       0.20800       0.00900
                        -----------------------------------------
Magnitude (a.u.)       :      0.41414
Magnitude (Debye)      :      1.05265


------------------
CARTESIAN GRADIENT
------------------

   1   C   :   -0.001293720    0.000724886    0.014567914
   2   H   :   -0.000922527    0.000344799   -0.001331573
   3   H   :   -0.000882874    0.000482645   -0.004442629
   4   H   :   -0.000781001    0.000588131   -0.001225963
   5   Cl  :    0.000972322   -0.000539630   -0.003980473
   6   F   :    0.002907800   -0.001600832   -0.003587275

Difference to translation invariance:
           :   -0.0000000000   -0.0000000000    0.0000000000

Difference to rotation invariance:
           :   -0.0000000549   -0.0000000996    0.0000000001

Norm of the Cartesian gradient     ...    0.0167732469
RMS gradient                       ...    0.0039534922
MAX gradient                       ...    0.0145679137
------------------------------------------------------------------------------
                         ORCA GEOMETRY RELAXATION STEP
------------------------------------------------------------------------------

Reading the OPT-File                    .... done
Getting information on internals        .... done
Copying old internal coords+grads       .... done
Making the new internal coordinates     .... (2022 redundants) done
Validating the new internal coordinates .... (2022 redundants) done
Calculating the B-matrix                .... done
Calculating the G,G- and P matrices     .... done
Transforming gradient to internals      .... done
Projecting the internal gradient        .... done
Number of atoms                         ....   6
Number of internal coordinates          ....  21
Current Energy                          ....   -13.151410796 Eh
Current gradient norm                   ....     0.016773247 Eh/bohr
Maximum allowed component of the step   ....  0.300
Current trust radius                    ....  0.300
Updating the Hessian (BFGS)             .... done
Forming the augmented Hessian           .... done
Diagonalizing the augmented Hessian     .... done
Last element of RFO vector              ....  0.899099436
Lowest eigenvalues of augmented Hessian:
 -0.002925283  0.009968190  0.037853460  0.056455633  0.060595977
Length of the computed step             ....  0.486869898
Warning: the length of the step is outside the trust region - taking restricted step instead
The input lambda is                     ....     0.006561
   iter:   5  x=    0.000327  g=  417.907881 f(x)=     0.951920
   iter:  10  x=   -0.009721  g=   10.150615 f(x)=     0.001050
The output lambda is                    ....    -0.009722 (13 iterations)
The final length of the internal step   ....  0.300000000
Converting the step to Cartesian space:
 Initial RMS(Int)=    0.0654653671
Transforming coordinates:
 Iter   0:  RMS(Cart)=    0.0449767074 RMS(Int)=    0.0650375594
done
Storing new coordinates                 .... done
The predicted energy change is          ....    -0.001405259
Previously predicted energy change      ....    -0.000542335
Actually observed energy change         ....    -0.000915880
Ratio of predicted to observed change   ....     1.688771163
New trust radius                        ....     0.200000000

                                .--------------------.
          ----------------------|Geometry convergence|-------------------------
          Item                value                   Tolerance       Converged
          ---------------------------------------------------------------------
          Energy change      -0.0009158799            0.0000050000      NO
          RMS gradient        0.0019632386            0.0001000000      NO
          MAX gradient        0.0041288358            0.0003000000      NO
          RMS step            0.0654653671            0.0020000000      NO
          MAX step            0.1683282430            0.0040000000      NO
          -------------------------------------------------------------------------
          ........................................................
          Max(Bonds)      0.0891      Max(Angles)    4.39
          Max(Dihed)        0.00      Max(Improp)    0.00
          ---------------------------------------------------------------------

The optimization has not yet converged - more geometry cycles are needed


    ---------------------------------------------------------------------------
                         Redundant Internal Coordinates
                            (Angstroem and degrees)

        Definition                    Value    dE/dq     Step     New-Value
    ----------------------------------------------------------------------------
     1. B(H   1,C   0)                1.0710 -0.000120  0.0002    1.0712   
     2. B(H   2,C   0)                1.0680  0.000794  0.0054    1.0734   
     3. B(H   3,C   0)                1.0711 -0.000158 -0.0000    1.0711   
     4. B(Cl  4,H   2)                2.4433 -0.000630  0.0177    2.4611   
     5. B(Cl  4,H   1)                2.4546  0.000308  0.0100    2.4646   
     6. B(Cl  4,C   0)                2.0822 -0.003984  0.0395    2.1217   
     7. B(Cl  4,H   3)                2.4549  0.000335  0.0099    2.4648   
     8. B(F   5,H   1)                2.1670  0.001098 -0.0760    2.0910   
     9. B(F   5,H   2)                2.0683 -0.002734  0.0022    2.0705   
    10. B(F   5,C   0)                1.9784  0.004129 -0.0891    1.8894   
    11. B(F   5,H   3)                2.1705  0.001229 -0.0785    2.0921   
    12. A(H   1,C   0,H   3)          117.71 -0.002026    1.39    119.10   
    13. A(H   2,C   0,H   3)          119.06 -0.000256    0.28    119.34   
    14. A(H   1,C   0,Cl  4)           96.99  0.002326   -1.64     95.35   
    15. A(H   2,C   0,Cl  4)           96.37  0.001484   -1.32     95.05   
    16. A(H   3,C   0,Cl  4)           97.00  0.002355   -1.64     95.36   
    17. A(H   1,C   0,F   5)           85.05 -0.001328    0.10     85.15   
    18. A(H   2,C   0,F   5)           79.41 -0.003458    4.39     83.80   
    19. A(H   3,C   0,F   5)           85.26 -0.001251   -0.04     85.22   
    20. A(Cl  4,C   0,F   5)          175.78 -0.001975    3.07    178.85   
    21. A(H   1,C   0,H   2)          119.10 -0.000185    0.24    119.34   
    ----------------------------------------------------------------------------

Geometry step timings:
Preparation and reading OPT file:      0.000 s ( 2.532 %)
Internal coordinates            :      0.000 s ( 2.954 %)
B/P matrices and projection     :      0.000 s (12.025 %)
Hessian update/contruction      :      0.000 s (32.208 %)
Making the step                 :      0.000 s (13.221 %)
Converting the step to Cartesian:      0.000 s ( 2.250 %)
Storing new data                :      0.000 s ( 6.118 %)
Checking convergence            :      0.000 s ( 6.470 %)
Final printing                  :      0.000 s (22.222 %)
Total time                      :      0.001 s

Time for energy+gradient        :      0.178 s
Time for complete geometry iter :      0.183 s

         *************************************************************
         *                GEOMETRY OPTIMIZATION CYCLE   3            *
         *************************************************************
---------------------------------
CARTESIAN COORDINATES (ANGSTROEM)
---------------------------------
  C     0.122023   -0.073495   -0.030633
  H     0.129442    0.992076   -0.138814
  H     1.045353   -0.615248   -0.110706
  H    -0.804479   -0.600000   -0.137448
  Cl    0.098188   -0.057368    2.091023
  F     0.175321   -0.104869   -1.918677

----------------------------
CARTESIAN COORDINATES (A.U.)
----------------------------
  NO LB    ZA    FRAG    MASS        X           Y           Z
   0 C   6.0000    0    12.011    0.230591   -0.138886   -0.057887
   1 H   1.0000    0     1.008    0.244610    1.874752   -0.262320
   2 H   1.0000    0     1.008    1.975432   -1.162650   -0.209204
   3 H   1.0000    0     1.008   -1.520244   -1.133835   -0.259739
   4 Cl 17.0000    0    35.453    0.185549   -0.108410    3.951460
   5 F   9.0000    0    18.998    0.331308   -0.198174   -3.625773

      -----------------------------------------------------------      
     |                   =====================                   |     
     |                           x T B                           |     
     |                   =====================                   |     
     |                         S. Grimme                         |     
     |          Mulliken Center for Theoretical Chemistry        |     
     |                    University of Bonn                     |     
      -----------------------------------------------------------      

   * xtb version 6.7.1 (edcfbbe) compiled by 'albert@albert-system' on 2024-07-22

   xtb is free software: you can redistribute it and/or modify it under
   the terms of the GNU Lesser General Public License as published by
   the Free Software Foundation, either version 3 of the License, or
   (at your option) any later version.
   
   xtb is distributed in the hope that it will be useful,
   but WITHOUT ANY WARRANTY; without even the implied warranty of
   MERCHANTABILITY or FITNESS FOR A PARTICULAR PURPOSE.  See the
   GNU Lesser General Public License for more details.
   
   Cite this work as:
   * C. Bannwarth, E. Caldeweyher, S. Ehlert, A. Hansen, P. Pracht,
     J. Seibert, S. Spicher, S. Grimme, WIREs Comput. Mol. Sci., 2020, 11,
     e01493. DOI: 10.1002/wcms.1493
   
   for GFN2-xTB:
   * C. Bannwarth, S. Ehlert and S. Grimme., J. Chem. Theory Comput., 2019,
     15, 1652-1671. DOI: 10.1021/acs.jctc.8b01176
   for GFN1-xTB:
   * S. Grimme, C. Bannwarth, P. Shushkov, J. Chem. Theory Comput., 2017,
     13, 1989-2009. DOI: 10.1021/acs.jctc.7b00118
   for GFN0-xTB:
   * P. Pracht, E. Caldeweyher, S. Ehlert, S. Grimme, ChemRxiv, 2019, preprint.
     DOI: 10.26434/chemrxiv.8326202.v1
   for GFN-FF:
   * S. Spicher and S. Grimme, Angew. Chem. Int. Ed., 2020, 59, 15665-15673.
     DOI: 10.1002/anie.202004239
   
   for ALPB and GBSA implicit solvation:
   * S. Ehlert, M. Stahn, S. Spicher, S. Grimme, J. Chem. Theory Comput.,
     2021, 17, 4250-4261. DOI: 10.1021/acs.jctc.1c00471
   
   for ddCOSMO and CPCM-X implicit solvation:
   * M. Stahn, S. Ehlert, S. Grimme, J. Phys. Chem. A,
     2023, XX, XXXX-XXXX. DOI: 10.1021/acs.jpca.3c04382
   
   for DFT-D4:
   * E. Caldeweyher, C. Bannwarth and S. Grimme, J. Chem. Phys., 2017,
     147, 034112. DOI: 10.1063/1.4993215
   * E. Caldeweyher, S. Ehlert, A. Hansen, H. Neugebauer, S. Spicher,
     C. Bannwarth and S. Grimme, J. Chem. Phys., 2019, 150, 154122.
     DOI: 10.1063/1.5090222
   * E. Caldeweyher, J.-M. Mewes, S. Ehlert and S. Grimme, Phys. Chem. Chem. Phys.
     2020, 22, 8499-8512. DOI: 10.1039/D0CP00502A
   
   for sTDA-xTB:
   * S. Grimme and C. Bannwarth, J. Chem. Phys., 2016, 145, 054103.
     DOI: 10.1063/1.4959605
   
   in the mass-spec context:
   * V. Asgeirsson, C. Bauer and S. Grimme, Chem. Sci., 2017, 8, 4879.
     DOI: 10.1039/c7sc00601b
   * J. Koopman and S. Grimme, ACS Omega 2019, 4, 12, 15120-15133.
     DOI: 10.1021/acsomega.9b02011
   
   for metadynamics refer to:
   * S. Grimme, J. Chem. Theory Comput., 2019, 155, 2847-2862
     DOI: 10.1021/acs.jctc.9b00143
   
   for SPH calculations refer to:
   * S. Spicher and S. Grimme, J. Chem. Theory Comput., 2021, 17, 1701-1714
     DOI: 10.1021/acs.jctc.0c01306
   
   for ONIOM refer to:
   * C. Plett, A. Katbashev, S. Ehlert, S. Grimme, M. Bursch,
     Phys. Chem. Chem. Phys., 2023, 25, 17860-17868. DOI: 10.1039/D3CP02178E
   
   for DIPRO refer to:
   * J. Kohn, N. Gildemeister, S. Grimme, D. Fazzi, A. Hansen,
     J. Chem. Phys., 2023, just accepted.
   
   for PTB refer to:
   * S. Grimme, M. Mueller, A. Hansen, J. Chem. Phys., 2023, 158, 124111.
     DOI: 10.1063/5.0137838
   
   with help from (in alphabetical order)
   P. Atkinson, C. Bannwarth, F. Bohle, G. Brandenburg, E. Caldeweyher
   M. Checinski, S. Dohm, S. Ehlert, S. Ehrlich, I. Gerasimov, C. Hölzer
   A. Katbashev, J. Kohn, J. Koopman, C. Lavigne, S. Lehtola, F. März, M. Müller,
   F. Musil, H. Neugebauer, J. Pisarek, C. Plett, P. Pracht, F. Pultar,
   J. Seibert, P. Shushkov, S. Spicher, M. Stahn, M. Steiner, T. Strunk,
   J. Stückrath, T. Rose, and J. Unsleber
   
 * started run on 2026/03/12 at 12:46:48.287     
   ID    Z sym.   atoms
    1    6 C      1
    2    1 H      2-4
    3   17 Cl     5
    4    9 F      6

           -------------------------------------------------
          |                Calculation Setup                |
           -------------------------------------------------

          program call               : /software/orca-6.1.0-el8-x86_64/bin/otool_xtb product_optfreq_XTB.xyz --grad -c -1 -u 0 -P 8 --namespace product_optfreq --input product_optfreq_XTB.input.tmp --acc 0.200000
          hostname                   : midway3-login4.rcc.local
          calculation namespace      : product_optfreq
          coordinate file            : product_optfreq_XTB.xyz
          omp threads                :                     8


molecular fragmentation (1/2 indicates fragments):
111112
# atoms in fragment 1/2:     5     1
 fragment masses (1/2) :       50.49       19.00
CMA distance (Bohr)    :   6.374
constraining FC (au)   :  0.0500

           -------------------------------------------------
          |                 G F N 2 - x T B                 |
           -------------------------------------------------

        Reference                      10.1021/acs.jctc.8b01176
      * Hamiltonian:
        H0-scaling (s, p, d)           1.850000    2.230000    2.230000
        zeta-weighting                 0.500000
      * Dispersion:
        s8                             2.700000
        a1                             0.520000
        a2                             5.000000
        s9                             5.000000
      * Repulsion:
        kExp                           1.500000    1.000000
        rExp                           1.000000
      * Coulomb:
        alpha                          2.000000
        third order                    shell-resolved
        anisotropic                    true
        a3                             3.000000
        a5                             4.000000
        cn-shift                       1.200000
        cn-exp                         4.000000
        max-rad                        5.000000

q/qsh data taken from xtbrestart
CAMM data taken from xtbrestart

          ...................................................
          :                      SETUP                      :
          :.................................................:
          :  # basis functions                  21          :
          :  # atomic orbitals                  20          :
          :  # shells                           10          :
          :  # electrons                        22          :
          :  max. iterations                   250          :
          :  Hamiltonian                  GFN2-xTB          :
          :  restarted?                       true          :
          :  GBSA solvation                  false          :
          :  PC potential                    false          :
          :  electronic temp.          300.0000000     K    :
          :  accuracy                    0.2000000          :
          :  -> integral cutoff          0.3198970E+02      :
          :  -> integral neglect         0.2000000E-08      :
          :  -> SCF convergence          0.2000000E-06 Eh   :
          :  -> wf. convergence          0.2000000E-04 e    :
          :  Broyden damping             0.4000000          :
          :  net charge                         -1          :
          :  unpaired electrons                  0          :
          ...................................................

 iter      E             dE          RMSdq      gap      omega  full diag
   1    -13.2093930 -0.132094E+02  0.686E-01    3.92       0.0  T
   2    -13.2112585 -0.186554E-02  0.229E-01    4.29       1.0  T
   3    -13.2113418 -0.833108E-04  0.957E-02    4.24       1.0  T
   4    -13.2113595 -0.176381E-04  0.648E-02    4.26       1.0  T
   5    -13.2113625 -0.298225E-05  0.192E-02    4.26       2.1  T
   6    -13.2113632 -0.754962E-06  0.983E-03    4.26       4.2  T
   7    -13.2113635 -0.240640E-06  0.549E-03    4.26       7.4  T
   8    -13.2113635 -0.775608E-07  0.716E-04    4.26      57.0  T
   9    -13.2113635 -0.102160E-09  0.290E-04    4.26     140.8  T
  10    -13.2113635 -0.274659E-09  0.118E-04    4.26     345.6  T
  11    -13.2113635 -0.429345E-11  0.896E-05    4.26     455.5  T

   *** convergence criteria satisfied after 11 iterations ***

         #    Occupation            Energy/Eh            Energy/eV
      -------------------------------------------------------------
         1        2.0000           -0.8511181             -23.1601
       ...           ...                  ...                  ...
         5        2.0000           -0.3236268              -8.8063
         6        2.0000           -0.2758604              -7.5065
         7        2.0000           -0.2259177              -6.1475
         8        2.0000           -0.2259131              -6.1474
         9        2.0000           -0.1955371              -5.3208
        10        2.0000           -0.1954851              -5.3194
        11        2.0000           -0.1935184              -5.2659 (HOMO)
        12                         -0.0368931              -1.0039 (LUMO)
        13                          0.2517468               6.8504
        14                          0.2517569               6.8507
        15                          0.2524127               6.8685
        16                          0.2524294               6.8690
       ...                                ...                  ...
        20                          0.4421246              12.0308
      -------------------------------------------------------------
                  HL-Gap            0.1566253 Eh            4.2620 eV
             Fermi-level           -0.1152058 Eh           -3.1349 eV

 SCC (total)                   0 d,  0 h,  0 min,  0.134 sec
 SCC setup                      ...        0 min,  0.000 sec (  0.194%)
 Dispersion                     ...        0 min,  0.000 sec (  0.054%)
 classical contributions        ...        0 min,  0.000 sec (  0.028%)
 integral evaluation            ...        0 min,  0.131 sec ( 97.566%)
 iterations                     ...        0 min,  0.002 sec (  1.488%)
 molecular gradient             ...        0 min,  0.001 sec (  0.512%)
 printout                       ...        0 min,  0.000 sec (  0.139%)

         :::::::::::::::::::::::::::::::::::::::::::::::::::::
         ::                     SUMMARY                     ::
         :::::::::::::::::::::::::::::::::::::::::::::::::::::
         :: total energy             -13.153068737566 Eh    ::
         :: gradient norm              0.022991411645 Eh/a0 ::
         :: HOMO-LUMO gap              4.261991450824 eV    ::
         ::.................................................::
         :: SCC energy               -13.211363591637 Eh    ::
         :: -> isotropic ES            0.177349224064 Eh    ::
         :: -> anisotropic ES         -0.000356691558 Eh    ::
         :: -> anisotropic XC          0.002405710586 Eh    ::
         :: -> dispersion             -0.002068184296 Eh    ::
         :: repulsion energy           0.058294854071 Eh    ::
         :: add. restraining           0.000000000000 Eh    ::
         :: total charge              -1.000000000000 e     ::
         :::::::::::::::::::::::::::::::::::::::::::::::::::::


Property printout bound to 'properties.out'

           -------------------------------------------------
          | TOTAL ENERGY              -13.153068737566 Eh   |
          | GRADIENT NORM               0.022991411645 Eh/α |
          | HOMO-LUMO GAP               4.261991450824 eV   |
           -------------------------------------------------

------------------------------------------------------------------------
 * finished run on 2026/03/12 at 12:46:48.458     
------------------------------------------------------------------------
 total:
 * wall-time:     0 d,  0 h,  0 min,  0.170 sec
 *  cpu-time:     0 d,  0 h,  0 min,  0.521 sec
 * ratio c/w:     3.068 speedup
 SCF:
 * wall-time:     0 d,  0 h,  0 min,  0.134 sec
 *  cpu-time:     0 d,  0 h,  0 min,  0.426 sec
 * ratio c/w:     3.171 speedup


-------------------------   --------------------
FINAL SINGLE POINT ENERGY       -13.153068737570
-------------------------   --------------------


-------------
DIPOLE MOMENT
-------------
                                X             Y             Z
Total Dipole Moment    :     -0.26200       0.15500      -0.40000
                        -----------------------------------------
Magnitude (a.u.)       :      0.50266
Magnitude (Debye)      :      1.27767


------------------
CARTESIAN GRADIENT
------------------

   1   C   :   -0.002602259    0.001430328    0.020157809
   2   H   :   -0.000125387    0.000488245   -0.004522874
   3   H   :    0.001963135   -0.001158271   -0.005486181
   4   H   :   -0.000443780   -0.000108926   -0.004470442
   5   Cl  :    0.000394281   -0.000220000   -0.006007605
   6   F   :    0.000814010   -0.000431376    0.000329293

Difference to translation invariance:
           :    0.0000000000    0.0000000000   -0.0000000000

Difference to rotation invariance:
           :   -0.0000000979   -0.0000001778    0.0000000003

Norm of the Cartesian gradient     ...    0.0229914116
RMS gradient                       ...    0.0054191277
MAX gradient                       ...    0.0201578094
------------------------------------------------------------------------------
                         ORCA GEOMETRY RELAXATION STEP
------------------------------------------------------------------------------

Reading the OPT-File                    .... done
Getting information on internals        .... done
Copying old internal coords+grads       .... done
Making the new internal coordinates     .... (2022 redundants) done
Validating the new internal coordinates .... (2022 redundants) done
Calculating the B-matrix                .... done
Calculating the G,G- and P matrices     .... done
Transforming gradient to internals      .... done
Projecting the internal gradient        .... done
Number of atoms                         ....   6
Number of internal coordinates          ....  21
Current Energy                          ....   -13.153068738 Eh
Current gradient norm                   ....     0.022991412 Eh/bohr
Maximum allowed component of the step   ....  0.300
Current trust radius                    ....  0.200
Updating the Hessian (BFGS)             .... done
Forming the augmented Hessian           .... done
Diagonalizing the augmented Hessian     .... done
Last element of RFO vector              ....  0.864341503
Lowest eigenvalues of augmented Hessian:
 -0.003733520  0.008234705  0.038716039  0.044712135  0.060593986
Length of the computed step             ....  0.581836372
Warning: the length of the step is outside the trust region - taking restricted step instead
The input lambda is                     ....     0.004293
   iter:   5  x=   -0.002174  g=  423.303076 f(x)=     1.033184
   iter:  10  x=   -0.022285  g=    3.339639 f(x)=     0.006650
The output lambda is                    ....    -0.022544 (14 iterations)
The final length of the internal step   ....  0.200000000
Converting the step to Cartesian space:
 Initial RMS(Int)=    0.0436435780
Transforming coordinates:
 Iter   0:  RMS(Cart)=    0.0312801491 RMS(Int)=    0.0425131021
 Iter   5:  RMS(Cart)=    0.0007844017 RMS(Int)=    0.0006665648
 Iter  10:  RMS(Cart)=    0.0000579991 RMS(Int)=    0.0000492718
 Iter  15:  RMS(Cart)=    0.0000042928 RMS(Int)=    0.0000036468
 Iter  20:  RMS(Cart)=    0.0000003178 RMS(Int)=    0.0000002699
done
Storing new coordinates                 .... done
The predicted energy change is          ....    -0.001247778
Previously predicted energy change      ....    -0.001405259
Actually observed energy change         ....    -0.001657941
Ratio of predicted to observed change   ....     1.179812002
New trust radius                        ....     0.300000000

                                .--------------------.
          ----------------------|Geometry convergence|-------------------------
          Item                value                   Tolerance       Converged
          ---------------------------------------------------------------------
          Energy change      -0.0016579412            0.0000050000      NO
          RMS gradient        0.0025802615            0.0001000000      NO
          MAX gradient        0.0066913091            0.0003000000      NO
          RMS step            0.0436435780            0.0020000000      NO
          MAX step            0.1063340333            0.0040000000      NO
          -------------------------------------------------------------------------
          ........................................................
          Max(Bonds)      0.0563      Max(Angles)    4.07
          Max(Dihed)        0.00      Max(Improp)    0.00
          ---------------------------------------------------------------------

The optimization has not yet converged - more geometry cycles are needed


    ---------------------------------------------------------------------------
                         Redundant Internal Coordinates
                            (Angstroem and degrees)

        Definition                    Value    dE/dq     Step     New-Value
    ----------------------------------------------------------------------------
     1. B(H   1,C   0)                1.0711  0.001378 -0.0003    1.0707   
     2. B(H   2,C   0)                1.0735  0.003405  0.0021    1.0757   
     3. B(H   3,C   0)                1.0710  0.001302 -0.0004    1.0706   
     4. B(Cl  4,H   2)                2.4609  0.000283  0.0133    2.4742   
     5. B(Cl  4,H   1)                2.4646  0.000235  0.0052    2.4699   
     6. B(Cl  4,C   0)                2.1219 -0.006691  0.0436    2.1655   
     7. B(Cl  4,H   3)                2.4648  0.000234  0.0050    2.4699   
     8. B(F   5,H   1)                2.0912 -0.001278 -0.0315    2.0597   
     9. B(F   5,H   2)                2.0703 -0.002064  0.0229    2.0932   
    10. B(F   5,C   0)                1.8891  0.003631 -0.0563    1.8328   
    11. B(F   5,H   3)                2.0924 -0.001236 -0.0334    2.0590   
    12. A(H   1,C   0,H   3)          119.01 -0.001248    1.38    120.39   
    13. A(H   2,C   0,H   3)          119.24 -0.000800    0.43    119.68   
    14. A(H   1,C   0,Cl  4)           95.37  0.003204   -2.14     93.23   
    15. A(H   2,C   0,Cl  4)           95.05  0.002620   -1.70     93.35   
    16. A(H   3,C   0,Cl  4)           95.38  0.003226   -2.15     93.23   
    17. A(H   1,C   0,F   5)           85.15 -0.002745    0.99     86.14   
    18. A(H   2,C   0,F   5)           83.85 -0.003591    4.07     87.91   
    19. A(H   3,C   0,F   5)           85.21 -0.002706    0.89     86.10   
    20. A(Cl  4,C   0,F   5)          178.90 -0.000971    2.37    181.26   
    21. A(H   1,C   0,H   2)          119.25 -0.000792    0.40    119.65   
    ----------------------------------------------------------------------------

Geometry step timings:
Preparation and reading OPT file:      0.000 s ( 1.764 %)
Internal coordinates            :      0.000 s ( 2.337 %)
B/P matrices and projection     :      0.000 s ( 7.540 %)
Hessian update/contruction      :      0.001 s (33.907 %)
Making the step                 :      0.000 s (12.963 %)
[...]
 SCC setup                      ...        0 min,  0.000 sec (  0.225%)
 Dispersion                     ...        0 min,  0.000 sec (  0.054%)
 classical contributions        ...        0 min,  0.000 sec (  0.040%)
 integral evaluation            ...        0 min,  0.091 sec ( 98.058%)
 iterations                     ...        0 min,  0.001 sec (  1.045%)
 molecular gradient             ...        0 min,  0.000 sec (  0.394%)
 printout                       ...        0 min,  0.000 sec (  0.160%)

         :::::::::::::::::::::::::::::::::::::::::::::::::::::
         ::                     SUMMARY                     ::
         :::::::::::::::::::::::::::::::::::::::::::::::::::::
         :: total energy             -13.191987026774 Eh    ::
         :: gradient norm              0.000180126869 Eh/a0 ::
         :: HOMO-LUMO gap             10.023570723008 eV    ::
         ::.................................................::
         :: SCC energy               -13.251513786980 Eh    ::
         :: -> isotropic ES            0.165400692184 Eh    ::
         :: -> anisotropic ES         -0.000794420490 Eh    ::
         :: -> anisotropic XC         -0.001561280962 Eh    ::
         :: -> dispersion             -0.001856043156 Eh    ::
         :: repulsion energy           0.059526760206 Eh    ::
         :: add. restraining           0.000000000000 Eh    ::
         :: total charge              -1.000000000000 e     ::
         :::::::::::::::::::::::::::::::::::::::::::::::::::::

           ------------------------------------------------- 
          |                Numerical Hessian                |
           ------------------------------------------------- 
step length          :   0.00500
SCC accuracy         :   0.30000
Hessian scale factor :   1.00000
frozen atoms in %    :   0.00000    0
RMS gradient         :   0.00018
estimated CPU  time      0.00 min
estimated wall time      0.00 min

writing file <hessian>.

 projected vibrational frequencies (cm⁻¹)
eigval :       -0.00    -0.00     0.00     0.00     0.00     0.00
eigval :       78.34    78.52   108.82   996.33  1090.82  1090.97
eigval :     1377.10  1452.35  1452.38  3049.40  3054.23  3054.59

Property printout bound to 'properties.out'
Refinement of some symmetry elements was terminated before convergence was reached.
Some symmetry elements may remain unidentified.
Molecule has the following symmetry elements: (C3) 3*(sigma) 
It seems to be the C3v point group

           -------------------------------------------------
          | TOTAL ENERGY              -13.191987026774 Eh   |
          | TOTAL ENTHALPY            -13.147365269741 Eh   |
          | TOTAL FREE ENERGY         -13.181326190116 Eh   |
          | GRADIENT NORM               0.000180129587 Eh/α |
          | HOMO-LUMO GAP              10.023570769130 eV   |
           -------------------------------------------------

------------------------------------------------------------------------
 * finished run on 2026/03/12 at 12:46:51.892     
------------------------------------------------------------------------
 total:
 * wall-time:     0 d,  0 h,  0 min,  0.129 sec
 *  cpu-time:     0 d,  0 h,  0 min,  0.676 sec
 * ratio c/w:     5.233 speedup
 SCF:
 * wall-time:     0 d,  0 h,  0 min,  0.093 sec
 *  cpu-time:     0 d,  0 h,  0 min,  0.466 sec
 * ratio c/w:     4.999 speedup
 analytical hessian:
 * wall-time:     0 d,  0 h,  0 min,  0.015 sec
 *  cpu-time:     0 d,  0 h,  0 min,  0.119 sec
 * ratio c/w:     7.913 speedup


-------------------------   --------------------
FINAL SINGLE POINT ENERGY       -13.191987026770
-------------------------   --------------------


-------------
DIPOLE MOMENT
-------------
                                X             Y             Z
Total Dipole Moment    :     -0.11900       0.07300      -3.76200
                        -----------------------------------------
Magnitude (a.u.)       :      3.76459
Magnitude (Debye)      :      9.56883


-----------------------
VIBRATIONAL FREQUENCIES
-----------------------

Scaling factor for frequencies =  1.000000000  (already applied!)

     0:       0.00 cm**-1
     1:       0.00 cm**-1
     2:       0.00 cm**-1
     3:       0.00 cm**-1
     4:       0.00 cm**-1
     5:       0.00 cm**-1
     6:      78.34 cm**-1
     7:      78.52 cm**-1
     8:     108.82 cm**-1
     9:     996.33 cm**-1
    10:    1090.79 cm**-1
    11:    1090.94 cm**-1
    12:    1377.06 cm**-1
    13:    1452.31 cm**-1
    14:    1452.34 cm**-1
    15:    3049.31 cm**-1
    16:    3054.15 cm**-1
    17:    3054.51 cm**-1


------------
NORMAL MODES
------------

These modes are the Cartesian displacements weighted by the diagonal matrix
M(i,i)=1/sqrt(m[i]) where m[i] is the mass of the displaced atom
Thus, these vectors are normalized but *not* orthogonal

                  0          1          2          3          4          5    
      0       0.000000   0.000000   0.000000   0.000000   0.000000   0.000000
      1       0.000000   0.000000   0.000000   0.000000   0.000000   0.000000
      2       0.000000   0.000000   0.000000   0.000000   0.000000   0.000000
      3       0.000000   0.000000   0.000000   0.000000   0.000000   0.000000
      4       0.000000   0.000000   0.000000   0.000000   0.000000   0.000000
      5       0.000000   0.000000   0.000000   0.000000   0.000000   0.000000
      6       0.000000   0.000000   0.000000   0.000000   0.000000   0.000000
      7       0.000000   0.000000   0.000000   0.000000   0.000000   0.000000
      8       0.000000   0.000000   0.000000   0.000000   0.000000   0.000000
      9       0.000000   0.000000   0.000000   0.000000   0.000000   0.000000
     10       0.000000   0.000000   0.000000   0.000000   0.000000   0.000000
     11       0.000000   0.000000   0.000000   0.000000   0.000000   0.000000
     12       0.000000   0.000000   0.000000   0.000000   0.000000   0.000000
     13       0.000000   0.000000   0.000000   0.000000   0.000000   0.000000
     14       0.000000   0.000000   0.000000   0.000000   0.000000   0.000000
     15       0.000000   0.000000   0.000000   0.000000   0.000000   0.000000
     16       0.000000   0.000000   0.000000   0.000000   0.000000   0.000000
     17       0.000000   0.000000   0.000000   0.000000   0.000000   0.000000
                  6          7          8          9         10         11    
      0       0.297006   0.138599   0.011837  -0.016843   0.120011   0.066360
      1      -0.138479   0.297208  -0.006422   0.009882  -0.066299   0.120071
      2       0.011247  -0.000940  -0.414038   0.549063   0.004723  -0.000116
      3       0.403589   0.203250   0.011293  -0.013206  -0.215657  -0.145129
      4      -0.192486   0.413181  -0.004767   0.017193   0.065513  -0.117141
      5       0.178763  -0.357297  -0.410847   0.417240  -0.366595   0.657408
      6       0.431128   0.188016   0.012031  -0.004894  -0.154516  -0.127200
      7      -0.203614   0.409128  -0.006360   0.003278   0.083008  -0.225763
      8      -0.373469   0.035275  -0.407292   0.419864   0.744525  -0.018947
      9       0.407702   0.188505   0.010313  -0.021544  -0.163856  -0.023149
     10      -0.183115   0.420777  -0.006428   0.003493   0.146468  -0.191650
     11       0.242454   0.317715  -0.409847   0.417530  -0.399637  -0.637608
     12      -0.048634  -0.022684  -0.012279  -0.000025  -0.000259  -0.000142
     13       0.022676  -0.048655   0.007146   0.000019   0.000142  -0.000255
     14      -0.001451  -0.000006   0.395214   0.000707  -0.000009  -0.000000
     15      -0.162936  -0.076056   0.013645   0.012798  -0.047056  -0.026012
     16       0.075964  -0.163061  -0.008345  -0.007555   0.025999  -0.047072
     17      -0.006936   0.000834  -0.410607  -0.415018  -0.001818   0.000028
                 12         13         14         15         16         17    
      0      -0.003561  -0.001639   0.064553  -0.005218   0.045685  -0.076839
      1       0.002059   0.064574   0.001640   0.002610   0.077071   0.045580
      2       0.115962  -0.001123   0.001987   0.038582   0.000191  -0.005293
      3       0.018003   0.034575  -0.738573  -0.000447   0.025096  -0.037336
      4       0.191530   0.120428   0.008671  -0.568890  -0.669759  -0.359461
      5      -0.539988  -0.318967  -0.033495  -0.167907  -0.216882  -0.119051
      6       0.190775  -0.380441  -0.096383  -0.436315   0.017269   0.677249
      7      -0.111360  -0.505324  -0.395867   0.255650   0.041946  -0.396820
      8      -0.528940   0.164477  -0.265420  -0.178132  -0.002359   0.302629
      9      -0.158882   0.369030  -0.084175   0.501428  -0.594982   0.289471
     10      -0.109035  -0.534594   0.363693   0.280811  -0.304482   0.204979
     11      -0.540462   0.170929   0.270695  -0.169992   0.216681  -0.116978
     12      -0.000006  -0.000006   0.000249  -0.000002  -0.000028   0.000047
     13       0.000005   0.000251   0.000006   0.000001  -0.000047  -0.000028
     14       0.000219  -0.000006   0.000007   0.000142   0.000001  -0.000005
     15      -0.000384  -0.000181   0.007490  -0.000128   0.000490  -0.000820
     16       0.000221   0.007494   0.000199   0.000069   0.000828   0.000487
     17       0.011668  -0.000151   0.000228   0.002722   0.000014  -0.000177


The first frequency considered to be a vibration is 6
The total number of vibrations considered is 12


--------------------------
THERMOCHEMISTRY AT 298.15K
--------------------------

Temperature         ...   298.15 K
Pressure            ...     1.00 atm
Total Mass          ...    69.49 AMU
Quasi RRHO          ...     True
Cut-Off Frequency   ...     1.00 cm^-1

Throughout the following assumptions are being made:
  (1) The electronic state is orbitally nondegenerate
  (2) There are no thermally accessible electronically excited states
  (3) Hindered rotations indicated by low frequency modes are not
      treated as such but are treated as vibrations and this may
      cause some error
  (4) All equations used are the standard statistical mechanics
      equations for an ideal gas
  (5) All vibrations are strictly harmonic

freq.      78.34  E(vib)   ...       0.49 
freq.      78.52  E(vib)   ...       0.49 
freq.     108.82  E(vib)   ...       0.45 
freq.     996.33  E(vib)   ...       0.02 
freq.    1090.79  E(vib)   ...       0.02 
freq.    1090.94  E(vib)   ...       0.02 
freq.    1377.06  E(vib)   ...       0.01 
freq.    1452.31  E(vib)   ...       0.00 
freq.    1452.34  E(vib)   ...       0.00 
freq.    3049.31  E(vib)   ...       0.00 
freq.    3054.15  E(vib)   ...       0.00 
freq.    3054.51  E(vib)   ...       0.00 

------------
INNER ENERGY
------------

The inner energy is: U= E(el) + E(ZPE) + E(vib) + E(rot) + E(trans)
    E(el)   - is the total energy from the electronic structure calculation
              = E(kin-el) + E(nuc-el) + E(el-el) + E(nuc-nuc)
    E(ZPE)  - the the zero temperature vibrational energy from the frequency calculation
    E(vib)  - the the finite temperature correction to E(ZPE) due to population
              of excited vibrational states
    E(rot)  - is the rotational thermal energy
    E(trans)- is the translational thermal energy

Summary of contributions to the inner energy U:
Electronic energy                ...    -13.19198703 Eh
Zero point energy                ...      0.03846325 Eh      24.14 kcal/mol
Thermal vibrational correction   ...      0.00238070 Eh       1.49 kcal/mol
Thermal rotational correction    ...      0.00141627 Eh       0.89 kcal/mol
Thermal translational correction ...      0.00141627 Eh       0.89 kcal/mol
-----------------------------------------------------------------------
Total thermal energy                    -13.14831053 Eh


Summary of corrections to the electronic energy:
(perhaps to be used in another calculation)
Total thermal correction                  0.00521325 Eh       3.27 kcal/mol
Non-thermal (ZPE) correction              0.03846325 Eh      24.14 kcal/mol
-----------------------------------------------------------------------
Total correction                          0.04367649 Eh      27.41 kcal/mol


--------
ENTHALPY
--------

The enthalpy is H = U + kB*T
                kB is Boltzmann's constant
Total thermal energy              ...    -13.14831053 Eh 
Thermal Enthalpy correction       ...      0.00094421 Eh       0.59 kcal/mol
-----------------------------------------------------------------------
Total Enthalpy                    ...    -13.14736632 Eh


WARNING (ORCA/SYM): The number of Z matrix atoms does not agree with
the number of centers in the basis set. The point group will therefore
be determined without considering basis set information.


Note: Only C1 symmetry has been detected, increase convergence thresholds 
      if your molecule has a higher symmetry. Symmetry factor of 1.0 is   
      used for the rotational entropy correction. 
 

Note: Rotational entropy computed according to Herzberg 
Infrared and Raman Spectra, Chapter V,1, Van Nostrand Reinhold, 1945 
Point Group:  C1, Symmetry Number:   1  
Rotational constants in cm-1:     5.269564     0.062361     0.062360 

Vibrational entropy computed according to the QRRHO of S. Grimme
Chem.Eur.J. 2012 18 9955 using a reference frequency of 100.0 cm-1


-------
ENTROPY
-------

The entropy contributions are T*S = T*(S(el)+S(vib)+S(rot)+S(trans))
     S(el)   - electronic entropy
     S(vib)  - vibrational entropy
     S(rot)  - rotational entropy
     S(trans)- translational entropy
The entropies will be listed as multiplied by the temperature to get
units of energy

Electronic entropy                ...      0.00000000 Eh      0.00 kcal/mol
Vibrational entropy               ...      0.00474930 Eh      2.98 kcal/mol
Rotational entropy                ...      0.01134616 Eh      7.12 kcal/mol
Translational entropy             ...      0.01835566 Eh     11.52 kcal/mol
-----------------------------------------------------------------------
Final entropy term                ...      0.03445112 Eh     21.62 kcal/mol

In case the symmetry of your molecule has not been determined correctly
or in case you have a reason to use a different symmetry number we print 
out the resulting rotational entropy values for sn=1,12:

 non-linear molecules -----------------------------------
|  sn= 1 | S(rot)=       0.01134616 Eh      7.12 kcal/mol|
|  sn= 2 | S(rot)=       0.01069170 Eh      6.71 kcal/mol|
|  sn= 3 | S(rot)=       0.01030887 Eh      6.47 kcal/mol|
|  sn= 4 | S(rot)=       0.01003724 Eh      6.30 kcal/mol|
|  sn= 5 | S(rot)=       0.00982656 Eh      6.17 kcal/mol|
|  sn= 6 | S(rot)=       0.00965441 Eh      6.06 kcal/mol|
|  sn= 7 | S(rot)=       0.00950886 Eh      5.97 kcal/mol|
|  sn= 8 | S(rot)=       0.00938279 Eh      5.89 kcal/mol|
|  sn= 9 | S(rot)=       0.00927158 Eh      5.82 kcal/mol|
|  sn=10 | S(rot)=       0.00917210 Eh      5.76 kcal/mol|
|  sn=11 | S(rot)=       0.00908211 Eh      5.70 kcal/mol|
|  sn=12 | S(rot)=       0.00899995 Eh      5.65 kcal/mol|
 linear molecules ---------------------------------------
|  Dinfh | S(rot)=       0.00794574 Eh      4.99 kcal/mol|
|  Cinfv | S(rot)=       0.00860020 Eh      5.40 kcal/mol|
 --------------------------------------------------------


-------------------
GIBBS FREE ENERGY
-------------------

The Gibbs free energy is G = H - T*S

Total enthalpy                    ...    -13.14736632 Eh 
Total entropy correction          ...     -0.03445112 Eh    -21.62 kcal/mol
-----------------------------------------------------------------------
Final Gibbs free energy         ...    -13.18181744 Eh

For completeness - the Gibbs free energy minus the electronic energy
G-E(el)                           ...      0.01016959 Eh      6.38 kcal/mol


--------------------------------
SUGGESTED CITATIONS FOR THIS RUN
--------------------------------

Below you find a list of papers that are relevant to this ORCA run
We neither can nor want to force you to cite these papers, but we appreciate if you do
You receive ORCA, which is the product of decades of hard work by many enthusiastic individuals, for free
The only thing we kindly ask in return is that you cite our papers,
We deeply appreciate it, if you show your appreciation for ORCA by not just citing the generic ORCA reference.

Please note that relegating all ORCA citations to the supporting information does *not* help us.
SI sections are not indexed - citations you put there will not count into any citation statistics
But we need these citations in order to attract the funding resources that allow us to do what we are doing

Therefore, if you are a happy ORCA user, please consider citing a few of the papers listed below in the main body of your paper

In addition to the list printed below, the program has created the file product_optfreq.bibtex that contains the list in bibtex format
You can import this file easily into all common literature databanks and citation aid programs


List of essential papers. We consider these as the minimum necessary citations

  1. Bannwarth, C.; Ehlert, S.; Grimme, S.
     GFN2-xTB—An Accurate and Broadly Parametrized Self-Consistent Tight-Binding Quantum Chemical Method with Multipole Electrostatics and Density-Dependent Dispersion Contributions
     J. Chem. Theory Comput. 2019 15(3), 1652-1671
     doi.org/10.1021/acs.jctc.8b01176
  2. Neese, F.
     Software update: the ORCA program system, version 6.0
     WIRES Comput. Molec. Sci. 2025 15(1), e70019
     doi.org/10.1002/wcms.7019

List of papers to cite with high priority. The work reported in these papers was absolutely
necessary for this run to complete.
Our perspective: the developers of density functionals and basis sets usually get cited in chemistry papers
Good! But without the algorithms to do something with them, the functionals or basis sets would not do anything.
Hence, in our opinion, the algorithm design and method developments papers are equally worthy of getting cited

  1. Bykov, D.; Petrenko, T.; Izsak, R.; Kossmann, S.; Becker, U.; Valeev, E.; Neese, F.
     Efficient implementation of the analytic second derivatives of Hartree-Fock and hybrid DFT energies: a detailed analysis of different approximations
     Molec. Phys. 2015 113 , 1961-1977
     doi.org/10.1080/00268976.2015.1025114
  2. Bannwarth, C.; Caldeweyher, E.; Ehlert, S.; Hansen, A.; Pracht, P.; Seibert, J.; Spicher, S.; Grimme, S.
     Extended tight-binding quantum chemistry methods
     WIRES Comput. Molec. Sci. 2020 11(2), e1493
     doi.org/10.1002/wcms.1493

List of suggested additional citations. These are papers that are important in the 'surrounding' of 
of this run, or papers that preceded the highly important papers. If you like your results we are grateful for a citation.

  1. Neese, F.
     The ORCA program system
     WIRES Comput. Molec. Sci. 2012 2(1), 73-78
     doi.org/10.1002/wcms.81
  2. Neese, F.
     Software update: the ORCA program system, version 4.0
     WIRES Comput. Molec. Sci. 2018 8(1), 1-6
     doi.org/10.1002/wcms.1327
  3. Neese, F.; Wennmohs, F.; Becker, U.; Riplinger, C.
     The ORCA quantum chemistry program package
     J. Chem. Phys. 2020 152(22), 224108
     doi.org/10.1063/5.0004608
  4. Neese, F.
     Software update: The ORCA program system—Version 5.0
     WIRES Comput. Molec. Sci. 2022 12(1), e1606
     doi.org/10.1002/wcms.1606

List of optional additional citations

  1. Neese, F.
     Approximate second-order SCF convergence for spin unrestricted wavefunctions
     Chem. Phys. Lett. 2000 325(1-3), 93-98
     doi.org/10.1016/s0009-2614(00)00662-x

Timings for individual modules:

Sum of individual times          ...        3.893 sec (=   0.065 min)
Geometry relaxation              ...        0.068 sec (=   0.001 min)   1.7 %
XTB module                       ...        3.825 sec (=   0.064 min)  98.3 %
                             ****ORCA TERMINATED NORMALLY****
TOTAL RUN TIME: 0 days 0 hours 0 minutes 4 seconds 538 msec
