
                                 *****************
                                 * O   R   C   A *
                                 *****************

                                            #,                                       
                                            ###                                      
                                            ####                                     
                                            #####                                    
                                            ######                                   
                                           ########,                                 
                                     ,,################,,,,,                         
                               ,,#################################,,                 
                          ,,##########################################,,             
                       ,#########################################, ''#####,          
                    ,#############################################,,   '####,        
                  ,##################################################,,,,####,       
                ,###########''''           ''''###############################       
              ,#####''   ,,,,##########,,,,          '''####'''          '####       
            ,##' ,,,,###########################,,,                        '##       
           ' ,,###''''                  '''############,,,                           
         ,,##''                                '''############,,,,        ,,,,,,###''
      ,#''                                            '''#######################'''  
     '                                                          ''''####''''         
             ,#######,   #######,   ,#######,      ##                                
            ,#'     '#,  ##    ##  ,#'     '#,    #''#        ,####,    ,#,          
            ##       ##  ##   ,#'  ##            #'  '#       #'       ,# #          
            ##       ##  #######   ##           ,######,      #####,      #          
            '#,     ,#'  ##    ##  '#,     ,#' ,#      #,     #,   #      #          
             '#######'   ##     ##  '#######'  #'      '#     '####' #    #          



                #########################################################
                #                        -***-                          #
                #          Department of theory and spectroscopy        #
                #                                                       #
                #                      Frank Neese                      #
                #                                                       #
                #     Directorship, Architecture, Infrastructure        #
                #                    SHARK, DRIVERS                     #
                #        Core code/Algorithms in most modules           #
                #                                                       #
                #        Max Planck Institute fuer Kohlenforschung      #
                #                Kaiser Wilhelm Platz 1                 #
                #                 D-45470 Muelheim/Ruhr                 #
                #                      Germany                          #
                #                                                       #
                #                  All rights reserved                  #
                #                        -***-                          #
                #########################################################


                         Program Version 6.1.0  -  RELEASE   -
                                (GIT: $679e74b$)
                          ($2025-06-10 18:02:51 +0200$)


 With contributions from (in alphabetic order):
[Max-Planck-Institut fuer Kohlenforschung]                               
  Daniel Aravena         : Magnetic Suceptibility                        
  Michael Atanasov       : Ab Initio Ligand Field Theory (pilot matlab implementation)
  Alexander A. Auer      : GIAO ZORA, VPT2 properties, NMR spectrum      
  Ute Becker             : All parallelization in ORCA, NUMFREQ, NUMCALC 
  Giovanni Bistoni       : ED, misc. LED, open-shell LED, HFLD           
  Dmytro Bykov           : pre 5.0 version of the SCF Hessian            
  Marcos Casanova-Páez   : Triplet and SCS-CIS(D). UHF-(DLPNO)-IP/EA/STEOM-CCSD. UHF-CVS-IP/STEOM-CCSD   
  Vijay G. Chilkuri      : MRCI spin determinant printing, contributions to CSF-ICE 
  Pauline Colinet        : FMM embedding                                 
  Dipayan Datta          : RHF DLPNO-CCSD density                        
  Achintya Kumar Dutta   : EOM-CC, STEOM-CC                              
  Nicolas Foglia         : Exact transition moments, OPA infrastructure, MCD improvements    
  Dmitry Ganyushin       : Spin-Orbit,Spin-Spin,Magnetic field MRCI      
  Miquel Garcia-Rates    : C-PCM and meta-GGA Hessian, CCSD/C-PCM, Gaussian charge scheme 
  Tiago L. C. Gouveia    : GS-ROHF, GS-ROCIS                             
  Yang Guo               : DLPNO-NEVPT2, F12-NEVPT2, CIM, IAO-localization        
  Andreas Hansen         : Spin unrestricted coupled pair/coupled cluster methods 
  Ingolf Harden          : AUTO-CI MPn and infrastructure                
  Benjamin Helmich-Paris : MC-RPA, TRAH-(SCF,CASSCF), AVAS, COSX integrals, SCF dyn. polar., MC-PDFT, srDFT 
  Lee Huntington         : MR-EOM, pCC                                   
  Robert Izsak           : Overlap fitted RIJCOSX, COSX-SCS-MP3, EOM     
  Riya Kayal             : Wick's Theorem for AUTO-CI, AUTO-CI UHF-CCSDT 
  Emily Kempfer          : AUTO-CI RHF CISDT and CCSDT, approximate NEVPT4
  Christian Kollmar      : KDIIS, OOCD, Brueckner-CCSD(T), CCSD density, CASPT2, CASPT2-K, improved NEVPT2 
  Axel Koslowski         : Symmetry handling                             
  Simone Kossmann        : meta-GGA functionals, TD-DFT gradient, OOMP2, (MP2 Hessian; deprecated post 5.0) 
  Lucas Lang             : DCDCAS, Hyperfine gauge corrections, ICE-SOC+SSC
  Marvin Lechner         : AUTO-CI (C++ implementation), FIC-MRCC        
  Spencer Leger          : CASSCF response                               
  Dagmar Lenk            : GEPOL surface, SMD, ORCA-2-JSON               
  Dimitrios Liakos       : Extrapolation schemes; Compound Job, Property file
  Dimitrios Manganas     : Further ROCIS development; embedding schemes. LFT, Crystal Embedding 
  Dimitrios Pantazis     : SARC Basis sets                               
  Anastasios Papadopoulos: AUTO-CI, single reference methods and gradients 
  Taras Petrenko         : pre 6.0 DFT Hessian and TD-DFT gradient,  ECA, NRVS 
  Petra Pikulova         : Analytic Raman intensities                    
  Peter Pinski           : DLPNO-MP2, DLPNO-MP2 Gradient                 
  Shashank Vittal Rao    : ES-AILFT, MagRelax                            
  Christoph Reimann      : Effective Core Potentials                     
  Marius Retegan         : Local ZFS, SOC                                
  Christoph Riplinger    : Optimizer, TS searches, QM/MM, DLPNO-CCSD(T), (RO)-DLPNO pert. Triples 
  Michael Roemelt        : Original ROCIS implementation, recursive CI coupling coefficients
  Masaaki Saitow         : Open-shell DLPNO-CCSD energy and density      
  Barbara Sandhoefer     : DKH picture change effects                    
  Yorick L. A. Schmerwitz: GMF and freeze-and-release deltaSCF, NEB S-IDPP initial path                    
  Kantharuban Sivalingam : CASSCF convergence/infrastructure, NEVPT2, NEVPT3, NEVPT4(SD), FIC-MRCI and CEPA variants
  Bernardo de Souza      : ESD, SOC TD-DFT                               
  Georgi L. Stoychev     : AutoAux, RI-MP2 NMR, DLPNO-MP2 response, X2C  
  Van Anh Tran           : RI-MP2 g-tensors                              
  Willem Van den Heuvel  : Paramagnetic NMR                              
  Zikuan Wang            : NOTCH, Electric field optimization            
  Frank Wennmohs         : Technical directorship and infrastructure     
  Hang Xu                : AUTO-CI-Response properties                   
                                                                         
[FACCTs GmbH]                                                            
  Markus Bursch, Nicolas Foglia, Miquel Garcia-Rates, Ingolf Harden, Hagen Neugebauer, Anastasios Papadopoulos, 
  Christoph Riplinger, Bernardo de Souza, Georgi L. Stoychev                                                    
                                                                 
  APM, various basis sets, CI-OPT, improved COSX, DLPNO-Multilevel,           
  DOCKER, DRACO, updates on ESD, Fragmentator, GOAT, IRC, LR-CPCM, L-BFGS, MBIS, meta-GGA TD-DFT gradient, ML-optimized integration grids, 
  MM, NACMEs, nearIR, NEB, NEB-TS, NL-DFT gradient (VV10), 2- and 3-layer-ONIOM, interface openCOSMO-RS, QMMM,   
  Crystal-QMMM, RESP, rigid body optimization, SF, symmetry and pop. for TD-DFT, various functionals, SOLVATOR                                   
                                                                         
[Other institutions]                                                     
  V. Asgeirsson          : NEB                                           
  Christoph Bannwarth    : sTDA-DFT, sTD-DFT, PBEh-3c, B97-3c, D3        
  Giovanni Bistoni       : ETS/NOCV, ADLD/ADEX, COVALED                  
  Martin Brehm           : Molecular dynamics                            
  Ronald Cardenas        : ETS/NOCV                                      
  Martina Colucci        : COVALED                                       
  Sebastian Ehlert       : rSCAN, r2SCAN, r2SCAN-3c, D4, dhf basis sets  
  Marvin Friede          : D4 for Fr, Ra, Ac-Lr                          
  Lars Goerigk           : TD-DFT with DH, B97 family of functionals     
  Stefan Grimme          : VdW corrections, initial TS optimization, DFT functionals, gCP, sTDA/sTD-DF 
  Waldemar Hujo          : DFT-NL                                        
  H. Jonsson             : NEB                                           
  Holger Kruse           : gCP                                           
  Marcel Mueller         : wB97X-3c, vDZP basis set                      
  Hagen Neugebauer       : wr2SCAN, Native XTB                           
  Gianluca Regni         : ADLD/ADEX                                     
  Tobias Risthaus        : pre 6.0 range-separated hybrid DFT and stability analysis
  Lukas Wittmann         : regularized MP2, r2SCAN double-hybrids, wr2SCAN        
                                                                         
We gratefully acknowledge several colleagues who have allowed us to      
interface, adapt or use parts of their codes:                            
  Ed Valeev, F. Pavosevic, A. Kumar             : LibInt (2-el integral package), F12 methods 
  Garnet Chan, S. Sharma, J. Yang, R. Olivares  : DMRG                   
  Ulf Ekstrom                                   : XCFun DFT Library      
  Mihaly Kallay                                 : mrcc  (arbitrary order and MRCC methods)
  Frank Weinhold                                : gennbo (NPA and NBO analysis)           
  Simon Mueller                                 : openCOSMO-RS                            
  Christopher J. Cramer and Donald G. Truhlar   : smd solvation model                     
  S Lehtola, MJT Oliveira, MAL Marques          : LibXC Library                           
  Liviu Ungur et al                             : ANISO software                          


 Your calculation uses the libint2 library for the computation of 2-el integrals
 For citations please refer to: http://libint.valeyev.net

 Your ORCA version has been built with support for libXC version: 7.0.0
 For citations please refer to: https://libxc.gitlab.io

 This ORCA versions uses:
   CBLAS   interface :  Fast vector & matrix operations
   LAPACKE interface :  Fast linear algebra routines
   SCALAPACK package :  Parallel linear algebra routines
   Shared memory     :  Shared parallel matrices
   BLAS/LAPACK       :  OpenBLAS 0.3.29  USE64BITINT DYNAMIC_ARCH NO_AFFINITY SkylakeX SINGLE_THREADED
        Core in use  :  SkylakeX
   Copyright (c) 2011-2014, The OpenBLAS Project


  ***********************************
  * Starting time: Mon Mar 16 14:16:30 2026
  * Host name:     midway3-login4.rcc.local
  * Process ID:    78146
  * Working dir.:  /home/rzhu16/evans-polanyi-principle-validation/runs/sn2_cl_f/geo_opt_reactant_product
  ***********************************

Your calculation utilizes the semiempirical GFN2-xTB method
Please cite in your paper:
Bannwarth, C.; Ehlert S.; Grimme, S. J. Chem. Theory Comput. 2019, 15, 1652.
   

================================================================================

================================================================================
                                        WARNINGS
                       Please study these warnings very carefully!
================================================================================


WARNING: Analytical Hessian for XTB is limited in the analysis of the data.
       : If you want to obtain extensive IR and deltaG analysis, please use ! XTB NumFreq. 


WARNING: Geometry Optimization
  ===> : Switching off AutoStart
         For restart on a previous wavefunction, please use MOREAD

WARNING: Found dipole moment calculation with XTB calculation
  ===> : Switching off dipole moment calculation


WARNING: Found frequency calculation in combination with XTB calculation
  ===> : Need to redirect dipole moment calculation to properties.out


================================================================================
                                       INPUT FILE
================================================================================
NAME = product_optfreq.inp
|  1> ! XTB2 Opt Freq PAL8
|  2> 
|  3> %geom
|  4>   MaxIter 500
|  5> end
|  6> 
|  7> * xyz -1 1
|  8>   C      -0.324333      0.187200      0.330266
|  9>   H      -0.415904      1.269696      0.287629
| 10>   H       0.290989     -0.167878     -0.542195
| 11>   H      -1.307367     -0.274839      0.287585
| 12>   Cl      0.364847     -0.210571      1.918171
| 13>   F       0.633323     -0.365531     -2.134160
| 14> *
| 15> 
| 16>                          ****END OF INPUT****
================================================================================

                       *****************************
                       * Geometry Optimization Run *
                       *****************************

Geometry optimization settings:
Update method            Update   .... BFGS
Choice of coordinates    CoordSys .... (2022) Redundant Internals
Initial Hessian          InHess   .... Almloef's Model
Max. no of cycles        MaxIter  .... 500

Convergence Tolerances:
Energy Change            TolE     ....  5.0000e-06 Eh
Max. Gradient            TolMAXG  ....  3.0000e-04 Eh/bohr
RMS Gradient             TolRMSG  ....  1.0000e-04 Eh/bohr
Max. Displacement        TolMAXD  ....  4.0000e-03 bohr
RMS Displacement         TolRMSD  ....  2.0000e-03 bohr
Strict Convergence                .... False

------------------------------------------------------------------------------
                        ORCA OPTIMIZATION COORDINATE SETUP
------------------------------------------------------------------------------

The optimization will be done in redundant internal coordinates (2022)
Making redundant internal coordinates   ...  (2022 redundants) done
Evaluating the initial hessian          ...  (Almloef) done
Evaluating the coordinates              ...  done
Calculating the B-matrix                .... done
Calculating the G-matrix                .... done
The number of degrees of freedom        ....   16

    -----------------------------------------------------------------
                    Redundant Internal Coordinates


    -----------------------------------------------------------------
         Definition                    Initial Value    Approx d2E/dq
    -----------------------------------------------------------------
      1. B(H   1,C   0)                  1.0872         0.363825   
      2. B(H   2,C   0)                  1.1251         0.316516   
      3. B(H   3,C   0)                  1.0870         0.364036   
      4. B(Cl  4,H   2)                  2.4618         0.010000   
      5. B(Cl  4,C   0)                  1.7761         0.339384   
      6. B(F   5,H   2)                  1.6403         0.039689   
      7. A(H   1,C   0,H   3)          110.2121         0.291809   
      8. A(H   1,C   0,H   2)          109.2614         0.285488   
      9. A(H   1,C   0,Cl  4)          106.9016         0.333112   
     10. A(H   2,C   0,Cl  4)          114.2285         0.325536   
     11. A(H   3,C   0,Cl  4)          106.9065         0.333144   
     12. A(H   2,C   0,H   3)          109.2677         0.285514   
     13. A(C   0,H   2,F   5)          154.7898         0.205677   
     14. D(F   5,H   2,C   0,H   3)     60.3118         0.097000   
     15. D(F   5,H   2,C   0,Cl  4)    179.9903         0.097000   
     16. D(F   5,H   2,C   0,H   1)    -60.3421         0.097000   
    -----------------------------------------------------------------

Number of atoms                         .... 6
Number of degrees of freedom            .... 16


         *************************************************************
         *                GEOMETRY OPTIMIZATION CYCLE   1            *
         *************************************************************
---------------------------------
CARTESIAN COORDINATES (ANGSTROEM)
---------------------------------
  C    -0.324333    0.187200    0.330266
  H    -0.415904    1.269696    0.287629
  H     0.290989   -0.167878   -0.542195
  H    -1.307367   -0.274839    0.287585
  Cl    0.364847   -0.210571    1.918171
  F     0.633323   -0.365531   -2.134160

----------------------------
CARTESIAN COORDINATES (A.U.)
----------------------------
  NO LB    ZA    FRAG    MASS        X           Y           Z
   0 C   6.0000    0    12.011   -0.612901    0.353757    0.624112
   1 H   1.0000    0     1.008   -0.785945    2.399378    0.543540
   2 H   1.0000    0     1.008    0.549890   -0.317243   -1.024600
   3 H   1.0000    0     1.008   -2.470566   -0.519370    0.543457
   4 Cl 17.0000    0    35.453    0.689461   -0.397922    3.624818
   5 F   9.0000    0    18.998    1.196807   -0.690753   -4.032978

      -----------------------------------------------------------      
     |                   =====================                   |     
     |                           x T B                           |     
     |                   =====================                   |     
     |                         S. Grimme                         |     
     |          Mulliken Center for Theoretical Chemistry        |     
     |                    University of Bonn                     |     
      -----------------------------------------------------------      

   * xtb version 6.7.1 (edcfbbe) compiled by 'albert@albert-system' on 2024-07-22

   xtb is free software: you can redistribute it and/or modify it under
   the terms of the GNU Lesser General Public License as published by
   the Free Software Foundation, either version 3 of the License, or
   (at your option) any later version.
   
   xtb is distributed in the hope that it will be useful,
   but WITHOUT ANY WARRANTY; without even the implied warranty of
   MERCHANTABILITY or FITNESS FOR A PARTICULAR PURPOSE.  See the
   GNU Lesser General Public License for more details.
   
   Cite this work as:
   * C. Bannwarth, E. Caldeweyher, S. Ehlert, A. Hansen, P. Pracht,
     J. Seibert, S. Spicher, S. Grimme, WIREs Comput. Mol. Sci., 2020, 11,
     e01493. DOI: 10.1002/wcms.1493
   
   for GFN2-xTB:
   * C. Bannwarth, S. Ehlert and S. Grimme., J. Chem. Theory Comput., 2019,
     15, 1652-1671. DOI: 10.1021/acs.jctc.8b01176
   for GFN1-xTB:
   * S. Grimme, C. Bannwarth, P. Shushkov, J. Chem. Theory Comput., 2017,
     13, 1989-2009. DOI: 10.1021/acs.jctc.7b00118
   for GFN0-xTB:
   * P. Pracht, E. Caldeweyher, S. Ehlert, S. Grimme, ChemRxiv, 2019, preprint.
     DOI: 10.26434/chemrxiv.8326202.v1
   for GFN-FF:
   * S. Spicher and S. Grimme, Angew. Chem. Int. Ed., 2020, 59, 15665-15673.
     DOI: 10.1002/anie.202004239
   
   for ALPB and GBSA implicit solvation:
   * S. Ehlert, M. Stahn, S. Spicher, S. Grimme, J. Chem. Theory Comput.,
     2021, 17, 4250-4261. DOI: 10.1021/acs.jctc.1c00471
   
   for ddCOSMO and CPCM-X implicit solvation:
   * M. Stahn, S. Ehlert, S. Grimme, J. Phys. Chem. A,
     2023, XX, XXXX-XXXX. DOI: 10.1021/acs.jpca.3c04382
   
   for DFT-D4:
   * E. Caldeweyher, C. Bannwarth and S. Grimme, J. Chem. Phys., 2017,
     147, 034112. DOI: 10.1063/1.4993215
   * E. Caldeweyher, S. Ehlert, A. Hansen, H. Neugebauer, S. Spicher,
     C. Bannwarth and S. Grimme, J. Chem. Phys., 2019, 150, 154122.
     DOI: 10.1063/1.5090222
   * E. Caldeweyher, J.-M. Mewes, S. Ehlert and S. Grimme, Phys. Chem. Chem. Phys.
     2020, 22, 8499-8512. DOI: 10.1039/D0CP00502A
   
   for sTDA-xTB:
   * S. Grimme and C. Bannwarth, J. Chem. Phys., 2016, 145, 054103.
     DOI: 10.1063/1.4959605
   
   in the mass-spec context:
   * V. Asgeirsson, C. Bauer and S. Grimme, Chem. Sci., 2017, 8, 4879.
     DOI: 10.1039/c7sc00601b
   * J. Koopman and S. Grimme, ACS Omega 2019, 4, 12, 15120-15133.
     DOI: 10.1021/acsomega.9b02011
   
   for metadynamics refer to:
   * S. Grimme, J. Chem. Theory Comput., 2019, 155, 2847-2862
     DOI: 10.1021/acs.jctc.9b00143
   
   for SPH calculations refer to:
   * S. Spicher and S. Grimme, J. Chem. Theory Comput., 2021, 17, 1701-1714
     DOI: 10.1021/acs.jctc.0c01306
   
   for ONIOM refer to:
   * C. Plett, A. Katbashev, S. Ehlert, S. Grimme, M. Bursch,
     Phys. Chem. Chem. Phys., 2023, 25, 17860-17868. DOI: 10.1039/D3CP02178E
   
   for DIPRO refer to:
   * J. Kohn, N. Gildemeister, S. Grimme, D. Fazzi, A. Hansen,
     J. Chem. Phys., 2023, just accepted.
   
   for PTB refer to:
   * S. Grimme, M. Mueller, A. Hansen, J. Chem. Phys., 2023, 158, 124111.
     DOI: 10.1063/5.0137838
   
   with help from (in alphabetical order)
   P. Atkinson, C. Bannwarth, F. Bohle, G. Brandenburg, E. Caldeweyher
   M. Checinski, S. Dohm, S. Ehlert, S. Ehrlich, I. Gerasimov, C. Hölzer
   A. Katbashev, J. Kohn, J. Koopman, C. Lavigne, S. Lehtola, F. März, M. Müller,
   F. Musil, H. Neugebauer, J. Pisarek, C. Plett, P. Pracht, F. Pultar,
   J. Seibert, P. Shushkov, S. Spicher, M. Stahn, M. Steiner, T. Strunk,
   J. Stückrath, T. Rose, and J. Unsleber
   
 * started run on 2026/03/16 at 14:16:31.478     
   ID    Z sym.   atoms
    1    6 C      1
    2    1 H      2-4
    3   17 Cl     5
    4    9 F      6

           -------------------------------------------------
          |                Calculation Setup                |
           -------------------------------------------------

          program call               : /software/orca-6.1.0-el8-x86_64/bin/otool_xtb product_optfreq_XTB.xyz --grad -c -1 -u 0 -P 8 --namespace product_optfreq --input product_optfreq_XTB.input.tmp --acc 0.200000
          hostname                   : midway3-login4.rcc.local
          calculation namespace      : product_optfreq
          coordinate file            : product_optfreq_XTB.xyz
          omp threads                :                     8


molecular fragmentation (1/2 indicates fragments):
111112
# atoms in fragment 1/2:     5     1
 fragment masses (1/2) :       50.49       19.00
CMA distance (Bohr)    :   6.810
constraining FC (au)   :  0.0500

           -------------------------------------------------
          |                 G F N 2 - x T B                 |
           -------------------------------------------------

        Reference                      10.1021/acs.jctc.8b01176
      * Hamiltonian:
        H0-scaling (s, p, d)           1.850000    2.230000    2.230000
        zeta-weighting                 0.500000
      * Dispersion:
        s8                             2.700000
        a1                             0.520000
        a2                             5.000000
        s9                             5.000000
      * Repulsion:
        kExp                           1.500000    1.000000
        rExp                           1.000000
      * Coulomb:
        alpha                          2.000000
        third order                    shell-resolved
        anisotropic                    true
        a3                             3.000000
        a5                             4.000000
        cn-shift                       1.200000
        cn-exp                         4.000000
        max-rad                        5.000000


          ...................................................
          :                      SETUP                      :
          :.................................................:
          :  # basis functions                  21          :
          :  # atomic orbitals                  20          :
          :  # shells                           10          :
          :  # electrons                        22          :
          :  max. iterations                   250          :
          :  Hamiltonian                  GFN2-xTB          :
          :  restarted?                      false          :
          :  GBSA solvation                  false          :
          :  PC potential                    false          :
          :  electronic temp.          300.0000000     K    :
          :  accuracy                    0.2000000          :
          :  -> integral cutoff          0.3198970E+02      :
          :  -> integral neglect         0.2000000E-08      :
          :  -> SCF convergence          0.2000000E-06 Eh   :
          :  -> wf. convergence          0.2000000E-04 e    :
          :  Broyden damping             0.4000000          :
          :  net charge                         -1          :
          :  unpaired electrons                  0          :
          ...................................................

 iter      E             dE          RMSdq      gap      omega  full diag
   1    -13.1420641 -0.131421E+02  0.519E+00    5.39       0.0  T
   2    -13.1950965 -0.530323E-01  0.276E+00    3.37       1.0  T
   3    -13.1964903 -0.139386E-02  0.149E+00    2.96       1.0  T
   4    -13.1970148 -0.524506E-03  0.372E-01    2.40       1.0  T
   5    -13.1972038 -0.188988E-03  0.220E-01    2.55       1.0  T
   6    -13.1973113 -0.107462E-03  0.152E-01    2.45       1.0  T
   7    -13.1973894 -0.781513E-04  0.309E-02    2.42       1.3  T
   8    -13.1973906 -0.116052E-05  0.141E-02    2.41       2.9  T
   9    -13.1973909 -0.358795E-06  0.843E-03    2.42       4.8  T
  10    -13.1973911 -0.165931E-06  0.243E-03    2.42      16.8  T
  11    -13.1973911 -0.594373E-08  0.543E-04    2.41      75.2  T
  12    -13.1973911 -0.638845E-09  0.144E-04    2.41     283.3  T
  13    -13.1973911 -0.375824E-10  0.174E-05    2.41    2342.3  T

   *** convergence criteria satisfied after 13 iterations ***

         #    Occupation            Energy/Eh            Energy/eV
      -------------------------------------------------------------
         1        2.0000           -0.9103799             -24.7727
       ...           ...                  ...                  ...
         5        2.0000           -0.3426341              -9.3235
         6        2.0000           -0.3199848              -8.7072
         7        2.0000           -0.2685120              -7.3066
         8        2.0000           -0.2607780              -7.0961
         9        2.0000           -0.0959270              -2.6103
        10        2.0000           -0.0930666              -2.5325
        11        2.0000           -0.0930499              -2.5320 (HOMO)
        12                         -0.0043209              -0.1176 (LUMO)
        13                          0.1723899               4.6910
        14                          0.1724037               4.6913
        15                          0.1751468               4.7660
        16                          0.1763440               4.7986
       ...                                ...                  ...
        20                          0.4063266              11.0567
      -------------------------------------------------------------
                  HL-Gap            0.0887290 Eh            2.4144 eV
             Fermi-level           -0.0486854 Eh           -1.3248 eV

 SCC (total)                   0 d,  0 h,  0 min,  0.201 sec
 SCC setup                      ...        0 min,  0.000 sec (  0.103%)
 Dispersion                     ...        0 min,  0.000 sec (  0.058%)
 classical contributions        ...        0 min,  0.000 sec (  0.036%)
 integral evaluation            ...        0 min,  0.198 sec ( 98.644%)
 iterations                     ...        0 min,  0.002 sec (  0.859%)
 molecular gradient             ...        0 min,  0.000 sec (  0.218%)
 printout                       ...        0 min,  0.000 sec (  0.071%)

         :::::::::::::::::::::::::::::::::::::::::::::::::::::
         ::                     SUMMARY                     ::
         :::::::::::::::::::::::::::::::::::::::::::::::::::::
         :: total energy             -13.146016926682 Eh    ::
         :: gradient norm              0.002168721072 Eh/a0 ::
         :: HOMO-LUMO gap              2.414439850136 eV    ::
         ::.................................................::
         :: SCC energy               -13.197390928379 Eh    ::
         :: -> isotropic ES            0.236027382269 Eh    ::
         :: -> anisotropic ES         -0.001476047932 Eh    ::
         :: -> anisotropic XC         -0.001253879448 Eh    ::
         :: -> dispersion             -0.002092855419 Eh    ::
         :: repulsion energy           0.051374001696 Eh    ::
         :: add. restraining           0.000000000000 Eh    ::
         :: total charge              -1.000000000000 e     ::
         :::::::::::::::::::::::::::::::::::::::::::::::::::::


Property printout bound to 'properties.out'

           -------------------------------------------------
          | TOTAL ENERGY              -13.146016926682 Eh   |
          | GRADIENT NORM               0.002168721072 Eh/α |
          | HOMO-LUMO GAP               2.414439850136 eV   |
           -------------------------------------------------

------------------------------------------------------------------------
 * finished run on 2026/03/16 at 14:16:31.765     
------------------------------------------------------------------------
 total:
 * wall-time:     0 d,  0 h,  0 min,  0.287 sec
 *  cpu-time:     0 d,  0 h,  0 min,  0.443 sec
 * ratio c/w:     1.544 speedup
 SCF:
 * wall-time:     0 d,  0 h,  0 min,  0.201 sec
 *  cpu-time:     0 d,  0 h,  0 min,  0.371 sec
 * ratio c/w:     1.844 speedup


-------------------------   --------------------
FINAL SINGLE POINT ENERGY       -13.146016926680
-------------------------   --------------------


-------------
DIPOLE MOMENT
-------------
                                X             Y             Z
Total Dipole Moment    :     -1.38200       0.79800       2.14100
                        -----------------------------------------
Magnitude (a.u.)       :      2.67032
Magnitude (Debye)      :      6.78741


------------------
CARTESIAN GRADIENT
------------------

   1   C   :    0.000396276   -0.000323097    0.000021727
   2   H   :    0.000349191   -0.000107291   -0.000427320
   3   H   :    0.000679285   -0.000387743    0.000568778
   4   H   :    0.000347761   -0.000207073   -0.000425895
   5   Cl  :   -0.000708855    0.000411924    0.000692950
   6   F   :   -0.001063658    0.000613280   -0.000430239

Difference to translation invariance:
           :   -0.0000000000   -0.0000000000   -0.0000000000

Difference to rotation invariance:
           :    0.0000000046    0.0000000083    0.0000000001

Norm of the Cartesian gradient     ...    0.0021687211
RMS gradient                       ...    0.0005111725
MAX gradient                       ...    0.0010636578
------------------------------------------------------------------------------
                         ORCA GEOMETRY RELAXATION STEP
------------------------------------------------------------------------------

Reading the OPT-File                    .... done
Getting information on internals        .... done
Copying old internal coords+grads       .... done
Making the new internal coordinates     .... (2022 redundants) done
Validating the new internal coordinates .... (2022 redundants) done
Calculating the B-matrix                .... done
Calculating the G,G- and P matrices     .... done
Transforming gradient to internals      .... done
Projecting the internal gradient        .... done
Number of atoms                         ....   6
Number of internal coordinates          ....  16
Current Energy                          ....   -13.146016927 Eh
Current gradient norm                   ....     0.002168721 Eh/bohr
Maximum allowed component of the step   ....  0.300
Current trust radius                    ....  0.300
Evaluating the initial hessian          ....  (Almloef) done
Projecting the Hessian                  .... done
Forming the augmented Hessian           .... done
Diagonalizing the augmented Hessian     .... done
Last element of RFO vector              ....  0.999658843
Lowest eigenvalues of augmented Hessian:
 -0.000121611  0.039689291  0.088722653  0.097000450  0.205755009
Length of the computed step             ....  0.026127816
The final length of the internal step   ....  0.026127816
Converting the step to Cartesian space:
 Initial RMS(Int)=    0.0065319541
Transforming coordinates:
 Iter   0:  RMS(Cart)=    0.0135266828 RMS(Int)=    0.0065016401
done
Storing new coordinates                 .... done

                                .--------------------.
          ----------------------|Geometry convergence|-------------------------
          Item                value                   Tolerance       Converged
          ---------------------------------------------------------------------
          RMS gradient        0.0012550876            0.0001000000      NO
          MAX gradient        0.0040150568            0.0003000000      NO
          RMS step            0.0065319541            0.0020000000      NO
          MAX step            0.0195096698            0.0040000000      NO
          -------------------------------------------------------------------------
          ........................................................
          Max(Bonds)      0.0066      Max(Angles)    1.12
          Max(Dihed)        0.13      Max(Improp)    0.00
          ---------------------------------------------------------------------

The optimization has not yet converged - more geometry cycles are needed


    ---------------------------------------------------------------------------
                         Redundant Internal Coordinates
                            (Angstroem and degrees)

        Definition                    Value    dE/dq     Step     New-Value
    ----------------------------------------------------------------------------
     1. B(H   1,C   0)                1.0872 -0.000119  0.0002    1.0874   
     2. B(H   2,C   0)                1.1251 -0.001193  0.0008    1.1259   
     3. B(H   3,C   0)                1.0870 -0.000210  0.0003    1.0873   
     4. B(Cl  4,H   2)                2.4618  0.001068 -0.0066    2.4553   
     5. B(Cl  4,C   0)                1.7761 -0.000719 -0.0002    1.7759   
     6. B(F   5,H   2)                1.6403  0.000122 -0.0016    1.6387   
     7. A(H   1,C   0,H   3)          110.21  0.000413   -0.03    110.18   
     8. A(H   1,C   0,H   2)          109.26 -0.000993    0.24    109.50   
     9. A(H   1,C   0,Cl  4)          106.90 -0.000134    0.04    106.94   
    10. A(H   2,C   0,Cl  4)          114.23  0.001873   -0.54    113.69   
    11. A(H   3,C   0,Cl  4)          106.91 -0.000128    0.04    106.95   
    12. A(H   2,C   0,H   3)          109.27 -0.000989    0.24    109.51   
    13. A(C   0,H   2,F   5)          154.79 -0.004015    1.12    155.91   
    14. D(F   5,H   2,C   0,H   3)     60.31 -0.000357    0.13     60.44   
    15. D(F   5,H   2,C   0,Cl  4)    179.99  0.000003   -0.00    179.99   
    16. D(F   5,H   2,C   0,H   1)    -60.34  0.000353   -0.13    -60.47   
    ----------------------------------------------------------------------------

Geometry step timings:
Preparation and reading OPT file:      0.000 s ( 2.764 %)
Internal coordinates            :      0.000 s ( 4.838 %)
B/P matrices and projection     :      0.000 s (11.377 %)
Hessian update/contruction      :      0.001 s (34.662 %)
Making the step                 :      0.000 s (12.812 %)
Converting the step to Cartesian:      0.000 s ( 4.678 %)
Storing new data                :      0.000 s ( 6.326 %)
Checking convergence            :      0.000 s ( 5.210 %)
Final printing                  :      0.000 s (17.172 %)
Total time                      :      0.002 s

Time for energy+gradient        :      0.297 s
Time for complete geometry iter :      0.301 s

         *************************************************************
         *                GEOMETRY OPTIMIZATION CYCLE   2            *
         *************************************************************
---------------------------------
CARTESIAN COORDINATES (ANGSTROEM)
---------------------------------
  C    -0.330046    0.190529    0.329178
  H    -0.422278    1.273393    0.293430
  H     0.283485   -0.163531   -0.546002
  H    -1.313845   -0.271185    0.293389
  Cl    0.375991   -0.216990    1.906939
  F     0.648247   -0.374140   -2.129638

----------------------------
CARTESIAN COORDINATES (A.U.)
----------------------------
  NO LB    ZA    FRAG    MASS        X           Y           Z
   0 C   6.0000    0    12.011   -0.623697    0.360048    0.622056
   1 H   1.0000    0     1.008   -0.797989    2.406364    0.554502
   2 H   1.0000    0     1.008    0.535709   -0.309028   -1.031795
   3 H   1.0000    0     1.008   -2.482807   -0.512465    0.554425
   4 Cl 17.0000    0    35.453    0.710520   -0.410051    3.603592
   5 F   9.0000    0    18.998    1.225010   -0.707022   -4.024432

      -----------------------------------------------------------      
     |                   =====================                   |     
     |                           x T B                           |     
     |                   =====================                   |     
     |                         S. Grimme                         |     
     |          Mulliken Center for Theoretical Chemistry        |     
     |                    University of Bonn                     |     
      -----------------------------------------------------------      

   * xtb version 6.7.1 (edcfbbe) compiled by 'albert@albert-system' on 2024-07-22

   xtb is free software: you can redistribute it and/or modify it under
   the terms of the GNU Lesser General Public License as published by
   the Free Software Foundation, either version 3 of the License, or
   (at your option) any later version.
   
   xtb is distributed in the hope that it will be useful,
   but WITHOUT ANY WARRANTY; without even the implied warranty of
   MERCHANTABILITY or FITNESS FOR A PARTICULAR PURPOSE.  See the
   GNU Lesser General Public License for more details.
   
   Cite this work as:
   * C. Bannwarth, E. Caldeweyher, S. Ehlert, A. Hansen, P. Pracht,
     J. Seibert, S. Spicher, S. Grimme, WIREs Comput. Mol. Sci., 2020, 11,
     e01493. DOI: 10.1002/wcms.1493
   
   for GFN2-xTB:
   * C. Bannwarth, S. Ehlert and S. Grimme., J. Chem. Theory Comput., 2019,
     15, 1652-1671. DOI: 10.1021/acs.jctc.8b01176
   for GFN1-xTB:
   * S. Grimme, C. Bannwarth, P. Shushkov, J. Chem. Theory Comput., 2017,
     13, 1989-2009. DOI: 10.1021/acs.jctc.7b00118
   for GFN0-xTB:
   * P. Pracht, E. Caldeweyher, S. Ehlert, S. Grimme, ChemRxiv, 2019, preprint.
     DOI: 10.26434/chemrxiv.8326202.v1
   for GFN-FF:
   * S. Spicher and S. Grimme, Angew. Chem. Int. Ed., 2020, 59, 15665-15673.
     DOI: 10.1002/anie.202004239
   
   for ALPB and GBSA implicit solvation:
   * S. Ehlert, M. Stahn, S. Spicher, S. Grimme, J. Chem. Theory Comput.,
     2021, 17, 4250-4261. DOI: 10.1021/acs.jctc.1c00471
   
   for ddCOSMO and CPCM-X implicit solvation:
   * M. Stahn, S. Ehlert, S. Grimme, J. Phys. Chem. A,
     2023, XX, XXXX-XXXX. DOI: 10.1021/acs.jpca.3c04382
   
   for DFT-D4:
   * E. Caldeweyher, C. Bannwarth and S. Grimme, J. Chem. Phys., 2017,
     147, 034112. DOI: 10.1063/1.4993215
   * E. Caldeweyher, S. Ehlert, A. Hansen, H. Neugebauer, S. Spicher,
     C. Bannwarth and S. Grimme, J. Chem. Phys., 2019, 150, 154122.
     DOI: 10.1063/1.5090222
   * E. Caldeweyher, J.-M. Mewes, S. Ehlert and S. Grimme, Phys. Chem. Chem. Phys.
     2020, 22, 8499-8512. DOI: 10.1039/D0CP00502A
   
   for sTDA-xTB:
   * S. Grimme and C. Bannwarth, J. Chem. Phys., 2016, 145, 054103.
     DOI: 10.1063/1.4959605
   
   in the mass-spec context:
   * V. Asgeirsson, C. Bauer and S. Grimme, Chem. Sci., 2017, 8, 4879.
     DOI: 10.1039/c7sc00601b
   * J. Koopman and S. Grimme, ACS Omega 2019, 4, 12, 15120-15133.
     DOI: 10.1021/acsomega.9b02011
   
   for metadynamics refer to:
   * S. Grimme, J. Chem. Theory Comput., 2019, 155, 2847-2862
     DOI: 10.1021/acs.jctc.9b00143
   
   for SPH calculations refer to:
   * S. Spicher and S. Grimme, J. Chem. Theory Comput., 2021, 17, 1701-1714
     DOI: 10.1021/acs.jctc.0c01306
   
   for ONIOM refer to:
   * C. Plett, A. Katbashev, S. Ehlert, S. Grimme, M. Bursch,
     Phys. Chem. Chem. Phys., 2023, 25, 17860-17868. DOI: 10.1039/D3CP02178E
   
   for DIPRO refer to:
   * J. Kohn, N. Gildemeister, S. Grimme, D. Fazzi, A. Hansen,
     J. Chem. Phys., 2023, just accepted.
   
   for PTB refer to:
   * S. Grimme, M. Mueller, A. Hansen, J. Chem. Phys., 2023, 158, 124111.
     DOI: 10.1063/5.0137838
   
   with help from (in alphabetical order)
   P. Atkinson, C. Bannwarth, F. Bohle, G. Brandenburg, E. Caldeweyher
   M. Checinski, S. Dohm, S. Ehlert, S. Ehrlich, I. Gerasimov, C. Hölzer
   A. Katbashev, J. Kohn, J. Koopman, C. Lavigne, S. Lehtola, F. März, M. Müller,
   F. Musil, H. Neugebauer, J. Pisarek, C. Plett, P. Pracht, F. Pultar,
   J. Seibert, P. Shushkov, S. Spicher, M. Stahn, M. Steiner, T. Strunk,
   J. Stückrath, T. Rose, and J. Unsleber
   
 * started run on 2026/03/16 at 14:16:31.795     
   ID    Z sym.   atoms
    1    6 C      1
    2    1 H      2-4
    3   17 Cl     5
    4    9 F      6

           -------------------------------------------------
          |                Calculation Setup                |
           -------------------------------------------------

          program call               : /software/orca-6.1.0-el8-x86_64/bin/otool_xtb product_optfreq_XTB.xyz --grad -c -1 -u 0 -P 8 --namespace product_optfreq --input product_optfreq_XTB.input.tmp --acc 0.200000
          hostname                   : midway3-login4.rcc.local
          calculation namespace      : product_optfreq
          coordinate file            : product_optfreq_XTB.xyz
          omp threads                :                     8


molecular fragmentation (1/2 indicates fragments):
111112
# atoms in fragment 1/2:     5     1
 fragment masses (1/2) :       50.49       19.00
CMA distance (Bohr)    :   6.790
constraining FC (au)   :  0.0500

           -------------------------------------------------
          |                 G F N 2 - x T B                 |
           -------------------------------------------------

        Reference                      10.1021/acs.jctc.8b01176
      * Hamiltonian:
        H0-scaling (s, p, d)           1.850000    2.230000    2.230000
        zeta-weighting                 0.500000
      * Dispersion:
        s8                             2.700000
        a1                             0.520000
        a2                             5.000000
        s9                             5.000000
      * Repulsion:
        kExp                           1.500000    1.000000
        rExp                           1.000000
      * Coulomb:
        alpha                          2.000000
        third order                    shell-resolved
        anisotropic                    true
        a3                             3.000000
        a5                             4.000000
        cn-shift                       1.200000
        cn-exp                         4.000000
        max-rad                        5.000000

q/qsh data taken from xtbrestart
CAMM data taken from xtbrestart

          ...................................................
          :                      SETUP                      :
          :.................................................:
          :  # basis functions                  21          :
          :  # atomic orbitals                  20          :
          :  # shells                           10          :
          :  # electrons                        22          :
          :  max. iterations                   250          :
          :  Hamiltonian                  GFN2-xTB          :
          :  restarted?                       true          :
          :  GBSA solvation                  false          :
          :  PC potential                    false          :
          :  electronic temp.          300.0000000     K    :
          :  accuracy                    0.2000000          :
          :  -> integral cutoff          0.3198970E+02      :
          :  -> integral neglect         0.2000000E-08      :
          :  -> SCF convergence          0.2000000E-06 Eh   :
          :  -> wf. convergence          0.2000000E-04 e    :
          :  Broyden damping             0.4000000          :
          :  net charge                         -1          :
          :  unpaired electrons                  0          :
          ...................................................

 iter      E             dE          RMSdq      gap      omega  full diag
   1    -13.1973609 -0.131974E+02  0.628E-02    2.42       0.0  T
   2    -13.1973611 -0.166376E-06  0.367E-02    2.42       1.1  T
   3    -13.1973611 -0.266310E-07  0.271E-03    2.41      15.0  T
   4    -13.1973611 -0.724874E-08  0.133E-03    2.41      30.8  T
   5    -13.1973611 -0.141127E-08  0.511E-04    2.42      79.9  T
   6    -13.1973611 -0.766988E-09  0.226E-04    2.41     180.3  T
   7    -13.1973611 -0.141096E-09  0.108E-04    2.41     379.7  T
   8    -13.1973611 -0.235314E-10  0.742E-06    2.41    5501.7  T

   *** convergence criteria satisfied after 8 iterations ***

         #    Occupation            Energy/Eh            Energy/eV
      -------------------------------------------------------------
         1        2.0000           -0.9102403             -24.7689
       ...           ...                  ...                  ...
         5        2.0000           -0.3427619              -9.3270
         6        2.0000           -0.3199618              -8.7066
         7        2.0000           -0.2684340              -7.3045
         8        2.0000           -0.2606018              -7.0913
         9        2.0000           -0.0957665              -2.6059
        10        2.0000           -0.0928695              -2.5271
        11        2.0000           -0.0928570              -2.5268 (HOMO)
        12                         -0.0041131              -0.1119 (LUMO)
        13                          0.1724648               4.6930
        14                          0.1725555               4.6955
        15                          0.1752620               4.7691
        16                          0.1765419               4.8040
       ...                                ...                  ...
        20                          0.4061881              11.0529
      -------------------------------------------------------------
                  HL-Gap            0.0887439 Eh            2.4148 eV
             Fermi-level           -0.0484850 Eh           -1.3193 eV

 SCC (total)                   0 d,  0 h,  0 min,  0.127 sec
 SCC setup                      ...        0 min,  0.000 sec (  0.164%)
 Dispersion                     ...        0 min,  0.000 sec (  0.044%)
 classical contributions        ...        0 min,  0.000 sec (  0.034%)
 integral evaluation            ...        0 min,  0.125 sec ( 98.174%)
 iterations                     ...        0 min,  0.001 sec (  1.019%)
 molecular gradient             ...        0 min,  0.001 sec (  0.428%)
 printout                       ...        0 min,  0.000 sec (  0.123%)

         :::::::::::::::::::::::::::::::::::::::::::::::::::::
         ::                     SUMMARY                     ::
         :::::::::::::::::::::::::::::::::::::::::::::::::::::
         :: total energy             -13.146129254147 Eh    ::
         :: gradient norm              0.002098840456 Eh/a0 ::
         :: HOMO-LUMO gap              2.414843506984 eV    ::
         ::.................................................::
         :: SCC energy               -13.197360889803 Eh    ::
         :: -> isotropic ES            0.236164647109 Eh    ::
         :: -> anisotropic ES         -0.001508222465 Eh    ::
         :: -> anisotropic XC         -0.001285978064 Eh    ::
         :: -> dispersion             -0.002095586515 Eh    ::
         :: repulsion energy           0.051231635656 Eh    ::
         :: add. restraining           0.000000000000 Eh    ::
         :: total charge              -1.000000000000 e     ::
         :::::::::::::::::::::::::::::::::::::::::::::::::::::


Property printout bound to 'properties.out'

           -------------------------------------------------
          | TOTAL ENERGY              -13.146129254147 Eh   |
          | GRADIENT NORM               0.002098840456 Eh/α |
          | HOMO-LUMO GAP               2.414843506984 eV   |
           -------------------------------------------------

------------------------------------------------------------------------
 * finished run on 2026/03/16 at 14:16:31.985     
------------------------------------------------------------------------
 total:
 * wall-time:     0 d,  0 h,  0 min,  0.190 sec
 *  cpu-time:     0 d,  0 h,  0 min,  0.615 sec
 * ratio c/w:     3.244 speedup
 SCF:
 * wall-time:     0 d,  0 h,  0 min,  0.128 sec
 *  cpu-time:     0 d,  0 h,  0 min,  0.497 sec
 * ratio c/w:     3.896 speedup


-------------------------   --------------------
FINAL SINGLE POINT ENERGY       -13.146129254150
-------------------------   --------------------


-------------
DIPOLE MOMENT
-------------
                                X             Y             Z
Total Dipole Moment    :     -1.41500       0.81700       2.14400
                        -----------------------------------------
Magnitude (a.u.)       :      2.69564
Magnitude (Debye)      :      6.85176


------------------
CARTESIAN GRADIENT
------------------

   1   C   :    0.000161403   -0.000116271   -0.000179790
   2   H   :    0.000184324    0.000034688   -0.000347110
   3   H   :    0.000976375   -0.000557248    0.000830301
   4   H   :    0.000071631   -0.000167525   -0.000347519
   5   Cl  :   -0.000444037    0.000259063    0.000571454
   6   F   :   -0.000949695    0.000547293   -0.000527336

Difference to translation invariance:
           :    0.0000000000    0.0000000000    0.0000000000

Difference to rotation invariance:
           :    0.0000000065   -0.0000000243   -0.0000000050

Norm of the Cartesian gradient     ...    0.0020988405
RMS gradient                       ...    0.0004947014
MAX gradient                       ...    0.0009763746
------------------------------------------------------------------------------
                         ORCA GEOMETRY RELAXATION STEP
------------------------------------------------------------------------------

Reading the OPT-File                    .... done
Getting information on internals        .... done
Copying old internal coords+grads       .... done
Making the new internal coordinates     .... (2022 redundants) done
Validating the new internal coordinates .... (2022 redundants) done
Calculating the B-matrix                .... done
Calculating the G,G- and P matrices     .... done
Transforming gradient to internals      .... done
Projecting the internal gradient        .... done
Number of atoms                         ....   6
Number of internal coordinates          ....  16
Current Energy                          ....   -13.146129254 Eh
Current gradient norm                   ....     0.002098840 Eh/bohr
Maximum allowed component of the step   ....  0.300
Current trust radius                    ....  0.300
Updating the Hessian (BFGS)             .... done
Forming the augmented Hessian           .... done
Diagonalizing the augmented Hessian     .... done
Last element of RFO vector              ....  0.987384267
Lowest eigenvalues of augmented Hessian:
 -0.000635537  0.023063737  0.043946164  0.097000452  0.109474546
Length of the computed step             ....  0.160365507
The final length of the internal step   ....  0.160365507
Converting the step to Cartesian space:
 Initial RMS(Int)=    0.0400913767
Transforming coordinates:
 Iter   0:  RMS(Cart)=    0.0810068132 RMS(Int)=    0.0388198217
 Iter   5:  RMS(Cart)=    0.0000003177 RMS(Int)=    0.0000004994
done
Storing new coordinates                 .... done
The predicted energy change is          ....    -0.000325941
Previously predicted energy change      ....    -0.000060847
Actually observed energy change         ....    -0.000112327
Ratio of predicted to observed change   ....     1.846059247
New trust radius                        ....     0.200000000

                                .--------------------.
          ----------------------|Geometry convergence|-------------------------
          Item                value                   Tolerance       Converged
          ---------------------------------------------------------------------
          Energy change      -0.0001123275            0.0000050000      NO
          RMS gradient        0.0010615673            0.0001000000      NO
          MAX gradient        0.0036999882            0.0003000000      NO
          RMS step            0.0400913767            0.0020000000      NO
          MAX step            0.1273945305            0.0040000000      NO
          -------------------------------------------------------------------------
          ........................................................
          Max(Bonds)      0.0349      Max(Angles)    7.30
          Max(Dihed)        0.75      Max(Improp)    0.00
          ---------------------------------------------------------------------

The optimization has not yet converged - more geometry cycles are needed


    ---------------------------------------------------------------------------
                         Redundant Internal Coordinates
                            (Angstroem and degrees)

        Definition                    Value    dE/dq     Step     New-Value
    ----------------------------------------------------------------------------
     1. B(H   1,C   0)                1.0874  0.000030 -0.0002    1.0872   
     2. B(H   2,C   0)                1.1259 -0.000806  0.0036    1.1296   
     3. B(H   3,C   0)                1.0873  0.000018  0.0000    1.0874   
     4. B(Cl  4,H   2)                2.4553  0.000785 -0.0349    2.4204   
     5. B(Cl  4,C   0)                1.7759 -0.000441 -0.0019    1.7740   
     6. B(F   5,H   2)                1.6387  0.000228 -0.0201    1.6186   
     7. A(H   1,C   0,H   3)          110.18  0.000239   -0.05    110.13   
     8. A(H   1,C   0,H   2)          109.50 -0.000705    1.25    110.75   
     9. A(H   1,C   0,Cl  4)          106.94 -0.000039    0.15    107.10   
    10. A(H   2,C   0,Cl  4)          113.69  0.001269   -2.77    110.92   
    11. A(H   3,C   0,Cl  4)          106.95 -0.000034    0.15    107.09   
    12. A(H   2,C   0,H   3)          109.51 -0.000699    1.24    110.75   
    13. A(C   0,H   2,F   5)          155.91 -0.003700    7.30    163.21   
    14. D(F   5,H   2,C   0,H   3)     60.44 -0.000294    0.75     61.19   
    15. D(F   5,H   2,C   0,Cl  4)    179.99  0.000004   -0.01    179.98   
    16. D(F   5,H   2,C   0,H   1)    -60.47  0.000289   -0.74    -61.21   
    ----------------------------------------------------------------------------

Geometry step timings:
Preparation and reading OPT file:      0.000 s ( 2.723 %)
Internal coordinates            :      0.000 s ( 3.753 %)
B/P matrices and projection     :      0.000 s (13.834 %)
Hessian update/contruction      :      0.000 s (29.875 %)
Making the step                 :      0.000 s ( 8.315 %)
Converting the step to Cartesian:      0.000 s ( 4.194 %)
Storing new data                :      0.000 s ( 6.770 %)
Checking convergence            :      0.000 s ( 7.358 %)
Final printing                  :      0.000 s (23.032 %)
Total time                      :      0.001 s

Time for energy+gradient        :      0.218 s
Time for complete geometry iter :      0.221 s

         *************************************************************
         *                GEOMETRY OPTIMIZATION CYCLE   3            *
         *************************************************************
---------------------------------
CARTESIAN COORDINATES (ANGSTROEM)
---------------------------------
  C    -0.362206    0.209202    0.320699
  H    -0.456088    1.292328    0.326927
  H     0.234846   -0.135430   -0.574292
  H    -1.347181   -0.251430    0.326874
  Cl    0.439319   -0.253577    1.834318
  F     0.732866   -0.423017   -2.087230

----------------------------
CARTESIAN COORDINATES (A.U.)
----------------------------
  NO LB    ZA    FRAG    MASS        X           Y           Z
   0 C   6.0000    0    12.011   -0.684470    0.395335    0.606032
   1 H   1.0000    0     1.008   -0.861882    2.442146    0.617803
   2 H   1.0000    0     1.008    0.443795   -0.255925   -1.085255
   3 H   1.0000    0     1.008   -2.545804   -0.475134    0.617703
   4 Cl 17.0000    0    35.453    0.830193   -0.479190    3.466359
   5 F   9.0000    0    18.998    1.384915   -0.799386   -3.944293

      -----------------------------------------------------------      
     |                   =====================                   |     
     |                           x T B                           |     
     |                   =====================                   |     
     |                         S. Grimme                         |     
     |          Mulliken Center for Theoretical Chemistry        |     
     |                    University of Bonn                     |     
      -----------------------------------------------------------      

   * xtb version 6.7.1 (edcfbbe) compiled by 'albert@albert-system' on 2024-07-22

   xtb is free software: you can redistribute it and/or modify it under
   the terms of the GNU Lesser General Public License as published by
   the Free Software Foundation, either version 3 of the License, or
   (at your option) any later version.
   
   xtb is distributed in the hope that it will be useful,
   but WITHOUT ANY WARRANTY; without even the implied warranty of
   MERCHANTABILITY or FITNESS FOR A PARTICULAR PURPOSE.  See the
   GNU Lesser General Public License for more details.
   
   Cite this work as:
   * C. Bannwarth, E. Caldeweyher, S. Ehlert, A. Hansen, P. Pracht,
     J. Seibert, S. Spicher, S. Grimme, WIREs Comput. Mol. Sci., 2020, 11,
     e01493. DOI: 10.1002/wcms.1493
   
   for GFN2-xTB:
   * C. Bannwarth, S. Ehlert and S. Grimme., J. Chem. Theory Comput., 2019,
     15, 1652-1671. DOI: 10.1021/acs.jctc.8b01176
   for GFN1-xTB:
   * S. Grimme, C. Bannwarth, P. Shushkov, J. Chem. Theory Comput., 2017,
     13, 1989-2009. DOI: 10.1021/acs.jctc.7b00118
   for GFN0-xTB:
   * P. Pracht, E. Caldeweyher, S. Ehlert, S. Grimme, ChemRxiv, 2019, preprint.
     DOI: 10.26434/chemrxiv.8326202.v1
   for GFN-FF:
   * S. Spicher and S. Grimme, Angew. Chem. Int. Ed., 2020, 59, 15665-15673.
     DOI: 10.1002/anie.202004239
   
   for ALPB and GBSA implicit solvation:
   * S. Ehlert, M. Stahn, S. Spicher, S. Grimme, J. Chem. Theory Comput.,
     2021, 17, 4250-4261. DOI: 10.1021/acs.jctc.1c00471
   
   for ddCOSMO and CPCM-X implicit solvation:
   * M. Stahn, S. Ehlert, S. Grimme, J. Phys. Chem. A,
     2023, XX, XXXX-XXXX. DOI: 10.1021/acs.jpca.3c04382
   
   for DFT-D4:
   * E. Caldeweyher, C. Bannwarth and S. Grimme, J. Chem. Phys., 2017,
     147, 034112. DOI: 10.1063/1.4993215
   * E. Caldeweyher, S. Ehlert, A. Hansen, H. Neugebauer, S. Spicher,
     C. Bannwarth and S. Grimme, J. Chem. Phys., 2019, 150, 154122.
     DOI: 10.1063/1.5090222
   * E. Caldeweyher, J.-M. Mewes, S. Ehlert and S. Grimme, Phys. Chem. Chem. Phys.
     2020, 22, 8499-8512. DOI: 10.1039/D0CP00502A
   
   for sTDA-xTB:
   * S. Grimme and C. Bannwarth, J. Chem. Phys., 2016, 145, 054103.
     DOI: 10.1063/1.4959605
   
   in the mass-spec context:
   * V. Asgeirsson, C. Bauer and S. Grimme, Chem. Sci., 2017, 8, 4879.
     DOI: 10.1039/c7sc00601b
   * J. Koopman and S. Grimme, ACS Omega 2019, 4, 12, 15120-15133.
     DOI: 10.1021/acsomega.9b02011
   
   for metadynamics refer to:
   * S. Grimme, J. Chem. Theory Comput., 2019, 155, 2847-2862
     DOI: 10.1021/acs.jctc.9b00143
   
   for SPH calculations refer to:
   * S. Spicher and S. Grimme, J. Chem. Theory Comput., 2021, 17, 1701-1714
     DOI: 10.1021/acs.jctc.0c01306
   
   for ONIOM refer to:
   * C. Plett, A. Katbashev, S. Ehlert, S. Grimme, M. Bursch,
     Phys. Chem. Chem. Phys., 2023, 25, 17860-17868. DOI: 10.1039/D3CP02178E
   
   for DIPRO refer to:
   * J. Kohn, N. Gildemeister, S. Grimme, D. Fazzi, A. Hansen,
     J. Chem. Phys., 2023, just accepted.
   
   for PTB refer to:
   * S. Grimme, M. Mueller, A. Hansen, J. Chem. Phys., 2023, 158, 124111.
     DOI: 10.1063/5.0137838
   
   with help from (in alphabetical order)
   P. Atkinson, C. Bannwarth, F. Bohle, G. Brandenburg, E. Caldeweyher
   M. Checinski, S. Dohm, S. Ehlert, S. Ehrlich, I. Gerasimov, C. Hölzer
   A. Katbashev, J. Kohn, J. Koopman, C. Lavigne, S. Lehtola, F. März, M. Müller,
   F. Musil, H. Neugebauer, J. Pisarek, C. Plett, P. Pracht, F. Pultar,
   J. Seibert, P. Shushkov, S. Spicher, M. Stahn, M. Steiner, T. Strunk,
   J. Stückrath, T. Rose, and J. Unsleber
   
 * started run on 2026/03/16 at 14:16:32.000     
   ID    Z sym.   atoms
    1    6 C      1
    2    1 H      2-4
    3   17 Cl     5
    4    9 F      6

           -------------------------------------------------
          |                Calculation Setup                |
           -------------------------------------------------

          program call               : /software/orca-6.1.0-el8-x86_64/bin/otool_xtb product_optfreq_XTB.xyz --grad -c -1 -u 0 -P 8 --namespace product_optfreq --input product_optfreq_XTB.input.tmp --acc 0.200000
          hostname                   : midway3-login4.rcc.local
          calculation namespace      : product_optfreq
          coordinate file            : product_optfreq_XTB.xyz
          omp threads                :                     8


molecular fragmentation (1/2 indicates fragments):
111112
# atoms in fragment 1/2:     5     1
 fragment masses (1/2) :       50.49       19.00
CMA distance (Bohr)    :   6.632
constraining FC (au)   :  0.0500

           -------------------------------------------------
          |                 G F N 2 - x T B                 |
           -------------------------------------------------

        Reference                      10.1021/acs.jctc.8b01176
      * Hamiltonian:
        H0-scaling (s, p, d)           1.850000    2.230000    2.230000
        zeta-weighting                 0.500000
      * Dispersion:
        s8                             2.700000
        a1                             0.520000
        a2                             5.000000
        s9                             5.000000
      * Repulsion:
        kExp                           1.500000    1.000000
        rExp                           1.000000
      * Coulomb:
        alpha                          2.000000
        third order                    shell-resolved
        anisotropic                    true
        a3                             3.000000
        a5                             4.000000
        cn-shift                       1.200000
        cn-exp                         4.000000
        max-rad                        5.000000

q/qsh data taken from xtbrestart
CAMM data taken from xtbrestart

          ...................................................
          :                      SETUP                      :
          :.................................................:
          :  # basis functions                  21          :
          :  # atomic orbitals                  20          :
          :  # shells                           10          :
          :  # electrons                        22          :
          :  max. iterations                   250          :
          :  Hamiltonian                  GFN2-xTB          :
          :  restarted?                       true          :
          :  GBSA solvation                  false          :
          :  PC potential                    false          :
          :  electronic temp.          300.0000000     K    :
          :  accuracy                    0.2000000          :
          :  -> integral cutoff          0.3198970E+02      :
          :  -> integral neglect         0.2000000E-08      :
          :  -> SCF convergence          0.2000000E-06 Eh   :
          :  -> wf. convergence          0.2000000E-04 e    :
          :  Broyden damping             0.4000000          :
          :  net charge                         -1          :
          :  unpaired electrons                  0          :
          ...................................................

 iter      E             dE          RMSdq      gap      omega  full diag
   1    -13.1973660 -0.131974E+02  0.390E-01    2.49       0.0  T
   2    -13.1973751 -0.918843E-05  0.229E-01    2.49       1.0  T
   3    -13.1973754 -0.287971E-06  0.202E-02    2.48       2.0  T
   4    -13.1973762 -0.777923E-06  0.836E-03    2.48       4.9  T
   5    -13.1973763 -0.663149E-07  0.424E-03    2.49       9.6  T
   6    -13.1973763 -0.591102E-07  0.152E-03    2.48      26.9  T
   7    -13.1973763 -0.627583E-08  0.669E-04    2.48      61.0  T
   8    -13.1973763 -0.566674E-09  0.981E-05    2.48     416.0  T
   9    -13.1973763 -0.115978E-10  0.457E-05    2.48     892.9  T

   *** convergence criteria satisfied after 9 iterations ***

         #    Occupation            Energy/Eh            Energy/eV
      -------------------------------------------------------------
         1        2.0000           -0.9084428             -24.7200
       ...           ...                  ...                  ...
         5        2.0000           -0.3423141              -9.3148
         6        2.0000           -0.3188052              -8.6751
         7        2.0000           -0.2669312              -7.2636
         8        2.0000           -0.2584068              -7.0316
         9        2.0000           -0.0959726              -2.6115
        10        2.0000           -0.0929605              -2.5296
        11        2.0000           -0.0929427              -2.5291 (HOMO)
        12                         -0.0016721              -0.0455 (LUMO)
        13                          0.1740077               4.7350
        14                          0.1746170               4.7516
        15                          0.1770516               4.8178
        16                          0.1788486               4.8667
       ...                                ...                  ...
        20                          0.4103264              11.1656
      -------------------------------------------------------------
                  HL-Gap            0.0912705 Eh            2.4836 eV
             Fermi-level           -0.0473074 Eh           -1.2873 eV

 SCC (total)                   0 d,  0 h,  0 min,  0.095 sec
 SCC setup                      ...        0 min,  0.000 sec (  0.300%)
 Dispersion                     ...        0 min,  0.000 sec (  0.093%)
 classical contributions        ...        0 min,  0.000 sec (  0.042%)
 integral evaluation            ...        0 min,  0.092 sec ( 96.730%)
 iterations                     ...        0 min,  0.002 sec (  1.939%)
 molecular gradient             ...        0 min,  0.001 sec (  0.673%)
 printout                       ...        0 min,  0.000 sec (  0.191%)

         :::::::::::::::::::::::::::::::::::::::::::::::::::::
         ::                     SUMMARY                     ::
         :::::::::::::::::::::::::::::::::::::::::::::::::::::
         :: total energy             -13.146463543275 Eh    ::
         :: gradient norm              0.003779309110 Eh/a0 ::
         :: HOMO-LUMO gap              2.483597932356 eV    ::
         ::.................................................::
         :: SCC energy               -13.197376071620 Eh    ::
         :: -> isotropic ES            0.235918848722 Eh    ::
         :: -> anisotropic ES         -0.001719790309 Eh    ::
         :: -> anisotropic XC         -0.001608166187 Eh    ::
         :: -> dispersion             -0.002119597039 Eh    ::
         :: repulsion energy           0.050912528345 Eh    ::
         :: add. restraining           0.000000000000 Eh    ::
         :: total charge              -1.000000000000 e     ::
         :::::::::::::::::::::::::::::::::::::::::::::::::::::


Property printout bound to 'properties.out'

           -------------------------------------------------
          | TOTAL ENERGY              -13.146463543275 Eh   |
          | GRADIENT NORM               0.003779309110 Eh/α |
          | HOMO-LUMO GAP               2.483597932356 eV   |
           -------------------------------------------------

------------------------------------------------------------------------
 * finished run on 2026/03/16 at 14:16:32.154     
------------------------------------------------------------------------
 total:
 * wall-time:     0 d,  0 h,  0 min,  0.153 sec
 *  cpu-time:     0 d,  0 h,  0 min,  0.384 sec
 * ratio c/w:     2.502 speedup
 SCF:
 * wall-time:     0 d,  0 h,  0 min,  0.096 sec
 *  cpu-time:     0 d,  0 h,  0 min,  0.299 sec
 * ratio c/w:     3.132 speedup


-------------------------   --------------------
FINAL SINGLE POINT ENERGY       -13.146463543280
-------------------------   --------------------


-------------
DIPOLE MOMENT
-------------
                                X             Y             Z
Total Dipole Moment    :     -1.59600       0.92100       2.11400
                        -----------------------------------------
Magnitude (a.u.)       :      2.80436
Magnitude (Debye)      :      7.12812


------------------
CARTESIAN GRADIENT
------------------

   1   C   :   -0.001206524    0.000799374   -0.001523708
   2   H   :   -0.000457970   -0.000001280    0.000165664
   3   H   :    0.001707626   -0.000985148    0.002077510
   4   H   :   -0.000318253    0.000350875    0.000170315
   5   Cl  :    0.000629322   -0.000367265   -0.000644912
   6   F   :   -0.000354202    0.000203444   -0.000244870

Difference to translation invariance:
           :    0.0000000000   -0.0000000000   -0.0000000000

Difference to rotation invariance:
           :    0.0000003580    0.0000005854   -0.0000000100

Norm of the Cartesian gradient     ...    0.0037793091
RMS gradient                       ...    0.0008907917
MAX gradient                       ...    0.0020775101
------------------------------------------------------------------------------
                         ORCA GEOMETRY RELAXATION STEP
------------------------------------------------------------------------------

Reading the OPT-File                    .... done
Getting information on internals        .... done
Copying old internal coords+grads       .... done
Making the new internal coordinates     .... (2022 redundants) done
Validating the new internal coordinates .... (2022 redundants) done
Calculating the B-matrix                .... done
Calculating the G,G- and P matrices     .... done
Transforming gradient to internals      .... done
Projecting the internal gradient        .... done
Number of atoms                         ....   6
Number of internal coordinates          ....  16
Current Energy                          ....   -13.146463543 Eh
Current gradient norm                   ....     0.003779309 Eh/bohr
Maximum allowed component of the step   ....  0.300
Current trust radius                    ....  0.200
Updating the Hessian (BFGS)             .... done
Forming the augmented Hessian           .... done
Diagonalizing the augmented Hessian     .... done
Last element of RFO vector              ....  0.999812575
Lowest eigenvalues of augmented Hessian:
 -0.000037933  0.022096691  0.044108751  0.097000453  0.106404750
Length of the computed step             ....  0.019363747
The final length of the internal step   ....  0.019363747
Converting the step to Cartesian space:
 Initial RMS(Int)=    0.0048409367
Transforming coordinates:
 Iter   0:  RMS(Cart)=    0.0064216177 RMS(Int)=    0.0048372948
done
Storing new coordinates                 .... done
The predicted energy change is          ....    -0.000018974
Previously predicted energy change      ....    -0.000325941
Actually observed energy change         ....    -0.000334289
Ratio of predicted to observed change   ....     1.025613794
New trust radius                        ....     0.300000000

                                .--------------------.
          ----------------------|Geometry convergence|-------------------------
          Item                value                   Tolerance       Converged
          ---------------------------------------------------------------------
          Energy change      -0.0003342891            0.0000050000      NO
          RMS gradient        0.0006648831            0.0001000000      NO
          MAX gradient        0.0014337245            0.0003000000      NO
          RMS step            0.0048409367            0.0020000000      NO
          MAX step            0.0173435476            0.0040000000      NO
          -------------------------------------------------------------------------
          ........................................................
          Max(Bonds)      0.0032      Max(Angles)    0.99
          Max(Dihed)        0.01      Max(Improp)    0.00
          ---------------------------------------------------------------------

The optimization has not yet converged - more geometry cycles are needed


    ---------------------------------------------------------------------------
                         Redundant Internal Coordinates
                            (Angstroem and degrees)

        Definition                    Value    dE/dq     Step     New-Value
    ----------------------------------------------------------------------------
     1. B(H   1,C   0)                1.0872  0.000039  0.0000    1.0872   
     2. B(H   2,C   0)                1.1297  0.000279  0.0012    1.1309   
     3. B(H   3,C   0)                1.0874  0.000141 -0.0001    1.0873   
     4. B(Cl  4,H   2)                2.4202 -0.001067  0.0032    2.4234   
     5. B(Cl  4,C   0)                1.7742  0.000790  0.0000    1.7742   
     6. B(F   5,H   2)                1.6186  0.000084 -0.0022    1.6164   
     7. A(H   1,C   0,H   3)          110.11 -0.000547    0.06    110.17   
     8. A(H   1,C   0,H   2)          110.74  0.000644   -0.06    110.68   
     9. A(H   1,C   0,Cl  4)          107.10  0.000293   -0.07    107.03   
    10. A(H   2,C   0,Cl  4)          110.95 -0.001356    0.19    111.14   
    11. A(H   3,C   0,Cl  4)          107.09  0.000285   -0.07    107.02   
    12. A(H   2,C   0,H   3)          110.73  0.000642   -0.06    110.67   
    13. A(C   0,H   2,F   5)          163.21 -0.001434    0.99    164.20   
    14. D(F   5,H   2,C   0,H   3)     61.21  0.000097    0.01     61.21   
    15. D(F   5,H   2,C   0,Cl  4)    179.98 -0.000004    0.00    179.98   
    16. D(F   5,H   2,C   0,H   1)    -61.23 -0.000094   -0.01    -61.23   
    ----------------------------------------------------------------------------

Geometry step timings:
Preparation and reading OPT file:      0.000 s ( 2.445 %)
Internal coordinates            :      0.000 s ( 3.448 %)
B/P matrices and projection     :      0.000 s (10.157 %)
Hessian update/contruction      :      0.000 s (24.075 %)
Making the step                 :      0.000 s (10.157 %)
Converting the step to Cartesian:      0.000 s ( 4.577 %)
Storing new data                :      0.000 s ( 7.210 %)
Checking convergence            :      0.000 s (12.288 %)
Final printing                  :      0.000 s (25.643 %)
Total time                      :      0.002 s

Time for energy+gradient        :      0.164 s
Time for complete geometry iter :      0.167 s

         *************************************************************
         *                GEOMETRY OPTIMIZATION CYCLE   4            *
         *************************************************************
---------------------------------
CARTESIAN COORDINATES (ANGSTROEM)
---------------------------------
  C    -0.363820    0.210112    0.320611
  H    -0.457060    1.293276    0.330165
  H     0.228615   -0.131851   -0.579880
  H    -1.348422   -0.251050    0.330101
  Cl    0.442372   -0.255347    1.830904
  F     0.739870   -0.427063   -2.084605

----------------------------
CARTESIAN COORDINATES (A.U.)
----------------------------
  NO LB    ZA    FRAG    MASS        X           Y           Z
   0 C   6.0000    0    12.011   -0.687520    0.397054    0.605867
   1 H   1.0000    0     1.008   -0.863719    2.443937    0.623922
   2 H   1.0000    0     1.008    0.432020   -0.249162   -1.095815
   3 H   1.0000    0     1.008   -2.548149   -0.474416    0.623801
   4 Cl 17.0000    0    35.453    0.835963   -0.482535    3.459907
   5 F   9.0000    0    18.998    1.398152   -0.807032   -3.939333

      -----------------------------------------------------------      
     |                   =====================                   |     
     |                           x T B                           |     
     |                   =====================                   |     
     |                         S. Grimme                         |     
     |          Mulliken Center for Theoretical Chemistry        |     
     |                    University of Bonn                     |     
      -----------------------------------------------------------      

   * xtb version 6.7.1 (edcfbbe) compiled by 'albert@albert-system' on 2024-07-22

   xtb is free software: you can redistribute it and/or modify it under
   the terms of the GNU Lesser General Public License as published by
   the Free Software Foundation, either version 3 of the License, or
   (at your option) any later version.
   
   xtb is distributed in the hope that it will be useful,
   but WITHOUT ANY WARRANTY; without even the implied warranty of
   MERCHANTABILITY or FITNESS FOR A PARTICULAR PURPOSE.  See the
   GNU Lesser General Public License for more details.
   
[...]
        20                          0.4090458              11.1307
      -------------------------------------------------------------
                  HL-Gap            0.0940002 Eh            2.5579 eV
             Fermi-level           -0.0477108 Eh           -1.2983 eV

 SCC (total)                   0 d,  0 h,  0 min,  0.071 sec
 SCC setup                      ...        0 min,  0.000 sec (  0.315%)
 Dispersion                     ...        0 min,  0.000 sec (  0.082%)
 classical contributions        ...        0 min,  0.000 sec (  0.038%)
 integral evaluation            ...        0 min,  0.069 sec ( 96.777%)
 iterations                     ...        0 min,  0.001 sec (  1.658%)
 molecular gradient             ...        0 min,  0.001 sec (  0.828%)
 printout                       ...        0 min,  0.000 sec (  0.271%)

         :::::::::::::::::::::::::::::::::::::::::::::::::::::
         ::                     SUMMARY                     ::
         :::::::::::::::::::::::::::::::::::::::::::::::::::::
         :: total energy             -13.146556319077 Eh    ::
         :: gradient norm              0.000230960210 Eh/a0 ::
         :: HOMO-LUMO gap              2.557875812654 eV    ::
         ::.................................................::
         :: SCC energy               -13.197085872091 Eh    ::
         :: -> isotropic ES            0.234146769240 Eh    ::
         :: -> anisotropic ES         -0.001615968841 Eh    ::
         :: -> anisotropic XC         -0.001641441338 Eh    ::
         :: -> dispersion             -0.002124975509 Eh    ::
         :: repulsion energy           0.050529553014 Eh    ::
         :: add. restraining           0.000000000000 Eh    ::
         :: total charge              -1.000000000000 e     ::
         :::::::::::::::::::::::::::::::::::::::::::::::::::::

           ------------------------------------------------- 
          |                Numerical Hessian                |
           ------------------------------------------------- 
step length          :   0.00500
SCC accuracy         :   0.30000
Hessian scale factor :   1.00000
frozen atoms in %    :   0.00000    0
RMS gradient         :   0.00023
estimated CPU  time      0.00 min
estimated wall time      0.00 min

writing file <hessian>.

 projected vibrational frequencies (cm⁻¹)
eigval :       -0.00    -0.00    -0.00    -0.00     0.00     0.00
eigval :      113.49   320.08   349.18   681.55  1007.16  1045.84
eigval :     1325.06  1394.27  1432.56  2339.27  3011.39  3017.54

Property printout bound to 'properties.out'
Molecule has the following symmetry elements: (sigma) 
It seems to be the Cs point group

           -------------------------------------------------
          | TOTAL ENERGY              -13.146556319078 Eh   |
          | TOTAL ENTHALPY            -13.104565301129 Eh   |
          | TOTAL FREE ENERGY         -13.137725907810 Eh   |
          | GRADIENT NORM               0.000231329040 Eh/α |
          | HOMO-LUMO GAP               2.557868975809 eV   |
           -------------------------------------------------

------------------------------------------------------------------------
 * finished run on 2026/03/16 at 14:16:32.948     
------------------------------------------------------------------------
 total:
 * wall-time:     0 d,  0 h,  0 min,  0.187 sec
 *  cpu-time:     0 d,  0 h,  0 min,  0.401 sec
 * ratio c/w:     2.142 speedup
 SCF:
 * wall-time:     0 d,  0 h,  0 min,  0.071 sec
 *  cpu-time:     0 d,  0 h,  0 min,  0.193 sec
 * ratio c/w:     2.713 speedup
 analytical hessian:
 * wall-time:     0 d,  0 h,  0 min,  0.016 sec
 *  cpu-time:     0 d,  0 h,  0 min,  0.124 sec
 * ratio c/w:     7.858 speedup


-------------------------   --------------------
FINAL SINGLE POINT ENERGY       -13.146556319050
-------------------------   --------------------


-------------
DIPOLE MOMENT
-------------
                                X             Y             Z
Total Dipole Moment    :     -1.62200       0.93600       2.07400
                        -----------------------------------------
Magnitude (a.u.)       :      2.79436
Magnitude (Debye)      :      7.10270


-----------------------
VIBRATIONAL FREQUENCIES
-----------------------

Scaling factor for frequencies =  1.000000000  (already applied!)

     0:       0.00 cm**-1
     1:       0.00 cm**-1
     2:       0.00 cm**-1
     3:       0.00 cm**-1
     4:       0.00 cm**-1
     5:       0.00 cm**-1
     6:     113.49 cm**-1
     7:     320.08 cm**-1
     8:     349.17 cm**-1
     9:     681.54 cm**-1
    10:    1007.13 cm**-1
    11:    1045.81 cm**-1
    12:    1325.02 cm**-1
    13:    1394.23 cm**-1
    14:    1432.52 cm**-1
    15:    2339.21 cm**-1
    16:    3011.31 cm**-1
    17:    3017.45 cm**-1


------------
NORMAL MODES
------------

These modes are the Cartesian displacements weighted by the diagonal matrix
M(i,i)=1/sqrt(m[i]) where m[i] is the mass of the displaced atom
Thus, these vectors are normalized but *not* orthogonal

                  0          1          2          3          4          5    
      0       0.000000   0.000000   0.000000   0.000000   0.000000   0.000000
      1       0.000000   0.000000   0.000000   0.000000   0.000000   0.000000
      2       0.000000   0.000000   0.000000   0.000000   0.000000   0.000000
      3       0.000000   0.000000   0.000000   0.000000   0.000000   0.000000
      4       0.000000   0.000000   0.000000   0.000000   0.000000   0.000000
      5       0.000000   0.000000   0.000000   0.000000   0.000000   0.000000
      6       0.000000   0.000000   0.000000   0.000000   0.000000   0.000000
      7       0.000000   0.000000   0.000000   0.000000   0.000000   0.000000
      8       0.000000   0.000000   0.000000   0.000000   0.000000   0.000000
      9       0.000000   0.000000   0.000000   0.000000   0.000000   0.000000
     10       0.000000   0.000000   0.000000   0.000000   0.000000   0.000000
     11       0.000000   0.000000   0.000000   0.000000   0.000000   0.000000
     12       0.000000   0.000000   0.000000   0.000000   0.000000   0.000000
     13       0.000000   0.000000   0.000000   0.000000   0.000000   0.000000
     14       0.000000   0.000000   0.000000   0.000000   0.000000   0.000000
     15       0.000000   0.000000   0.000000   0.000000   0.000000   0.000000
     16       0.000000   0.000000   0.000000   0.000000   0.000000   0.000000
     17       0.000000   0.000000   0.000000   0.000000   0.000000   0.000000
                  6          7          8          9         10         11    
      0      -0.325378  -0.273143   0.048481   0.240101   0.081859  -0.053468
      1       0.188042   0.158255   0.082737  -0.138827  -0.047233  -0.092732
      2       0.083641   0.237362  -0.000000   0.499095  -0.040924   0.000068
      3      -0.313897  -0.260439  -0.495503   0.188332  -0.020614   0.377318
      4       0.186862   0.153373   0.031271  -0.120658  -0.043536  -0.047263
      5       0.253115   0.379392   0.305853   0.288934   0.467696   0.549597
      6      -0.435044  -0.392567   0.277868   0.228669  -0.438889   0.154137
      7       0.252393   0.229935   0.479910  -0.134467   0.253233   0.267052
      8      -0.030570   0.143031   0.000086   0.535685  -0.538433   0.000027
      9      -0.317651  -0.260090   0.275767   0.197641   0.027421  -0.229572
     10       0.176693   0.144437  -0.413994  -0.100721   0.039552   0.303203
     11       0.251904   0.376251  -0.306564   0.291494   0.467872  -0.549295
     12       0.087620   0.032034  -0.007216  -0.101952  -0.017640   0.010424
     13      -0.050610  -0.018580  -0.012227   0.058882   0.010179   0.018100
     14      -0.232974   0.071710  -0.000107  -0.184866   0.000488  -0.000028
     15       0.098792   0.161355  -0.020270   0.005848   0.004091  -0.001667
     16      -0.057121  -0.093381  -0.034648  -0.003231  -0.002359  -0.002899
     17       0.356710  -0.331568   0.000232  -0.029772   0.003891  -0.000008
                 12         13         14         15         16         17    
      0       0.035000   0.030631   0.061064  -0.041130  -0.051914   0.046077
      1      -0.020222   0.053108  -0.035235   0.023742   0.030282   0.079454
      2       0.101043  -0.000015  -0.013757   0.067094   0.004716   0.000002
      3      -0.100175  -0.141872  -0.688256  -0.014125   0.020775   0.073268
      4      -0.010724   0.003315  -0.058149   0.041692  -0.707236  -0.697536
      5      -0.513381   0.392664   0.025416   0.006879  -0.003937  -0.014601
      6      -0.466903  -0.402270   0.149292   0.556750   0.002640   0.018740
      7       0.269485  -0.696880  -0.086319  -0.321351  -0.001378   0.032547
      8      -0.387361  -0.000047   0.098721  -0.758963  -0.026072   0.000129
      9      -0.040858   0.073856  -0.293822  -0.043238   0.619240  -0.644361
     10       0.092237  -0.121336   0.625012  -0.008633   0.334024  -0.287403
     11      -0.513362  -0.392737   0.025416   0.006906  -0.003870   0.014608
     12       0.003949   0.001709   0.003181  -0.000063  -0.000662   0.000141
     13      -0.002277   0.002950  -0.001837   0.000036   0.000381   0.000245
     14       0.004829   0.000008   0.000961  -0.000638  -0.000770  -0.000003
     15       0.002758   0.002398  -0.000356  -0.000376  -0.000041  -0.000088
     16      -0.001589   0.004156   0.000207   0.000218   0.000019  -0.000157
     17       0.002137   0.000001  -0.001030  -0.001690   0.000253  -0.000002


The first frequency considered to be a vibration is 6
The total number of vibrations considered is 12


--------------------------
THERMOCHEMISTRY AT 298.15K
--------------------------

Temperature         ...   298.15 K
Pressure            ...     1.00 atm
Total Mass          ...    69.49 AMU
Quasi RRHO          ...     True
Cut-Off Frequency   ...     1.00 cm^-1

Throughout the following assumptions are being made:
  (1) The electronic state is orbitally nondegenerate
  (2) There are no thermally accessible electronically excited states
  (3) Hindered rotations indicated by low frequency modes are not
      treated as such but are treated as vibrations and this may
      cause some error
  (4) All equations used are the standard statistical mechanics
      equations for an ideal gas
  (5) All vibrations are strictly harmonic

freq.     113.49  E(vib)   ...       0.44 
freq.     320.08  E(vib)   ...       0.25 
freq.     349.17  E(vib)   ...       0.23 
freq.     681.54  E(vib)   ...       0.08 
freq.    1007.13  E(vib)   ...       0.02 
freq.    1045.81  E(vib)   ...       0.02 
freq.    1325.02  E(vib)   ...       0.01 
freq.    1394.23  E(vib)   ...       0.00 
freq.    1432.52  E(vib)   ...       0.00 
freq.    2339.21  E(vib)   ...       0.00 
freq.    3011.31  E(vib)   ...       0.00 
freq.    3017.45  E(vib)   ...       0.00 

------------
INNER ENERGY
------------

The inner energy is: U= E(el) + E(ZPE) + E(vib) + E(rot) + E(trans)
    E(el)   - is the total energy from the electronic structure calculation
              = E(kin-el) + E(nuc-el) + E(el-el) + E(nuc-nuc)
    E(ZPE)  - the the zero temperature vibrational energy from the frequency calculation
    E(vib)  - the the finite temperature correction to E(ZPE) due to population
              of excited vibrational states
    E(rot)  - is the rotational thermal energy
    E(trans)- is the translational thermal energy

Summary of contributions to the inner energy U:
Electronic energy                ...    -13.14655632 Eh
Zero point energy                ...      0.03653486 Eh      22.93 kcal/mol
Thermal vibrational correction   ...      0.00167841 Eh       1.05 kcal/mol
Thermal rotational correction    ...      0.00141627 Eh       0.89 kcal/mol
Thermal translational correction ...      0.00141627 Eh       0.89 kcal/mol
-----------------------------------------------------------------------
Total thermal energy                    -13.10551051 Eh


Summary of corrections to the electronic energy:
(perhaps to be used in another calculation)
Total thermal correction                  0.00451095 Eh       2.83 kcal/mol
Non-thermal (ZPE) correction              0.03653486 Eh      22.93 kcal/mol
-----------------------------------------------------------------------
Total correction                          0.04104581 Eh      25.76 kcal/mol


--------
ENTHALPY
--------

The enthalpy is H = U + kB*T
                kB is Boltzmann's constant
Total thermal energy              ...    -13.10551051 Eh 
Thermal Enthalpy correction       ...      0.00094421 Eh       0.59 kcal/mol
-----------------------------------------------------------------------
Total Enthalpy                    ...    -13.10456630 Eh


WARNING (ORCA/SYM): The number of Z matrix atoms does not agree with
the number of centers in the basis set. The point group will therefore
be determined without considering basis set information.


Note: Rotational entropy computed according to Herzberg 
Infrared and Raman Spectra, Chapter V,1, Van Nostrand Reinhold, 1945 
Point Group:  Cs, Symmetry Number:   1  
Rotational constants in cm-1:     0.982890     0.087317     0.081436 

Vibrational entropy computed according to the QRRHO of S. Grimme
Chem.Eur.J. 2012 18 9955 using a reference frequency of 100.0 cm-1


-------
ENTROPY
-------

The entropy contributions are T*S = T*(S(el)+S(vib)+S(rot)+S(trans))
     S(el)   - electronic entropy
     S(vib)  - vibrational entropy
     S(rot)  - rotational entropy
     S(trans)- translational entropy
The entropies will be listed as multiplied by the temperature to get
units of energy

Electronic entropy                ...      0.00000000 Eh      0.00 kcal/mol
Vibrational entropy               ...      0.00288452 Eh      1.81 kcal/mol
Rotational entropy                ...      0.01185399 Eh      7.44 kcal/mol
Translational entropy             ...      0.01835566 Eh     11.52 kcal/mol
-----------------------------------------------------------------------
Final entropy term                ...      0.03309417 Eh     20.77 kcal/mol

In case the symmetry of your molecule has not been determined correctly
or in case you have a reason to use a different symmetry number we print 
out the resulting rotational entropy values for sn=1,12:

 non-linear molecules -----------------------------------
|  sn= 1 | S(rot)=       0.01185399 Eh      7.44 kcal/mol|
|  sn= 2 | S(rot)=       0.01119953 Eh      7.03 kcal/mol|
|  sn= 3 | S(rot)=       0.01081670 Eh      6.79 kcal/mol|
|  sn= 4 | S(rot)=       0.01054507 Eh      6.62 kcal/mol|
|  sn= 5 | S(rot)=       0.01033439 Eh      6.48 kcal/mol|
|  sn= 6 | S(rot)=       0.01016224 Eh      6.38 kcal/mol|
|  sn= 7 | S(rot)=       0.01001670 Eh      6.29 kcal/mol|
|  sn= 8 | S(rot)=       0.00989062 Eh      6.21 kcal/mol|
|  sn= 9 | S(rot)=       0.00977941 Eh      6.14 kcal/mol|
|  sn=10 | S(rot)=       0.00967993 Eh      6.07 kcal/mol|
|  sn=11 | S(rot)=       0.00958994 Eh      6.02 kcal/mol|
|  sn=12 | S(rot)=       0.00950779 Eh      5.97 kcal/mol|
 linear molecules ---------------------------------------
|  Dinfh | S(rot)=       0.00769375 Eh      4.83 kcal/mol|
|  Cinfv | S(rot)=       0.00834821 Eh      5.24 kcal/mol|
 --------------------------------------------------------


-------------------
GIBBS FREE ENERGY
-------------------

The Gibbs free energy is G = H - T*S

Total enthalpy                    ...    -13.10456630 Eh 
Total entropy correction          ...     -0.03309417 Eh    -20.77 kcal/mol
-----------------------------------------------------------------------
Final Gibbs free energy         ...    -13.13766046 Eh

For completeness - the Gibbs free energy minus the electronic energy
G-E(el)                           ...      0.00889586 Eh      5.58 kcal/mol


--------------------------------
SUGGESTED CITATIONS FOR THIS RUN
--------------------------------

Below you find a list of papers that are relevant to this ORCA run
We neither can nor want to force you to cite these papers, but we appreciate if you do
You receive ORCA, which is the product of decades of hard work by many enthusiastic individuals, for free
The only thing we kindly ask in return is that you cite our papers,
We deeply appreciate it, if you show your appreciation for ORCA by not just citing the generic ORCA reference.

Please note that relegating all ORCA citations to the supporting information does *not* help us.
SI sections are not indexed - citations you put there will not count into any citation statistics
But we need these citations in order to attract the funding resources that allow us to do what we are doing

Therefore, if you are a happy ORCA user, please consider citing a few of the papers listed below in the main body of your paper

In addition to the list printed below, the program has created the file product_optfreq.bibtex that contains the list in bibtex format
You can import this file easily into all common literature databanks and citation aid programs


List of essential papers. We consider these as the minimum necessary citations

  1. Bannwarth, C.; Ehlert, S.; Grimme, S.
     GFN2-xTB—An Accurate and Broadly Parametrized Self-Consistent Tight-Binding Quantum Chemical Method with Multipole Electrostatics and Density-Dependent Dispersion Contributions
     J. Chem. Theory Comput. 2019 15(3), 1652-1671
     doi.org/10.1021/acs.jctc.8b01176
  2. Neese, F.
     Software update: the ORCA program system, version 6.0
     WIRES Comput. Molec. Sci. 2025 15(1), e70019
     doi.org/10.1002/wcms.7019

List of papers to cite with high priority. The work reported in these papers was absolutely
necessary for this run to complete.
Our perspective: the developers of density functionals and basis sets usually get cited in chemistry papers
Good! But without the algorithms to do something with them, the functionals or basis sets would not do anything.
Hence, in our opinion, the algorithm design and method developments papers are equally worthy of getting cited

  1. Bykov, D.; Petrenko, T.; Izsak, R.; Kossmann, S.; Becker, U.; Valeev, E.; Neese, F.
     Efficient implementation of the analytic second derivatives of Hartree-Fock and hybrid DFT energies: a detailed analysis of different approximations
     Molec. Phys. 2015 113 , 1961-1977
     doi.org/10.1080/00268976.2015.1025114
  2. Bannwarth, C.; Caldeweyher, E.; Ehlert, S.; Hansen, A.; Pracht, P.; Seibert, J.; Spicher, S.; Grimme, S.
     Extended tight-binding quantum chemistry methods
     WIRES Comput. Molec. Sci. 2020 11(2), e1493
     doi.org/10.1002/wcms.1493

List of suggested additional citations. These are papers that are important in the 'surrounding' of 
of this run, or papers that preceded the highly important papers. If you like your results we are grateful for a citation.

  1. Neese, F.
     The ORCA program system
     WIRES Comput. Molec. Sci. 2012 2(1), 73-78
     doi.org/10.1002/wcms.81
  2. Neese, F.
     Software update: the ORCA program system, version 4.0
     WIRES Comput. Molec. Sci. 2018 8(1), 1-6
     doi.org/10.1002/wcms.1327
  3. Neese, F.; Wennmohs, F.; Becker, U.; Riplinger, C.
     The ORCA quantum chemistry program package
     J. Chem. Phys. 2020 152(22), 224108
     doi.org/10.1063/5.0004608
  4. Neese, F.
     Software update: The ORCA program system—Version 5.0
     WIRES Comput. Molec. Sci. 2022 12(1), e1606
     doi.org/10.1002/wcms.1606

List of optional additional citations

  1. Neese, F.
     Approximate second-order SCF convergence for spin unrestricted wavefunctions
     Chem. Phys. Lett. 2000 325(1-3), 93-98
     doi.org/10.1016/s0009-2614(00)00662-x

Timings for individual modules:

Sum of individual times          ...        1.467 sec (=   0.024 min)
Geometry relaxation              ...        0.015 sec (=   0.000 min)   1.0 %
XTB module                       ...        1.452 sec (=   0.024 min)  99.0 %
                             ****ORCA TERMINATED NORMALLY****
TOTAL RUN TIME: 0 days 0 hours 0 minutes 2 seconds 170 msec
