
                                 *****************
                                 * O   R   C   A *
                                 *****************

                                            #,                                       
                                            ###                                      
                                            ####                                     
                                            #####                                    
                                            ######                                   
                                           ########,                                 
                                     ,,################,,,,,                         
                               ,,#################################,,                 
                          ,,##########################################,,             
                       ,#########################################, ''#####,          
                    ,#############################################,,   '####,        
                  ,##################################################,,,,####,       
                ,###########''''           ''''###############################       
              ,#####''   ,,,,##########,,,,          '''####'''          '####       
            ,##' ,,,,###########################,,,                        '##       
           ' ,,###''''                  '''############,,,                           
         ,,##''                                '''############,,,,        ,,,,,,###''
      ,#''                                            '''#######################'''  
     '                                                          ''''####''''         
             ,#######,   #######,   ,#######,      ##                                
            ,#'     '#,  ##    ##  ,#'     '#,    #''#        ,####,    ,#,          
            ##       ##  ##   ,#'  ##            #'  '#       #'       ,# #          
            ##       ##  #######   ##           ,######,      #####,      #          
            '#,     ,#'  ##    ##  '#,     ,#' ,#      #,     #,   #      #          
             '#######'   ##     ##  '#######'  #'      '#     '####' #    #          



                #########################################################
                #                        -***-                          #
                #          Department of theory and spectroscopy        #
                #                                                       #
                #                      Frank Neese                      #
                #                                                       #
                #     Directorship, Architecture, Infrastructure        #
                #                    SHARK, DRIVERS                     #
                #        Core code/Algorithms in most modules           #
                #                                                       #
                #        Max Planck Institute fuer Kohlenforschung      #
                #                Kaiser Wilhelm Platz 1                 #
                #                 D-45470 Muelheim/Ruhr                 #
                #                      Germany                          #
                #                                                       #
                #                  All rights reserved                  #
                #                        -***-                          #
                #########################################################


                         Program Version 6.1.0  -  RELEASE   -
                                (GIT: $679e74b$)
                          ($2025-06-10 18:02:51 +0200$)


 With contributions from (in alphabetic order):
[Max-Planck-Institut fuer Kohlenforschung]                               
  Daniel Aravena         : Magnetic Suceptibility                        
  Michael Atanasov       : Ab Initio Ligand Field Theory (pilot matlab implementation)
  Alexander A. Auer      : GIAO ZORA, VPT2 properties, NMR spectrum      
  Ute Becker             : All parallelization in ORCA, NUMFREQ, NUMCALC 
  Giovanni Bistoni       : ED, misc. LED, open-shell LED, HFLD           
  Dmytro Bykov           : pre 5.0 version of the SCF Hessian            
  Marcos Casanova-Páez   : Triplet and SCS-CIS(D). UHF-(DLPNO)-IP/EA/STEOM-CCSD. UHF-CVS-IP/STEOM-CCSD   
  Vijay G. Chilkuri      : MRCI spin determinant printing, contributions to CSF-ICE 
  Pauline Colinet        : FMM embedding                                 
  Dipayan Datta          : RHF DLPNO-CCSD density                        
  Achintya Kumar Dutta   : EOM-CC, STEOM-CC                              
  Nicolas Foglia         : Exact transition moments, OPA infrastructure, MCD improvements    
  Dmitry Ganyushin       : Spin-Orbit,Spin-Spin,Magnetic field MRCI      
  Miquel Garcia-Rates    : C-PCM and meta-GGA Hessian, CCSD/C-PCM, Gaussian charge scheme 
  Tiago L. C. Gouveia    : GS-ROHF, GS-ROCIS                             
  Yang Guo               : DLPNO-NEVPT2, F12-NEVPT2, CIM, IAO-localization        
  Andreas Hansen         : Spin unrestricted coupled pair/coupled cluster methods 
  Ingolf Harden          : AUTO-CI MPn and infrastructure                
  Benjamin Helmich-Paris : MC-RPA, TRAH-(SCF,CASSCF), AVAS, COSX integrals, SCF dyn. polar., MC-PDFT, srDFT 
  Lee Huntington         : MR-EOM, pCC                                   
  Robert Izsak           : Overlap fitted RIJCOSX, COSX-SCS-MP3, EOM     
  Riya Kayal             : Wick's Theorem for AUTO-CI, AUTO-CI UHF-CCSDT 
  Emily Kempfer          : AUTO-CI RHF CISDT and CCSDT, approximate NEVPT4
  Christian Kollmar      : KDIIS, OOCD, Brueckner-CCSD(T), CCSD density, CASPT2, CASPT2-K, improved NEVPT2 
  Axel Koslowski         : Symmetry handling                             
  Simone Kossmann        : meta-GGA functionals, TD-DFT gradient, OOMP2, (MP2 Hessian; deprecated post 5.0) 
  Lucas Lang             : DCDCAS, Hyperfine gauge corrections, ICE-SOC+SSC
  Marvin Lechner         : AUTO-CI (C++ implementation), FIC-MRCC        
  Spencer Leger          : CASSCF response                               
  Dagmar Lenk            : GEPOL surface, SMD, ORCA-2-JSON               
  Dimitrios Liakos       : Extrapolation schemes; Compound Job, Property file
  Dimitrios Manganas     : Further ROCIS development; embedding schemes. LFT, Crystal Embedding 
  Dimitrios Pantazis     : SARC Basis sets                               
  Anastasios Papadopoulos: AUTO-CI, single reference methods and gradients 
  Taras Petrenko         : pre 6.0 DFT Hessian and TD-DFT gradient,  ECA, NRVS 
  Petra Pikulova         : Analytic Raman intensities                    
  Peter Pinski           : DLPNO-MP2, DLPNO-MP2 Gradient                 
  Shashank Vittal Rao    : ES-AILFT, MagRelax                            
  Christoph Reimann      : Effective Core Potentials                     
  Marius Retegan         : Local ZFS, SOC                                
  Christoph Riplinger    : Optimizer, TS searches, QM/MM, DLPNO-CCSD(T), (RO)-DLPNO pert. Triples 
  Michael Roemelt        : Original ROCIS implementation, recursive CI coupling coefficients
  Masaaki Saitow         : Open-shell DLPNO-CCSD energy and density      
  Barbara Sandhoefer     : DKH picture change effects                    
  Yorick L. A. Schmerwitz: GMF and freeze-and-release deltaSCF, NEB S-IDPP initial path                    
  Kantharuban Sivalingam : CASSCF convergence/infrastructure, NEVPT2, NEVPT3, NEVPT4(SD), FIC-MRCI and CEPA variants
  Bernardo de Souza      : ESD, SOC TD-DFT                               
  Georgi L. Stoychev     : AutoAux, RI-MP2 NMR, DLPNO-MP2 response, X2C  
  Van Anh Tran           : RI-MP2 g-tensors                              
  Willem Van den Heuvel  : Paramagnetic NMR                              
  Zikuan Wang            : NOTCH, Electric field optimization            
  Frank Wennmohs         : Technical directorship and infrastructure     
  Hang Xu                : AUTO-CI-Response properties                   
                                                                         
[FACCTs GmbH]                                                            
  Markus Bursch, Nicolas Foglia, Miquel Garcia-Rates, Ingolf Harden, Hagen Neugebauer, Anastasios Papadopoulos, 
  Christoph Riplinger, Bernardo de Souza, Georgi L. Stoychev                                                    
                                                                 
  APM, various basis sets, CI-OPT, improved COSX, DLPNO-Multilevel,           
  DOCKER, DRACO, updates on ESD, Fragmentator, GOAT, IRC, LR-CPCM, L-BFGS, MBIS, meta-GGA TD-DFT gradient, ML-optimized integration grids, 
  MM, NACMEs, nearIR, NEB, NEB-TS, NL-DFT gradient (VV10), 2- and 3-layer-ONIOM, interface openCOSMO-RS, QMMM,   
  Crystal-QMMM, RESP, rigid body optimization, SF, symmetry and pop. for TD-DFT, various functionals, SOLVATOR                                   
                                                                         
[Other institutions]                                                     
  V. Asgeirsson          : NEB                                           
  Christoph Bannwarth    : sTDA-DFT, sTD-DFT, PBEh-3c, B97-3c, D3        
  Giovanni Bistoni       : ETS/NOCV, ADLD/ADEX, COVALED                  
  Martin Brehm           : Molecular dynamics                            
  Ronald Cardenas        : ETS/NOCV                                      
  Martina Colucci        : COVALED                                       
  Sebastian Ehlert       : rSCAN, r2SCAN, r2SCAN-3c, D4, dhf basis sets  
  Marvin Friede          : D4 for Fr, Ra, Ac-Lr                          
  Lars Goerigk           : TD-DFT with DH, B97 family of functionals     
  Stefan Grimme          : VdW corrections, initial TS optimization, DFT functionals, gCP, sTDA/sTD-DF 
  Waldemar Hujo          : DFT-NL                                        
  H. Jonsson             : NEB                                           
  Holger Kruse           : gCP                                           
  Marcel Mueller         : wB97X-3c, vDZP basis set                      
  Hagen Neugebauer       : wr2SCAN, Native XTB                           
  Gianluca Regni         : ADLD/ADEX                                     
  Tobias Risthaus        : pre 6.0 range-separated hybrid DFT and stability analysis
  Lukas Wittmann         : regularized MP2, r2SCAN double-hybrids, wr2SCAN        
                                                                         
We gratefully acknowledge several colleagues who have allowed us to      
interface, adapt or use parts of their codes:                            
  Ed Valeev, F. Pavosevic, A. Kumar             : LibInt (2-el integral package), F12 methods 
  Garnet Chan, S. Sharma, J. Yang, R. Olivares  : DMRG                   
  Ulf Ekstrom                                   : XCFun DFT Library      
  Mihaly Kallay                                 : mrcc  (arbitrary order and MRCC methods)
  Frank Weinhold                                : gennbo (NPA and NBO analysis)           
  Simon Mueller                                 : openCOSMO-RS                            
  Christopher J. Cramer and Donald G. Truhlar   : smd solvation model                     
  S Lehtola, MJT Oliveira, MAL Marques          : LibXC Library                           
  Liviu Ungur et al                             : ANISO software                          


 Your calculation uses the libint2 library for the computation of 2-el integrals
 For citations please refer to: http://libint.valeyev.net

 Your ORCA version has been built with support for libXC version: 7.0.0
 For citations please refer to: https://libxc.gitlab.io

 This ORCA versions uses:
   CBLAS   interface :  Fast vector & matrix operations
   LAPACKE interface :  Fast linear algebra routines
   SCALAPACK package :  Parallel linear algebra routines
   Shared memory     :  Shared parallel matrices
   BLAS/LAPACK       :  OpenBLAS 0.3.29  USE64BITINT DYNAMIC_ARCH NO_AFFINITY SkylakeX SINGLE_THREADED
        Core in use  :  SkylakeX
   Copyright (c) 2011-2014, The OpenBLAS Project


  ***********************************
  * Starting time: Mon Mar 16 14:16:25 2026
  * Host name:     midway3-login4.rcc.local
  * Process ID:    77554
  * Working dir.:  /home/rzhu16/evans-polanyi-principle-validation/runs/sn2_cl_f/geo_opt_reactant_product
  ***********************************

Your calculation utilizes the semiempirical GFN2-xTB method
Please cite in your paper:
Bannwarth, C.; Ehlert S.; Grimme, S. J. Chem. Theory Comput. 2019, 15, 1652.
   

================================================================================

================================================================================
                                        WARNINGS
                       Please study these warnings very carefully!
================================================================================


WARNING: Analytical Hessian for XTB is limited in the analysis of the data.
       : If you want to obtain extensive IR and deltaG analysis, please use ! XTB NumFreq. 


WARNING: Geometry Optimization
  ===> : Switching off AutoStart
         For restart on a previous wavefunction, please use MOREAD

WARNING: Found dipole moment calculation with XTB calculation
  ===> : Switching off dipole moment calculation


WARNING: Found frequency calculation in combination with XTB calculation
  ===> : Need to redirect dipole moment calculation to properties.out


================================================================================
                                       INPUT FILE
================================================================================
NAME = reactant_optfreq.inp
|  1> ! XTB2 Opt Freq PAL8
|  2> 
|  3> %geom
|  4>   MaxIter 500
|  5> end
|  6> 
|  7> * xyz -1 1
|  8>   C       0.102485     -0.059215      0.020067
|  9>   H       0.090397      1.003199     -0.111683
| 10>   H       1.015382     -0.586426     -0.119625
| 11>   H      -0.823757     -0.579751     -0.111641
| 12>   Cl      0.127537     -0.073619      2.089688
| 13>   F       0.246401     -0.142266     -2.006742
| 14> *
| 15> 
| 16>                          ****END OF INPUT****
================================================================================

                       *****************************
                       * Geometry Optimization Run *
                       *****************************

Geometry optimization settings:
Update method            Update   .... BFGS
Choice of coordinates    CoordSys .... (2022) Redundant Internals
Initial Hessian          InHess   .... Almloef's Model
Max. no of cycles        MaxIter  .... 500

Convergence Tolerances:
Energy Change            TolE     ....  5.0000e-06 Eh
Max. Gradient            TolMAXG  ....  3.0000e-04 Eh/bohr
RMS Gradient             TolRMSG  ....  1.0000e-04 Eh/bohr
Max. Displacement        TolMAXD  ....  4.0000e-03 bohr
RMS Displacement         TolRMSD  ....  2.0000e-03 bohr
Strict Convergence                .... False

------------------------------------------------------------------------------
                        ORCA OPTIMIZATION COORDINATE SETUP
------------------------------------------------------------------------------

The optimization will be done in redundant internal coordinates (2022)
Making redundant internal coordinates   ...  (2022 redundants) done
Evaluating the initial hessian          ...  (Almloef) done
Evaluating the coordinates              ...  done
Calculating the B-matrix                .... done
Calculating the G-matrix                .... done
The number of degrees of freedom        ....   21

    -----------------------------------------------------------------
                    Redundant Internal Coordinates


    -----------------------------------------------------------------
         Definition                    Initial Value    Approx d2E/dq
    -----------------------------------------------------------------
      1. B(H   1,C   0)                  1.0706         0.386672   
      2. B(H   2,C   0)                  1.0634         0.397047   
      3. B(H   3,C   0)                  1.0706         0.386671   
      4. B(Cl  4,H   2)                  2.4356         0.010000   
      5. B(Cl  4,H   1)                  2.4509         0.010000   
      6. B(Cl  4,C   0)                  2.0698         0.115377   
      7. B(Cl  4,H   3)                  2.4509         0.010000   
      8. B(F   5,H   1)                  2.2198         0.010000   
      9. B(F   5,H   2)                  2.0856         0.010000   
     10. B(F   5,C   0)                  2.0336         0.048880   
     11. B(F   5,H   3)                  2.2199         0.010000   
     12. A(H   1,C   0,H   3)          117.2302         0.297450   
     13. A(H   2,C   0,H   3)          119.0444         0.298703   
     14. A(H   1,C   0,Cl  4)           97.4748         0.282875   
     15. A(H   2,C   0,Cl  4)           96.7483         0.284040   
     16. A(H   3,C   0,Cl  4)           97.4751         0.282875   
     17. A(H   1,C   0,F   5)           85.3354         0.237841   
     18. A(H   2,C   0,F   5)           77.7650         0.238736   
     19. A(H   3,C   0,F   5)           85.3402         0.237841   
     20. A(Cl  4,C   0,F   5)          174.5133         0.227434   
     21. A(H   1,C   0,H   2)          119.0452         0.298703   
    -----------------------------------------------------------------

Number of atoms                         .... 6
Number of degrees of freedom            .... 21


         *************************************************************
         *                GEOMETRY OPTIMIZATION CYCLE   1            *
         *************************************************************
---------------------------------
CARTESIAN COORDINATES (ANGSTROEM)
---------------------------------
  C     0.102485   -0.059215    0.020067
  H     0.090397    1.003199   -0.111683
  H     1.015382   -0.586426   -0.119625
  H    -0.823757   -0.579751   -0.111641
  Cl    0.127537   -0.073619    2.089688
  F     0.246401   -0.142266   -2.006742

----------------------------
CARTESIAN COORDINATES (A.U.)
----------------------------
  NO LB    ZA    FRAG    MASS        X           Y           Z
   0 C   6.0000    0    12.011    0.193669   -0.111900    0.037921
   1 H   1.0000    0     1.008    0.170826    1.895771   -0.211050
   2 H   1.0000    0     1.008    1.918794   -1.108185   -0.226058
   3 H   1.0000    0     1.008   -1.556675   -1.095571   -0.210971
   4 Cl 17.0000    0    35.453    0.241010   -0.139120    3.948938
   5 F   9.0000    0    18.998    0.465630   -0.268844   -3.792193

      -----------------------------------------------------------      
     |                   =====================                   |     
     |                           x T B                           |     
     |                   =====================                   |     
     |                         S. Grimme                         |     
     |          Mulliken Center for Theoretical Chemistry        |     
     |                    University of Bonn                     |     
      -----------------------------------------------------------      

   * xtb version 6.7.1 (edcfbbe) compiled by 'albert@albert-system' on 2024-07-22

   xtb is free software: you can redistribute it and/or modify it under
   the terms of the GNU Lesser General Public License as published by
   the Free Software Foundation, either version 3 of the License, or
   (at your option) any later version.
   
   xtb is distributed in the hope that it will be useful,
   but WITHOUT ANY WARRANTY; without even the implied warranty of
   MERCHANTABILITY or FITNESS FOR A PARTICULAR PURPOSE.  See the
   GNU Lesser General Public License for more details.
   
   Cite this work as:
   * C. Bannwarth, E. Caldeweyher, S. Ehlert, A. Hansen, P. Pracht,
     J. Seibert, S. Spicher, S. Grimme, WIREs Comput. Mol. Sci., 2020, 11,
     e01493. DOI: 10.1002/wcms.1493
   
   for GFN2-xTB:
   * C. Bannwarth, S. Ehlert and S. Grimme., J. Chem. Theory Comput., 2019,
     15, 1652-1671. DOI: 10.1021/acs.jctc.8b01176
   for GFN1-xTB:
   * S. Grimme, C. Bannwarth, P. Shushkov, J. Chem. Theory Comput., 2017,
     13, 1989-2009. DOI: 10.1021/acs.jctc.7b00118
   for GFN0-xTB:
   * P. Pracht, E. Caldeweyher, S. Ehlert, S. Grimme, ChemRxiv, 2019, preprint.
     DOI: 10.26434/chemrxiv.8326202.v1
   for GFN-FF:
   * S. Spicher and S. Grimme, Angew. Chem. Int. Ed., 2020, 59, 15665-15673.
     DOI: 10.1002/anie.202004239
   
   for ALPB and GBSA implicit solvation:
   * S. Ehlert, M. Stahn, S. Spicher, S. Grimme, J. Chem. Theory Comput.,
     2021, 17, 4250-4261. DOI: 10.1021/acs.jctc.1c00471
   
   for ddCOSMO and CPCM-X implicit solvation:
   * M. Stahn, S. Ehlert, S. Grimme, J. Phys. Chem. A,
     2023, XX, XXXX-XXXX. DOI: 10.1021/acs.jpca.3c04382
   
   for DFT-D4:
   * E. Caldeweyher, C. Bannwarth and S. Grimme, J. Chem. Phys., 2017,
     147, 034112. DOI: 10.1063/1.4993215
   * E. Caldeweyher, S. Ehlert, A. Hansen, H. Neugebauer, S. Spicher,
     C. Bannwarth and S. Grimme, J. Chem. Phys., 2019, 150, 154122.
     DOI: 10.1063/1.5090222
   * E. Caldeweyher, J.-M. Mewes, S. Ehlert and S. Grimme, Phys. Chem. Chem. Phys.
     2020, 22, 8499-8512. DOI: 10.1039/D0CP00502A
   
   for sTDA-xTB:
   * S. Grimme and C. Bannwarth, J. Chem. Phys., 2016, 145, 054103.
     DOI: 10.1063/1.4959605
   
   in the mass-spec context:
   * V. Asgeirsson, C. Bauer and S. Grimme, Chem. Sci., 2017, 8, 4879.
     DOI: 10.1039/c7sc00601b
   * J. Koopman and S. Grimme, ACS Omega 2019, 4, 12, 15120-15133.
     DOI: 10.1021/acsomega.9b02011
   
   for metadynamics refer to:
   * S. Grimme, J. Chem. Theory Comput., 2019, 155, 2847-2862
     DOI: 10.1021/acs.jctc.9b00143
   
   for SPH calculations refer to:
   * S. Spicher and S. Grimme, J. Chem. Theory Comput., 2021, 17, 1701-1714
     DOI: 10.1021/acs.jctc.0c01306
   
   for ONIOM refer to:
   * C. Plett, A. Katbashev, S. Ehlert, S. Grimme, M. Bursch,
     Phys. Chem. Chem. Phys., 2023, 25, 17860-17868. DOI: 10.1039/D3CP02178E
   
   for DIPRO refer to:
   * J. Kohn, N. Gildemeister, S. Grimme, D. Fazzi, A. Hansen,
     J. Chem. Phys., 2023, just accepted.
   
   for PTB refer to:
   * S. Grimme, M. Mueller, A. Hansen, J. Chem. Phys., 2023, 158, 124111.
     DOI: 10.1063/5.0137838
   
   with help from (in alphabetical order)
   P. Atkinson, C. Bannwarth, F. Bohle, G. Brandenburg, E. Caldeweyher
   M. Checinski, S. Dohm, S. Ehlert, S. Ehrlich, I. Gerasimov, C. Hölzer
   A. Katbashev, J. Kohn, J. Koopman, C. Lavigne, S. Lehtola, F. März, M. Müller,
   F. Musil, H. Neugebauer, J. Pisarek, C. Plett, P. Pracht, F. Pultar,
   J. Seibert, P. Shushkov, S. Spicher, M. Stahn, M. Steiner, T. Strunk,
   J. Stückrath, T. Rose, and J. Unsleber
   
 * started run on 2026/03/16 at 14:16:26.382     
   ID    Z sym.   atoms
    1    6 C      1
    2    1 H      2-4
    3   17 Cl     5
    4    9 F      6

           -------------------------------------------------
          |                Calculation Setup                |
           -------------------------------------------------

          program call               : /software/orca-6.1.0-el8-x86_64/bin/otool_xtb reactant_optfreq_XTB.xyz --grad -c -1 -u 0 -P 8 --namespace reactant_optfreq --input reactant_optfreq_XTB.input.tmp --acc 0.200000
          hostname                   : midway3-login4.rcc.local
          calculation namespace      : reactant_optfreq
          coordinate file            : reactant_optfreq_XTB.xyz
          omp threads                :                     8


molecular fragmentation (1/2 indicates fragments):
111112
# atoms in fragment 1/2:     5     1
 fragment masses (1/2) :       50.49       19.00
CMA distance (Bohr)    :   6.567
constraining FC (au)   :  0.0500

           -------------------------------------------------
          |                 G F N 2 - x T B                 |
           -------------------------------------------------

        Reference                      10.1021/acs.jctc.8b01176
      * Hamiltonian:
        H0-scaling (s, p, d)           1.850000    2.230000    2.230000
        zeta-weighting                 0.500000
      * Dispersion:
        s8                             2.700000
        a1                             0.520000
        a2                             5.000000
        s9                             5.000000
      * Repulsion:
        kExp                           1.500000    1.000000
        rExp                           1.000000
      * Coulomb:
        alpha                          2.000000
        third order                    shell-resolved
        anisotropic                    true
        a3                             3.000000
        a5                             4.000000
        cn-shift                       1.200000
        cn-exp                         4.000000
        max-rad                        5.000000


          ...................................................
          :                      SETUP                      :
          :.................................................:
          :  # basis functions                  21          :
          :  # atomic orbitals                  20          :
          :  # shells                           10          :
          :  # electrons                        22          :
          :  max. iterations                   250          :
          :  Hamiltonian                  GFN2-xTB          :
          :  restarted?                      false          :
          :  GBSA solvation                  false          :
          :  PC potential                    false          :
          :  electronic temp.          300.0000000     K    :
          :  accuracy                    0.2000000          :
          :  -> integral cutoff          0.3198970E+02      :
          :  -> integral neglect         0.2000000E-08      :
          :  -> SCF convergence          0.2000000E-06 Eh   :
          :  -> wf. convergence          0.2000000E-04 e    :
          :  Broyden damping             0.4000000          :
          :  net charge                         -1          :
          :  unpaired electrons                  0          :
          ...................................................

 iter      E             dE          RMSdq      gap      omega  full diag
   1    -13.1160202 -0.131160E+02  0.667E+00    4.84       0.0  T
   2    -13.1943474 -0.783271E-01  0.268E+00    2.60       1.0  T
   3    -13.2070054 -0.126581E-01  0.182E+00    3.71       1.0  T
   4    -13.2099222 -0.291674E-02  0.398E-01    3.22       1.0  T
   5    -13.2103526 -0.430397E-03  0.188E-01    3.30       1.0  T
   6    -13.2103732 -0.206150E-04  0.145E-01    3.29       1.0  T
   7    -13.2104338 -0.605970E-04  0.652E-02    3.29       1.0  T
   8    -13.2104443 -0.105063E-04  0.124E-02    3.28       3.3  T
   9    -13.2104450 -0.713826E-06  0.187E-03    3.29      21.8  T
  10    -13.2104450 -0.491337E-08  0.818E-04    3.29      49.9  T
  11    -13.2104450 -0.946379E-09  0.527E-04    3.29      77.4  T
  12    -13.2104450 -0.435909E-09  0.290E-04    3.29     140.6  T
  13    -13.2104450 -0.261828E-09  0.257E-05    3.29    1589.2  T
  14    -13.2104450 -0.163958E-11  0.101E-05    3.29    4026.9  T

   *** convergence criteria satisfied after 14 iterations ***

         #    Occupation            Energy/Eh            Energy/eV
      -------------------------------------------------------------
         1        2.0000           -0.8658938             -23.5622
       ...           ...                  ...                  ...
         5        2.0000           -0.3243112              -8.8250
         6        2.0000           -0.2819117              -7.6712
         7        2.0000           -0.2372722              -6.4565
         8        2.0000           -0.2372024              -6.4546
         9        2.0000           -0.1725970              -4.6966
        10        2.0000           -0.1683042              -4.5798
        11        2.0000           -0.1680109              -4.5718 (HOMO)
        12                         -0.0472238              -1.2850 (LUMO)
        13                          0.2324576               6.3255
        14                          0.2324650               6.3257
        15                          0.2332485               6.3470
        16                          0.2333225               6.3490
       ...                                ...                  ...
        20                          0.4566254              12.4254
      -------------------------------------------------------------
                  HL-Gap            0.1207871 Eh            3.2868 eV
             Fermi-level           -0.1076173 Eh           -2.9284 eV

 SCC (total)                   0 d,  0 h,  0 min,  0.058 sec
 SCC setup                      ...        0 min,  0.000 sec (  0.548%)
 Dispersion                     ...        0 min,  0.000 sec (  0.108%)
 classical contributions        ...        0 min,  0.000 sec (  0.054%)
 integral evaluation            ...        0 min,  0.051 sec ( 88.313%)
 iterations                     ...        0 min,  0.005 sec (  8.594%)
 molecular gradient             ...        0 min,  0.001 sec (  1.960%)
 printout                       ...        0 min,  0.000 sec (  0.390%)

         :::::::::::::::::::::::::::::::::::::::::::::::::::::
         ::                     SUMMARY                     ::
         :::::::::::::::::::::::::::::::::::::::::::::::::::::
         :: total energy             -13.150403471744 Eh    ::
         :: gradient norm              0.014516865584 Eh/a0 ::
         :: HOMO-LUMO gap              3.286784757201 eV    ::
         ::.................................................::
         :: SCC energy               -13.210445108204 Eh    ::
         :: -> isotropic ES            0.188600812153 Eh    ::
         :: -> anisotropic ES         -0.000274680767 Eh    ::
         :: -> anisotropic XC          0.002544405894 Eh    ::
         :: -> dispersion             -0.002062099148 Eh    ::
         :: repulsion energy           0.060041636460 Eh    ::
         :: add. restraining           0.000000000000 Eh    ::
         :: total charge              -1.000000000000 e     ::
         :::::::::::::::::::::::::::::::::::::::::::::::::::::


Property printout bound to 'properties.out'

           -------------------------------------------------
          | TOTAL ENERGY              -13.150403471744 Eh   |
          | GRADIENT NORM               0.014516865584 Eh/α |
          | HOMO-LUMO GAP               3.286784757201 eV   |
           -------------------------------------------------

------------------------------------------------------------------------
 * finished run on 2026/03/16 at 14:16:26.459     
------------------------------------------------------------------------
 total:
 * wall-time:     0 d,  0 h,  0 min,  0.076 sec
 *  cpu-time:     0 d,  0 h,  0 min,  0.267 sec
 * ratio c/w:     3.533 speedup
 SCF:
 * wall-time:     0 d,  0 h,  0 min,  0.058 sec
 *  cpu-time:     0 d,  0 h,  0 min,  0.200 sec
 * ratio c/w:     3.445 speedup


-------------------------   --------------------
FINAL SINGLE POINT ENERGY       -13.150403471740
-------------------------   --------------------


-------------
DIPOLE MOMENT
-------------
                                X             Y             Z
Total Dipole Moment    :     -0.39700       0.22900       0.21500
                        -----------------------------------------
Magnitude (a.u.)       :      0.50624
Magnitude (Debye)      :      1.28675


------------------
CARTESIAN GRADIENT
------------------

   1   C   :    0.000483050   -0.000280966    0.010865267
   2   H   :   -0.001199445    0.000023576    0.000427591
   3   H   :   -0.003264623    0.001884679   -0.002648572
   4   H   :   -0.000619511    0.001026684    0.000429627
   5   Cl  :    0.001168331   -0.000673997   -0.002390287
   6   F   :    0.003432197   -0.001979975   -0.006683626

Difference to translation invariance:
           :   -0.0000000000    0.0000000000    0.0000000000

Difference to rotation invariance:
           :    0.0000000007    0.0000000013    0.0000000000

Norm of the Cartesian gradient     ...    0.0145168656
RMS gradient                       ...    0.0034216580
MAX gradient                       ...    0.0108652665
------------------------------------------------------------------------------
                         ORCA GEOMETRY RELAXATION STEP
------------------------------------------------------------------------------

Reading the OPT-File                    .... done
Getting information on internals        .... done
Copying old internal coords+grads       .... done
Making the new internal coordinates     .... (2022 redundants) done
Validating the new internal coordinates .... (2022 redundants) done
Calculating the B-matrix                .... done
Calculating the G,G- and P matrices     .... done
Transforming gradient to internals      .... done
Projecting the internal gradient        .... done
Number of atoms                         ....   6
Number of internal coordinates          ....  21
Current Energy                          ....   -13.150403472 Eh
Current gradient norm                   ....     0.014516866 Eh/bohr
Maximum allowed component of the step   ....  0.300
Current trust radius                    ....  0.300
Evaluating the initial hessian          ....  (Almloef) done
Projecting the Hessian                  .... done
Forming the augmented Hessian           .... done
Diagonalizing the augmented Hessian     .... done
Last element of RFO vector              ....  0.985378907
Lowest eigenvalues of augmented Hessian:
 -0.001049507  0.021675338  0.036726052  0.060444166  0.067474563
Length of the computed step             ....  0.172905320
The final length of the internal step   ....  0.172905320
Converting the step to Cartesian space:
 Initial RMS(Int)=    0.0377310341
Transforming coordinates:
 Iter   0:  RMS(Cart)=    0.0232981355 RMS(Int)=    0.0375995945
done
Storing new coordinates                 .... done

                                .--------------------.
          ----------------------|Geometry convergence|-------------------------
          Item                value                   Tolerance       Converged
          ---------------------------------------------------------------------
          RMS gradient        0.0019186190            0.0001000000      NO
          MAX gradient        0.0047300426            0.0003000000      NO
          RMS step            0.0377310341            0.0020000000      NO
          MAX step            0.0972213449            0.0040000000      NO
          -------------------------------------------------------------------------
          ........................................................
          Max(Bonds)      0.0514      Max(Angles)    1.43
          Max(Dihed)        0.00      Max(Improp)    0.00
          ---------------------------------------------------------------------

The optimization has not yet converged - more geometry cycles are needed


    ---------------------------------------------------------------------------
                         Redundant Internal Coordinates
                            (Angstroem and degrees)

        Definition                    Value    dE/dq     Step     New-Value
    ----------------------------------------------------------------------------
     1. B(H   1,C   0)                1.0706 -0.001223  0.0005    1.0712   
     2. B(H   2,C   0)                1.0634 -0.002071  0.0045    1.0680   
     3. B(H   3,C   0)                1.0706 -0.001224  0.0005    1.0712   
     4. B(Cl  4,H   2)                2.4356 -0.001190  0.0071    2.4428   
     5. B(Cl  4,H   1)                2.4509  0.000423  0.0033    2.4542   
     6. B(Cl  4,C   0)                2.0698 -0.002061  0.0096    2.0794   
     7. B(Cl  4,H   3)                2.4509  0.000423  0.0033    2.4542   
     8. B(F   5,H   1)                2.2198  0.002393 -0.0493    2.1705   
     9. B(F   5,H   2)                2.0856 -0.002242 -0.0179    2.0677   
    10. B(F   5,C   0)                2.0336  0.004730 -0.0514    1.9822   
    11. B(F   5,H   3)                2.2199  0.002395 -0.0494    2.1706   
    12. A(H   1,C   0,H   3)          117.23 -0.002093    0.42    117.65   
    13. A(H   2,C   0,H   3)          119.04  0.000083   -0.01    119.04   
    14. A(H   1,C   0,Cl  4)           97.47  0.001741   -0.36     97.11   
    15. A(H   2,C   0,Cl  4)           96.75  0.001048   -0.25     96.50   
    16. A(H   3,C   0,Cl  4)           97.48  0.001742   -0.36     97.11   
    17. A(H   1,C   0,F   5)           85.34 -0.000680   -0.26     85.07   
    18. A(H   2,C   0,F   5)           77.76 -0.002984    1.43     79.20   
    19. A(H   3,C   0,F   5)           85.34 -0.000678   -0.26     85.08   
    20. A(Cl  4,C   0,F   5)          174.51 -0.001936    1.18    175.69   
    21. A(H   1,C   0,H   2)          119.05  0.000085   -0.01    119.04   
    ----------------------------------------------------------------------------

Geometry step timings:
Preparation and reading OPT file:      0.000 s ( 2.668 %)
Internal coordinates            :      0.000 s ( 3.188 %)
B/P matrices and projection     :      0.000 s (11.321 %)
Hessian update/contruction      :      0.001 s (35.784 %)
Making the step                 :      0.000 s (10.020 %)
Converting the step to Cartesian:      0.000 s ( 3.709 %)
Storing new data                :      0.000 s ( 5.856 %)
Checking convergence            :      0.000 s ( 4.945 %)
Final printing                  :      0.000 s (22.056 %)
Total time                      :      0.002 s

Time for energy+gradient        :      0.086 s
Time for complete geometry iter :      0.090 s

         *************************************************************
         *                GEOMETRY OPTIMIZATION CYCLE   2            *
         *************************************************************
---------------------------------
CARTESIAN COORDINATES (ANGSTROEM)
---------------------------------
  C     0.107416   -0.062059    0.007365
  H     0.098910    1.001158   -0.122394
  H     1.025690   -0.592373   -0.119384
  H    -0.817732   -0.586097   -0.122359
  Cl    0.117408   -0.067775    2.086737
  F     0.226753   -0.130931   -1.969902

----------------------------
CARTESIAN COORDINATES (A.U.)
----------------------------
  NO LB    ZA    FRAG    MASS        X           Y           Z
   0 C   6.0000    0    12.011    0.202987   -0.117275    0.013918
   1 H   1.0000    0     1.008    0.186914    1.891914   -0.231290
   2 H   1.0000    0     1.008    1.938273   -1.119422   -0.225603
   3 H   1.0000    0     1.008   -1.545289   -1.107563   -0.231224
   4 Cl 17.0000    0    35.453    0.221869   -0.128077    3.943361
   5 F   9.0000    0    18.998    0.428501   -0.247424   -3.722575

      -----------------------------------------------------------      
     |                   =====================                   |     
     |                           x T B                           |     
     |                   =====================                   |     
     |                         S. Grimme                         |     
     |          Mulliken Center for Theoretical Chemistry        |     
     |                    University of Bonn                     |     
      -----------------------------------------------------------      

   * xtb version 6.7.1 (edcfbbe) compiled by 'albert@albert-system' on 2024-07-22

   xtb is free software: you can redistribute it and/or modify it under
   the terms of the GNU Lesser General Public License as published by
   the Free Software Foundation, either version 3 of the License, or
   (at your option) any later version.
   
   xtb is distributed in the hope that it will be useful,
   but WITHOUT ANY WARRANTY; without even the implied warranty of
   MERCHANTABILITY or FITNESS FOR A PARTICULAR PURPOSE.  See the
   GNU Lesser General Public License for more details.
   
   Cite this work as:
   * C. Bannwarth, E. Caldeweyher, S. Ehlert, A. Hansen, P. Pracht,
     J. Seibert, S. Spicher, S. Grimme, WIREs Comput. Mol. Sci., 2020, 11,
     e01493. DOI: 10.1002/wcms.1493
   
   for GFN2-xTB:
   * C. Bannwarth, S. Ehlert and S. Grimme., J. Chem. Theory Comput., 2019,
     15, 1652-1671. DOI: 10.1021/acs.jctc.8b01176
   for GFN1-xTB:
   * S. Grimme, C. Bannwarth, P. Shushkov, J. Chem. Theory Comput., 2017,
     13, 1989-2009. DOI: 10.1021/acs.jctc.7b00118
   for GFN0-xTB:
   * P. Pracht, E. Caldeweyher, S. Ehlert, S. Grimme, ChemRxiv, 2019, preprint.
     DOI: 10.26434/chemrxiv.8326202.v1
   for GFN-FF:
   * S. Spicher and S. Grimme, Angew. Chem. Int. Ed., 2020, 59, 15665-15673.
     DOI: 10.1002/anie.202004239
   
   for ALPB and GBSA implicit solvation:
   * S. Ehlert, M. Stahn, S. Spicher, S. Grimme, J. Chem. Theory Comput.,
     2021, 17, 4250-4261. DOI: 10.1021/acs.jctc.1c00471
   
   for ddCOSMO and CPCM-X implicit solvation:
   * M. Stahn, S. Ehlert, S. Grimme, J. Phys. Chem. A,
     2023, XX, XXXX-XXXX. DOI: 10.1021/acs.jpca.3c04382
   
   for DFT-D4:
   * E. Caldeweyher, C. Bannwarth and S. Grimme, J. Chem. Phys., 2017,
     147, 034112. DOI: 10.1063/1.4993215
   * E. Caldeweyher, S. Ehlert, A. Hansen, H. Neugebauer, S. Spicher,
     C. Bannwarth and S. Grimme, J. Chem. Phys., 2019, 150, 154122.
     DOI: 10.1063/1.5090222
   * E. Caldeweyher, J.-M. Mewes, S. Ehlert and S. Grimme, Phys. Chem. Chem. Phys.
     2020, 22, 8499-8512. DOI: 10.1039/D0CP00502A
   
   for sTDA-xTB:
   * S. Grimme and C. Bannwarth, J. Chem. Phys., 2016, 145, 054103.
     DOI: 10.1063/1.4959605
   
   in the mass-spec context:
   * V. Asgeirsson, C. Bauer and S. Grimme, Chem. Sci., 2017, 8, 4879.
     DOI: 10.1039/c7sc00601b
   * J. Koopman and S. Grimme, ACS Omega 2019, 4, 12, 15120-15133.
     DOI: 10.1021/acsomega.9b02011
   
   for metadynamics refer to:
   * S. Grimme, J. Chem. Theory Comput., 2019, 155, 2847-2862
     DOI: 10.1021/acs.jctc.9b00143
   
   for SPH calculations refer to:
   * S. Spicher and S. Grimme, J. Chem. Theory Comput., 2021, 17, 1701-1714
     DOI: 10.1021/acs.jctc.0c01306
   
   for ONIOM refer to:
   * C. Plett, A. Katbashev, S. Ehlert, S. Grimme, M. Bursch,
     Phys. Chem. Chem. Phys., 2023, 25, 17860-17868. DOI: 10.1039/D3CP02178E
   
   for DIPRO refer to:
   * J. Kohn, N. Gildemeister, S. Grimme, D. Fazzi, A. Hansen,
     J. Chem. Phys., 2023, just accepted.
   
   for PTB refer to:
   * S. Grimme, M. Mueller, A. Hansen, J. Chem. Phys., 2023, 158, 124111.
     DOI: 10.1063/5.0137838
   
   with help from (in alphabetical order)
   P. Atkinson, C. Bannwarth, F. Bohle, G. Brandenburg, E. Caldeweyher
   M. Checinski, S. Dohm, S. Ehlert, S. Ehrlich, I. Gerasimov, C. Hölzer
   A. Katbashev, J. Kohn, J. Koopman, C. Lavigne, S. Lehtola, F. März, M. Müller,
   F. Musil, H. Neugebauer, J. Pisarek, C. Plett, P. Pracht, F. Pultar,
   J. Seibert, P. Shushkov, S. Spicher, M. Stahn, M. Steiner, T. Strunk,
   J. Stückrath, T. Rose, and J. Unsleber
   
 * started run on 2026/03/16 at 14:16:26.472     
   ID    Z sym.   atoms
    1    6 C      1
    2    1 H      2-4
    3   17 Cl     5
    4    9 F      6

           -------------------------------------------------
          |                Calculation Setup                |
           -------------------------------------------------

          program call               : /software/orca-6.1.0-el8-x86_64/bin/otool_xtb reactant_optfreq_XTB.xyz --grad -c -1 -u 0 -P 8 --namespace reactant_optfreq --input reactant_optfreq_XTB.input.tmp --acc 0.200000
          hostname                   : midway3-login4.rcc.local
          calculation namespace      : reactant_optfreq
          coordinate file            : reactant_optfreq_XTB.xyz
          omp threads                :                     8


molecular fragmentation (1/2 indicates fragments):
111112
# atoms in fragment 1/2:     5     1
 fragment masses (1/2) :       50.49       19.00
CMA distance (Bohr)    :   6.486
constraining FC (au)   :  0.0500

           -------------------------------------------------
          |                 G F N 2 - x T B                 |
           -------------------------------------------------

        Reference                      10.1021/acs.jctc.8b01176
      * Hamiltonian:
        H0-scaling (s, p, d)           1.850000    2.230000    2.230000
        zeta-weighting                 0.500000
      * Dispersion:
        s8                             2.700000
        a1                             0.520000
        a2                             5.000000
        s9                             5.000000
      * Repulsion:
        kExp                           1.500000    1.000000
        rExp                           1.000000
      * Coulomb:
        alpha                          2.000000
        third order                    shell-resolved
        anisotropic                    true
        a3                             3.000000
        a5                             4.000000
        cn-shift                       1.200000
        cn-exp                         4.000000
        max-rad                        5.000000

q/qsh data taken from xtbrestart
CAMM data taken from xtbrestart

          ...................................................
          :                      SETUP                      :
          :.................................................:
          :  # basis functions                  21          :
          :  # atomic orbitals                  20          :
          :  # shells                           10          :
          :  # electrons                        22          :
          :  max. iterations                   250          :
          :  Hamiltonian                  GFN2-xTB          :
          :  restarted?                       true          :
          :  GBSA solvation                  false          :
          :  PC potential                    false          :
          :  electronic temp.          300.0000000     K    :
          :  accuracy                    0.2000000          :
          :  -> integral cutoff          0.3198970E+02      :
          :  -> integral neglect         0.2000000E-08      :
          :  -> SCF convergence          0.2000000E-06 Eh   :
          :  -> wf. convergence          0.2000000E-04 e    :
          :  Broyden damping             0.4000000          :
          :  net charge                         -1          :
          :  unpaired electrons                  0          :
          ...................................................

 iter      E             dE          RMSdq      gap      omega  full diag
   1    -13.2101174 -0.132101E+02  0.299E-01    3.46       0.0  T
   2    -13.2104662 -0.348720E-03  0.884E-02    3.64       1.0  T
   3    -13.2104773 -0.111135E-04  0.397E-02    3.61       1.0  T
   4    -13.2104804 -0.308616E-05  0.248E-02    3.63       1.6  T
   5    -13.2104807 -0.345028E-06  0.229E-03    3.63      17.9  T
   6    -13.2104807 -0.286350E-08  0.876E-04    3.63      46.6  T
   7    -13.2104807 -0.124694E-08  0.639E-04    3.63      63.9  T
   8    -13.2104807 -0.993998E-09  0.309E-04    3.63     132.3  T
   9    -13.2104807 -0.213861E-09  0.470E-05    3.63     869.5  T
  10    -13.2104807 -0.311218E-11  0.312E-05    3.63    1308.5  T

   *** convergence criteria satisfied after 10 iterations ***

         #    Occupation            Energy/Eh            Energy/eV
      -------------------------------------------------------------
         1        2.0000           -0.8615797             -23.4448
       ...           ...                  ...                  ...
         5        2.0000           -0.3233247              -8.7981
         6        2.0000           -0.2794354              -7.6038
         7        2.0000           -0.2337410              -6.3604
         8        2.0000           -0.2336824              -6.3588
         9        2.0000           -0.1791513              -4.8750
        10        2.0000           -0.1760452              -4.7904
        11        2.0000           -0.1756950              -4.7809 (HOMO)
        12                         -0.0424327              -1.1547 (LUMO)
        13                          0.2379879               6.4760
        14                          0.2379894               6.4760
        15                          0.2387762               6.4974
        16                          0.2388337               6.4990
       ...                                ...                  ...
        20                          0.4502207              12.2511
      -------------------------------------------------------------
                  HL-Gap            0.1332623 Eh            3.6263 eV
             Fermi-level           -0.1090639 Eh           -2.9678 eV

 SCC (total)                   0 d,  0 h,  0 min,  0.170 sec
 SCC setup                      ...        0 min,  0.000 sec (  0.115%)
 Dispersion                     ...        0 min,  0.000 sec (  0.034%)
 classical contributions        ...        0 min,  0.000 sec (  0.020%)
 integral evaluation            ...        0 min,  0.091 sec ( 53.918%)
 iterations                     ...        0 min,  0.077 sec ( 45.183%)
 molecular gradient             ...        0 min,  0.001 sec (  0.576%)
 printout                       ...        0 min,  0.000 sec (  0.139%)

         :::::::::::::::::::::::::::::::::::::::::::::::::::::
         ::                     SUMMARY                     ::
         :::::::::::::::::::::::::::::::::::::::::::::::::::::
         :: total energy             -13.151315849061 Eh    ::
         :: gradient norm              0.016601217921 Eh/a0 ::
         :: HOMO-LUMO gap              3.626251106119 eV    ::
         ::.................................................::
         :: SCC energy               -13.210480784030 Eh    ::
         :: -> isotropic ES            0.185158234855 Eh    ::
         :: -> anisotropic ES         -0.000399048070 Eh    ::
         :: -> anisotropic XC          0.002402644698 Eh    ::
         :: -> dispersion             -0.002068179734 Eh    ::
         :: repulsion energy           0.059164934969 Eh    ::
         :: add. restraining           0.000000000000 Eh    ::
         :: total charge              -1.000000000000 e     ::
         :::::::::::::::::::::::::::::::::::::::::::::::::::::


Property printout bound to 'properties.out'

           -------------------------------------------------
          | TOTAL ENERGY              -13.151315849061 Eh   |
          | GRADIENT NORM               0.016601217921 Eh/α |
          | HOMO-LUMO GAP               3.626251106119 eV   |
           -------------------------------------------------

------------------------------------------------------------------------
 * finished run on 2026/03/16 at 14:16:26.661     
------------------------------------------------------------------------
 total:
 * wall-time:     0 d,  0 h,  0 min,  0.188 sec
 *  cpu-time:     0 d,  0 h,  0 min,  0.491 sec
 * ratio c/w:     2.608 speedup
 SCF:
 * wall-time:     0 d,  0 h,  0 min,  0.170 sec
 *  cpu-time:     0 d,  0 h,  0 min,  0.393 sec
 * ratio c/w:     2.312 speedup


-------------------------   --------------------
FINAL SINGLE POINT ENERGY       -13.151315849060
-------------------------   --------------------


-------------
DIPOLE MOMENT
-------------
                                X             Y             Z
Total Dipole Moment    :     -0.35700       0.20600       0.02600
                        -----------------------------------------
Magnitude (a.u.)       :      0.41299
Magnitude (Debye)      :      1.04974


------------------
CARTESIAN GRADIENT
------------------

   1   C   :   -0.001312375    0.000756649    0.014382811
   2   H   :   -0.000924351    0.000376190   -0.001236366
   3   H   :   -0.000878750    0.000507034   -0.004443636
   4   H   :   -0.000788198    0.000611982   -0.001234413
   5   Cl  :    0.000985301   -0.000568414   -0.003943717
   6   F   :    0.002918373   -0.001683441   -0.003524680

Difference to translation invariance:
           :    0.0000000000    0.0000000000    0.0000000000

Difference to rotation invariance:
           :   -0.0000000540   -0.0000000936    0.0000000000

Norm of the Cartesian gradient     ...    0.0166012179
RMS gradient                       ...    0.0039129446
MAX gradient                       ...    0.0143828109
------------------------------------------------------------------------------
                         ORCA GEOMETRY RELAXATION STEP
------------------------------------------------------------------------------

Reading the OPT-File                    .... done
Getting information on internals        .... done
Copying old internal coords+grads       .... done
Making the new internal coordinates     .... (2022 redundants) done
Validating the new internal coordinates .... (2022 redundants) done
Calculating the B-matrix                .... done
Calculating the G,G- and P matrices     .... done
Transforming gradient to internals      .... done
Projecting the internal gradient        .... done
Number of atoms                         ....   6
Number of internal coordinates          ....  21
Current Energy                          ....   -13.151315849 Eh
Current gradient norm                   ....     0.016601218 Eh/bohr
Maximum allowed component of the step   ....  0.300
Current trust radius                    ....  0.300
Updating the Hessian (BFGS)             .... done
Forming the augmented Hessian           .... done
Diagonalizing the augmented Hessian     .... done
Last element of RFO vector              ....  0.899669254
Lowest eigenvalues of augmented Hessian:
 -0.002901163  0.009940961  0.038060315  0.055981048  0.060444168
Length of the computed step             ....  0.485258486
Warning: the length of the step is outside the trust region - taking restricted step instead
The input lambda is                     ....     0.006558
   iter:   5  x=    0.000328  g=  413.032203 f(x)=     0.939705
   iter:  10  x=   -0.009625  g=   10.195516 f(x)=     0.000999
The output lambda is                    ....    -0.009626 (13 iterations)
The final length of the internal step   ....  0.300000000
Converting the step to Cartesian space:
 Initial RMS(Int)=    0.0654653671
Transforming coordinates:
 Iter   0:  RMS(Cart)=    0.0452954047 RMS(Int)=    0.0650281622
done
Storing new coordinates                 .... done
The predicted energy change is          ....    -0.001395748
Previously predicted energy change      ....    -0.000540442
Actually observed energy change         ....    -0.000912377
Ratio of predicted to observed change   ....     1.688206190
New trust radius                        ....     0.200000000

                                .--------------------.
          ----------------------|Geometry convergence|-------------------------
          Item                value                   Tolerance       Converged
          ---------------------------------------------------------------------
          Energy change      -0.0009123773            0.0000050000      NO
          RMS gradient        0.0019516638            0.0001000000      NO
          MAX gradient        0.0040727470            0.0003000000      NO
          RMS step            0.0654653671            0.0020000000      NO
          MAX step            0.1673888810            0.0040000000      NO
          -------------------------------------------------------------------------
          ........................................................
          Max(Bonds)      0.0886      Max(Angles)    4.41
          Max(Dihed)        0.00      Max(Improp)    0.00
          ---------------------------------------------------------------------

The optimization has not yet converged - more geometry cycles are needed


    ---------------------------------------------------------------------------
                         Redundant Internal Coordinates
                            (Angstroem and degrees)

        Definition                    Value    dE/dq     Step     New-Value
    ----------------------------------------------------------------------------
     1. B(H   1,C   0)                1.0711 -0.000135 -0.0000    1.0711   
     2. B(H   2,C   0)                1.0680  0.000799  0.0055    1.0734   
     3. B(H   3,C   0)                1.0711 -0.000136 -0.0000    1.0711   
     4. B(Cl  4,H   2)                2.4428 -0.000646  0.0176    2.4604   
     5. B(Cl  4,H   1)                2.4542  0.000321  0.0097    2.4639   
     6. B(Cl  4,C   0)                2.0794 -0.003935  0.0388    2.1183   
     7. B(Cl  4,H   3)                2.4542  0.000322  0.0097    2.4639   
     8. B(F   5,H   1)                2.1705  0.001185 -0.0776    2.0929   
     9. B(F   5,H   2)                2.0678 -0.002772  0.0031    2.0709   
    10. B(F   5,C   0)                1.9821  0.004073 -0.0886    1.8935   
    11. B(F   5,H   3)                2.1706  0.001188 -0.0777    2.0929   
    12. A(H   1,C   0,H   3)          117.65 -0.002047    1.40    119.05   
    13. A(H   2,C   0,H   3)          119.03 -0.000215    0.26    119.29   
    14. A(H   1,C   0,Cl  4)           97.12  0.002316   -1.62     95.50   
    15. A(H   2,C   0,Cl  4)           96.50  0.001448   -1.30     95.20   
    16. A(H   3,C   0,Cl  4)           97.12  0.002317   -1.62     95.50   
    17. A(H   1,C   0,F   5)           85.07 -0.001252   -0.02     85.06   
    18. A(H   2,C   0,F   5)           79.20 -0.003447    4.41     83.61   
    19. A(H   3,C   0,F   5)           85.08 -0.001250   -0.02     85.06   
    20. A(Cl  4,C   0,F   5)          175.70 -0.001999    3.11    178.81   
    21. A(H   1,C   0,H   2)          119.04 -0.000214    0.25    119.29   
    ----------------------------------------------------------------------------

Geometry step timings:
Preparation and reading OPT file:      0.000 s ( 2.508 %)
Internal coordinates            :      0.000 s ( 3.923 %)
B/P matrices and projection     :      0.000 s (11.447 %)
Hessian update/contruction      :      0.000 s (27.910 %)
Making the step                 :      0.000 s (14.791 %)
Converting the step to Cartesian:      0.000 s ( 3.023 %)
Storing new data                :      0.000 s ( 5.852 %)
Checking convergence            :      0.000 s ( 7.203 %)
Final printing                  :      0.000 s (23.215 %)
Total time                      :      0.002 s

Time for energy+gradient        :      0.199 s
Time for complete geometry iter :      0.202 s

         *************************************************************
         *                GEOMETRY OPTIMIZATION CYCLE   3            *
         *************************************************************
---------------------------------
CARTESIAN COORDINATES (ANGSTROEM)
---------------------------------
  C     0.120634   -0.069684   -0.027143
  H     0.121068    0.995509   -0.138603
  H     1.047719   -0.605079   -0.107478
  H    -0.801758   -0.602447   -0.138585
  Cl    0.091485   -0.052821    2.090976
  F     0.179298   -0.103556   -1.919103

----------------------------
CARTESIAN COORDINATES (A.U.)
----------------------------
  NO LB    ZA    FRAG    MASS        X           Y           Z
   0 C   6.0000    0    12.011    0.227965   -0.131683   -0.051292
   1 H   1.0000    0     1.008    0.228785    1.881239   -0.261921
   2 H   1.0000    0     1.008    1.979902   -1.143434   -0.203104
   3 H   1.0000    0     1.008   -1.515104   -1.138459   -0.261888
   4 Cl 17.0000    0    35.453    0.172881   -0.099817    3.951372
   5 F   9.0000    0    18.998    0.338824   -0.195693   -3.626580

      -----------------------------------------------------------      
     |                   =====================                   |     
     |                           x T B                           |     
     |                   =====================                   |     
     |                         S. Grimme                         |     
     |          Mulliken Center for Theoretical Chemistry        |     
     |                    University of Bonn                     |     
      -----------------------------------------------------------      

   * xtb version 6.7.1 (edcfbbe) compiled by 'albert@albert-system' on 2024-07-22

   xtb is free software: you can redistribute it and/or modify it under
   the terms of the GNU Lesser General Public License as published by
   the Free Software Foundation, either version 3 of the License, or
   (at your option) any later version.
   
   xtb is distributed in the hope that it will be useful,
   but WITHOUT ANY WARRANTY; without even the implied warranty of
   MERCHANTABILITY or FITNESS FOR A PARTICULAR PURPOSE.  See the
   GNU Lesser General Public License for more details.
   
   Cite this work as:
   * C. Bannwarth, E. Caldeweyher, S. Ehlert, A. Hansen, P. Pracht,
     J. Seibert, S. Spicher, S. Grimme, WIREs Comput. Mol. Sci., 2020, 11,
     e01493. DOI: 10.1002/wcms.1493
   
   for GFN2-xTB:
   * C. Bannwarth, S. Ehlert and S. Grimme., J. Chem. Theory Comput., 2019,
     15, 1652-1671. DOI: 10.1021/acs.jctc.8b01176
   for GFN1-xTB:
   * S. Grimme, C. Bannwarth, P. Shushkov, J. Chem. Theory Comput., 2017,
     13, 1989-2009. DOI: 10.1021/acs.jctc.7b00118
   for GFN0-xTB:
   * P. Pracht, E. Caldeweyher, S. Ehlert, S. Grimme, ChemRxiv, 2019, preprint.
     DOI: 10.26434/chemrxiv.8326202.v1
   for GFN-FF:
   * S. Spicher and S. Grimme, Angew. Chem. Int. Ed., 2020, 59, 15665-15673.
     DOI: 10.1002/anie.202004239
   
   for ALPB and GBSA implicit solvation:
   * S. Ehlert, M. Stahn, S. Spicher, S. Grimme, J. Chem. Theory Comput.,
     2021, 17, 4250-4261. DOI: 10.1021/acs.jctc.1c00471
   
   for ddCOSMO and CPCM-X implicit solvation:
   * M. Stahn, S. Ehlert, S. Grimme, J. Phys. Chem. A,
     2023, XX, XXXX-XXXX. DOI: 10.1021/acs.jpca.3c04382
   
   for DFT-D4:
   * E. Caldeweyher, C. Bannwarth and S. Grimme, J. Chem. Phys., 2017,
     147, 034112. DOI: 10.1063/1.4993215
   * E. Caldeweyher, S. Ehlert, A. Hansen, H. Neugebauer, S. Spicher,
     C. Bannwarth and S. Grimme, J. Chem. Phys., 2019, 150, 154122.
     DOI: 10.1063/1.5090222
   * E. Caldeweyher, J.-M. Mewes, S. Ehlert and S. Grimme, Phys. Chem. Chem. Phys.
     2020, 22, 8499-8512. DOI: 10.1039/D0CP00502A
   
   for sTDA-xTB:
   * S. Grimme and C. Bannwarth, J. Chem. Phys., 2016, 145, 054103.
     DOI: 10.1063/1.4959605
   
   in the mass-spec context:
   * V. Asgeirsson, C. Bauer and S. Grimme, Chem. Sci., 2017, 8, 4879.
     DOI: 10.1039/c7sc00601b
   * J. Koopman and S. Grimme, ACS Omega 2019, 4, 12, 15120-15133.
     DOI: 10.1021/acsomega.9b02011
   
   for metadynamics refer to:
   * S. Grimme, J. Chem. Theory Comput., 2019, 155, 2847-2862
     DOI: 10.1021/acs.jctc.9b00143
   
   for SPH calculations refer to:
   * S. Spicher and S. Grimme, J. Chem. Theory Comput., 2021, 17, 1701-1714
     DOI: 10.1021/acs.jctc.0c01306
   
   for ONIOM refer to:
   * C. Plett, A. Katbashev, S. Ehlert, S. Grimme, M. Bursch,
     Phys. Chem. Chem. Phys., 2023, 25, 17860-17868. DOI: 10.1039/D3CP02178E
   
   for DIPRO refer to:
   * J. Kohn, N. Gildemeister, S. Grimme, D. Fazzi, A. Hansen,
     J. Chem. Phys., 2023, just accepted.
   
   for PTB refer to:
   * S. Grimme, M. Mueller, A. Hansen, J. Chem. Phys., 2023, 158, 124111.
     DOI: 10.1063/5.0137838
   
   with help from (in alphabetical order)
   P. Atkinson, C. Bannwarth, F. Bohle, G. Brandenburg, E. Caldeweyher
   M. Checinski, S. Dohm, S. Ehlert, S. Ehrlich, I. Gerasimov, C. Hölzer
   A. Katbashev, J. Kohn, J. Koopman, C. Lavigne, S. Lehtola, F. März, M. Müller,
   F. Musil, H. Neugebauer, J. Pisarek, C. Plett, P. Pracht, F. Pultar,
   J. Seibert, P. Shushkov, S. Spicher, M. Stahn, M. Steiner, T. Strunk,
   J. Stückrath, T. Rose, and J. Unsleber
   
 * started run on 2026/03/16 at 14:16:26.674     
   ID    Z sym.   atoms
    1    6 C      1
    2    1 H      2-4
    3   17 Cl     5
    4    9 F      6

           -------------------------------------------------
          |                Calculation Setup                |
           -------------------------------------------------

          program call               : /software/orca-6.1.0-el8-x86_64/bin/otool_xtb reactant_optfreq_XTB.xyz --grad -c -1 -u 0 -P 8 --namespace reactant_optfreq --input reactant_optfreq_XTB.input.tmp --acc 0.200000
          hostname                   : midway3-login4.rcc.local
          calculation namespace      : reactant_optfreq
          coordinate file            : reactant_optfreq_XTB.xyz
          omp threads                :                     8


molecular fragmentation (1/2 indicates fragments):
111112
# atoms in fragment 1/2:     5     1
 fragment masses (1/2) :       50.49       19.00
CMA distance (Bohr)    :   6.377
constraining FC (au)   :  0.0500

           -------------------------------------------------
          |                 G F N 2 - x T B                 |
           -------------------------------------------------

        Reference                      10.1021/acs.jctc.8b01176
      * Hamiltonian:
        H0-scaling (s, p, d)           1.850000    2.230000    2.230000
        zeta-weighting                 0.500000
      * Dispersion:
        s8                             2.700000
        a1                             0.520000
        a2                             5.000000
        s9                             5.000000
      * Repulsion:
        kExp                           1.500000    1.000000
        rExp                           1.000000
      * Coulomb:
        alpha                          2.000000
        third order                    shell-resolved
        anisotropic                    true
        a3                             3.000000
        a5                             4.000000
        cn-shift                       1.200000
        cn-exp                         4.000000
        max-rad                        5.000000

q/qsh data taken from xtbrestart
CAMM data taken from xtbrestart

          ...................................................
          :                      SETUP                      :
          :.................................................:
          :  # basis functions                  21          :
          :  # atomic orbitals                  20          :
          :  # shells                           10          :
          :  # electrons                        22          :
          :  max. iterations                   250          :
          :  Hamiltonian                  GFN2-xTB          :
          :  restarted?                       true          :
          :  GBSA solvation                  false          :
          :  PC potential                    false          :
          :  electronic temp.          300.0000000     K    :
          :  accuracy                    0.2000000          :
          :  -> integral cutoff          0.3198970E+02      :
          :  -> integral neglect         0.2000000E-08      :
          :  -> SCF convergence          0.2000000E-06 Eh   :
          :  -> wf. convergence          0.2000000E-04 e    :
          :  Broyden damping             0.4000000          :
          :  net charge                         -1          :
          :  unpaired electrons                  0          :
          ...................................................

 iter      E             dE          RMSdq      gap      omega  full diag
   1    -13.2093146 -0.132093E+02  0.680E-01    3.89       0.0  T
   2    -13.2111502 -0.183554E-02  0.226E-01    4.27       1.0  T
   3    -13.2112326 -0.823920E-04  0.948E-02    4.21       1.0  T
   4    -13.2112500 -0.174070E-04  0.639E-02    4.24       1.0  T
   5    -13.2112529 -0.287774E-05  0.188E-02    4.24       2.2  T
   6    -13.2112536 -0.730018E-06  0.962E-03    4.24       4.2  T
   7    -13.2112538 -0.231951E-06  0.533E-03    4.24       7.7  T
   8    -13.2112539 -0.732626E-07  0.716E-04    4.24      57.0  T
   9    -13.2112539 -0.676206E-10  0.286E-04    4.24     142.6  T
  10    -13.2112539 -0.269429E-09  0.119E-04    4.24     343.8  T
  11    -13.2112539 -0.443023E-11  0.894E-05    4.24     456.4  T

   *** convergence criteria satisfied after 11 iterations ***

         #    Occupation            Energy/Eh            Energy/eV
      -------------------------------------------------------------
         1        2.0000           -0.8517313             -23.1768
       ...           ...                  ...                  ...
         5        2.0000           -0.3234918              -8.8027
         6        2.0000           -0.2759671              -7.5094
         7        2.0000           -0.2263385              -6.1590
         8        2.0000           -0.2263336              -6.1589
         9        2.0000           -0.1943714              -5.2891
        10        2.0000           -0.1943273              -5.2879
        11        2.0000           -0.1927217              -5.2442 (HOMO)
        12                         -0.0368913              -1.0039 (LUMO)
        13                          0.2509218               6.8279
        14                          0.2509328               6.8282
        15                          0.2516032               6.8465
        16                          0.2516206               6.8469
       ...                                ...                  ...
        20                          0.4420982              12.0301
      -------------------------------------------------------------
                  HL-Gap            0.1558304 Eh            4.2404 eV
             Fermi-level           -0.1148065 Eh           -3.1240 eV

 SCC (total)                   0 d,  0 h,  0 min,  0.111 sec
 SCC setup                      ...        0 min,  0.000 sec (  0.264%)
 Dispersion                     ...        0 min,  0.000 sec (  0.080%)
 classical contributions        ...        0 min,  0.000 sec (  0.038%)
 integral evaluation            ...        0 min,  0.108 sec ( 97.483%)
 iterations                     ...        0 min,  0.002 sec (  1.447%)
 molecular gradient             ...        0 min,  0.001 sec (  0.511%)
 printout                       ...        0 min,  0.000 sec (  0.151%)

         :::::::::::::::::::::::::::::::::::::::::::::::::::::
         ::                     SUMMARY                     ::
         :::::::::::::::::::::::::::::::::::::::::::::::::::::
         :: total energy             -13.152956530654 Eh    ::
         :: gradient norm              0.022751834461 Eh/a0 ::
         :: HOMO-LUMO gap              4.240361349322 eV    ::
         ::.................................................::
         :: SCC energy               -13.211253955369 Eh    ::
         :: -> isotropic ES            0.177774680716 Eh    ::
         :: -> anisotropic ES         -0.000374720084 Eh    ::
         :: -> anisotropic XC          0.002386206124 Eh    ::
         :: -> dispersion             -0.002068980996 Eh    ::
         :: repulsion energy           0.058297424715 Eh    ::
         :: add. restraining           0.000000000000 Eh    ::
         :: total charge              -1.000000000000 e     ::
         :::::::::::::::::::::::::::::::::::::::::::::::::::::


Property printout bound to 'properties.out'

           -------------------------------------------------
          | TOTAL ENERGY              -13.152956530654 Eh   |
          | GRADIENT NORM               0.022751834461 Eh/α |
          | HOMO-LUMO GAP               4.240361349322 eV   |
           -------------------------------------------------

------------------------------------------------------------------------
 * finished run on 2026/03/16 at 14:16:26.870     
------------------------------------------------------------------------
 total:
 * wall-time:     0 d,  0 h,  0 min,  0.195 sec
 *  cpu-time:     0 d,  0 h,  0 min,  0.404 sec
 * ratio c/w:     2.072 speedup
 SCF:
 * wall-time:     0 d,  0 h,  0 min,  0.111 sec
 *  cpu-time:     0 d,  0 h,  0 min,  0.297 sec
 * ratio c/w:     2.671 speedup


-------------------------   --------------------
FINAL SINGLE POINT ENERGY       -13.152956530650
-------------------------   --------------------


-------------
DIPOLE MOMENT
-------------
                                X             Y             Z
Total Dipole Moment    :     -0.25900       0.15000      -0.37800
                        -----------------------------------------
Magnitude (a.u.)       :      0.48215
Magnitude (Debye)      :      1.22552


------------------
CARTESIAN GRADIENT
------------------

   1   C   :   -0.002687034    0.001552081    0.019911712
   2   H   :   -0.000122311    0.000424467   -0.004426177
   3   H   :    0.002005948   -0.001158396   -0.005465224
   4   H   :   -0.000430059   -0.000106876   -0.004425445
   5   Cl  :    0.000409303   -0.000236146   -0.005956511
   6   F   :    0.000824152   -0.000475129    0.000361646

Difference to translation invariance:
           :   -0.0000000000   -0.0000000000   -0.0000000000

Difference to rotation invariance:
           :   -0.0000000994   -0.0000001723    0.0000000000

Norm of the Cartesian gradient     ...    0.0227518345
RMS gradient                       ...    0.0053626588
MAX gradient                       ...    0.0199117122
------------------------------------------------------------------------------
                         ORCA GEOMETRY RELAXATION STEP
------------------------------------------------------------------------------

Reading the OPT-File                    .... done
Getting information on internals        .... done
Copying old internal coords+grads       .... done
Making the new internal coordinates     .... (2022 redundants) done
Validating the new internal coordinates .... (2022 redundants) done
Calculating the B-matrix                .... done
Calculating the G,G- and P matrices     .... done
Transforming gradient to internals      .... done
Projecting the internal gradient        .... done
Number of atoms                         ....   6
Number of internal coordinates          ....  21
Current Energy                          ....   -13.152956531 Eh
Current gradient norm                   ....     0.022751834 Eh/bohr
Maximum allowed component of the step   ....  0.300
Current trust radius                    ....  0.200
Updating the Hessian (BFGS)             .... done
Forming the augmented Hessian           .... done
Diagonalizing the augmented Hessian     .... done
Last element of RFO vector              ....  0.869938598
Lowest eigenvalues of augmented Hessian:
 -0.003586700  0.008293655  0.038896799  0.044157423  0.060444167
Length of the computed step             ....  0.566890643
Warning: the length of the step is outside the trust region - taking restricted step instead
The input lambda is                     ....     0.004490
   iter:   5  x=   -0.001972  g=  406.056441 f(x)=     0.989632
   iter:  10  x=   -0.021569  g=    3.339349 f(x)=     0.006083
The output lambda is                    ....    -0.021786 (14 iterations)
The final length of the internal step   ....  0.200000000
Converting the step to Cartesian space:
 Initial RMS(Int)=    0.0436435780
Transforming coordinates:
 Iter   0:  RMS(Cart)=    0.0315339646 RMS(Int)=    0.0424771723
 Iter   5:  RMS(Cart)=    0.0007842903 RMS(Int)=    0.0006662680
 Iter  10:  RMS(Cart)=    0.0000580059 RMS(Int)=    0.0000492625
 Iter  15:  RMS(Cart)=    0.0000042944 RMS(Int)=    0.0000036470
 Iter  20:  RMS(Cart)=    0.0000003180 RMS(Int)=    0.0000002700
done
Storing new coordinates                 .... done
The predicted energy change is          ....    -0.001220009
Previously predicted energy change      ....    -0.001395748
Actually observed energy change         ....    -0.001640682
Ratio of predicted to observed change   ....     1.175485474
New trust radius                        ....     0.300000000

                                .--------------------.
          ----------------------|Geometry convergence|-------------------------
          Item                value                   Tolerance       Converged
          ---------------------------------------------------------------------
          Energy change      -0.0016406816            0.0000050000      NO
          RMS gradient        0.0025536452            0.0001000000      NO
          MAX gradient        0.0066109387            0.0003000000      NO
          RMS step            0.0436435780            0.0020000000      NO
          MAX step            0.1055237956            0.0040000000      NO
          -------------------------------------------------------------------------
          ........................................................
          Max(Bonds)      0.0558      Max(Angles)    4.08
          Max(Dihed)        0.00      Max(Improp)    0.00
          ---------------------------------------------------------------------

The optimization has not yet converged - more geometry cycles are needed


    ---------------------------------------------------------------------------
                         Redundant Internal Coordinates
                            (Angstroem and degrees)

        Definition                    Value    dE/dq     Step     New-Value
    ----------------------------------------------------------------------------
     1. B(H   1,C   0)                1.0710  0.001305 -0.0005    1.0706   
     2. B(H   2,C   0)                1.0736  0.003441  0.0021    1.0757   
     3. B(H   3,C   0)                1.0710  0.001305 -0.0005    1.0706   
     4. B(Cl  4,H   2)                2.4602  0.000280  0.0134    2.4736   
     5. B(Cl  4,H   1)                2.4639  0.000219  0.0052    2.4691   
     6. B(Cl  4,C   0)                2.1184 -0.006611  0.0433    2.1617   
     7. B(Cl  4,H   3)                2.4639  0.000219  0.0052    2.4691   
     8. B(F   5,H   1)                2.0932 -0.001234 -0.0328    2.0604   
     9. B(F   5,H   2)                2.0707 -0.002075  0.0237    2.0943   
    10. B(F   5,C   0)                1.8932  0.003574 -0.0558    1.8373   
    11. B(F   5,H   3)                2.0932 -0.001233 -0.0328    2.0604   
    12. A(H   1,C   0,H   3)          118.96 -0.001267    1.39    120.36   
    13. A(H   2,C   0,H   3)          119.20 -0.000805    0.42    119.62   
    14. A(H   1,C   0,Cl  4)           95.52  0.003178   -2.12     93.39   
    15. A(H   2,C   0,Cl  4)           95.20  0.002566   -1.68     93.52   
    16. A(H   3,C   0,Cl  4)           95.52  0.003178   -2.12     93.39   
    17. A(H   1,C   0,F   5)           85.05 -0.002673    0.90     85.96   
    18. A(H   2,C   0,F   5)           83.66 -0.003566    4.08     87.74   
    19. A(H   3,C   0,F   5)           85.05 -0.002673    0.90     85.96   
    20. A(Cl  4,C   0,F   5)          178.86 -0.001001    2.40    181.26   
    21. A(H   1,C   0,H   2)          119.20 -0.000805    0.42    119.62   
    ----------------------------------------------------------------------------

Geometry step timings:
Preparation and reading OPT file:      0.000 s ( 2.502 %)
Internal coordinates            :      0.000 s ( 3.621 %)
B/P matrices and projection     :      0.000 s (11.060 %)
[...]
                  HL-Gap            0.3684365 Eh           10.0257 eV
             Fermi-level            0.0009645 Eh            0.0262 eV

 SCC (total)                   0 d,  0 h,  0 min,  0.202 sec
 SCC setup                      ...        0 min,  0.000 sec (  0.155%)
 Dispersion                     ...        0 min,  0.000 sec (  0.059%)
 classical contributions        ...        0 min,  0.000 sec (  0.045%)
 integral evaluation            ...        0 min,  0.199 sec ( 98.369%)
 iterations                     ...        0 min,  0.002 sec (  0.845%)
 molecular gradient             ...        0 min,  0.001 sec (  0.406%)
 printout                       ...        0 min,  0.000 sec (  0.107%)

         :::::::::::::::::::::::::::::::::::::::::::::::::::::
         ::                     SUMMARY                     ::
         :::::::::::::::::::::::::::::::::::::::::::::::::::::
         :: total energy             -13.191986998780 Eh    ::
         :: gradient norm              0.000240588131 Eh/a0 ::
         :: HOMO-LUMO gap             10.025667654725 eV    ::
         ::.................................................::
         :: SCC energy               -13.251505764211 Eh    ::
         :: -> isotropic ES            0.165399044829 Eh    ::
         :: -> anisotropic ES         -0.000794161609 Eh    ::
         :: -> anisotropic XC         -0.001561992388 Eh    ::
         :: -> dispersion             -0.001856087625 Eh    ::
         :: repulsion energy           0.059518765431 Eh    ::
         :: add. restraining           0.000000000000 Eh    ::
         :: total charge              -1.000000000000 e     ::
         :::::::::::::::::::::::::::::::::::::::::::::::::::::

           ------------------------------------------------- 
          |                Numerical Hessian                |
           ------------------------------------------------- 
step length          :   0.00500
SCC accuracy         :   0.30000
Hessian scale factor :   1.00000
frozen atoms in %    :   0.00000    0
RMS gradient         :   0.00024
estimated CPU  time      0.00 min
estimated wall time      0.00 min

writing file <hessian>.

 projected vibrational frequencies (cm⁻¹)
eigval :       -0.00    -0.00    -0.00     0.00     0.00     0.00
eigval :       78.36    78.54   108.83   996.49  1090.84  1091.07
eigval :     1377.19  1452.40  1452.44  3049.14  3053.94  3054.33

Property printout bound to 'properties.out'
Refinement of some symmetry elements was terminated before convergence was reached.
Some symmetry elements may remain unidentified.
Molecule has the following symmetry elements: (C3) 3*(sigma) 
It seems to be the C3v point group

           -------------------------------------------------
          | TOTAL ENERGY              -13.191986998780 Eh   |
          | TOTAL ENTHALPY            -13.147366021805 Eh   |
          | TOTAL FREE ENERGY         -13.181326473263 Eh   |
          | GRADIENT NORM               0.000240573483 Eh/α |
          | HOMO-LUMO GAP              10.025667404735 eV   |
           -------------------------------------------------

------------------------------------------------------------------------
 * finished run on 2026/03/16 at 14:16:30.748     
------------------------------------------------------------------------
 total:
 * wall-time:     0 d,  0 h,  0 min,  0.360 sec
 *  cpu-time:     0 d,  0 h,  0 min,  0.761 sec
 * ratio c/w:     2.112 speedup
 SCF:
 * wall-time:     0 d,  0 h,  0 min,  0.203 sec
 *  cpu-time:     0 d,  0 h,  0 min,  0.528 sec
 * ratio c/w:     2.605 speedup
 analytical hessian:
 * wall-time:     0 d,  0 h,  0 min,  0.019 sec
 *  cpu-time:     0 d,  0 h,  0 min,  0.125 sec
 * ratio c/w:     6.590 speedup


-------------------------   --------------------
FINAL SINGLE POINT ENERGY       -13.191986998780
-------------------------   --------------------


-------------
DIPOLE MOMENT
-------------
                                X             Y             Z
Total Dipole Moment    :     -0.10800       0.06200      -3.76400
                        -----------------------------------------
Magnitude (a.u.)       :      3.76606
Magnitude (Debye)      :      9.57256


-----------------------
VIBRATIONAL FREQUENCIES
-----------------------

Scaling factor for frequencies =  1.000000000  (already applied!)

     0:       0.00 cm**-1
     1:       0.00 cm**-1
     2:       0.00 cm**-1
     3:       0.00 cm**-1
     4:       0.00 cm**-1
     5:       0.00 cm**-1
     6:      78.35 cm**-1
     7:      78.53 cm**-1
     8:     108.83 cm**-1
     9:     996.48 cm**-1
    10:    1090.81 cm**-1
    11:    1091.05 cm**-1
    12:    1377.16 cm**-1
    13:    1452.36 cm**-1
    14:    1452.40 cm**-1
    15:    3049.05 cm**-1
    16:    3053.85 cm**-1
    17:    3054.24 cm**-1


------------
NORMAL MODES
------------

These modes are the Cartesian displacements weighted by the diagonal matrix
M(i,i)=1/sqrt(m[i]) where m[i] is the mass of the displaced atom
Thus, these vectors are normalized but *not* orthogonal

                  0          1          2          3          4          5    
      0       0.000000   0.000000   0.000000   0.000000   0.000000   0.000000
      1       0.000000   0.000000   0.000000   0.000000   0.000000   0.000000
      2       0.000000   0.000000   0.000000   0.000000   0.000000   0.000000
      3       0.000000   0.000000   0.000000   0.000000   0.000000   0.000000
      4       0.000000   0.000000   0.000000   0.000000   0.000000   0.000000
      5       0.000000   0.000000   0.000000   0.000000   0.000000   0.000000
      6       0.000000   0.000000   0.000000   0.000000   0.000000   0.000000
      7       0.000000   0.000000   0.000000   0.000000   0.000000   0.000000
      8       0.000000   0.000000   0.000000   0.000000   0.000000   0.000000
      9       0.000000   0.000000   0.000000   0.000000   0.000000   0.000000
     10       0.000000   0.000000   0.000000   0.000000   0.000000   0.000000
     11       0.000000   0.000000   0.000000   0.000000   0.000000   0.000000
     12       0.000000   0.000000   0.000000   0.000000   0.000000   0.000000
     13       0.000000   0.000000   0.000000   0.000000   0.000000   0.000000
     14       0.000000   0.000000   0.000000   0.000000   0.000000   0.000000
     15       0.000000   0.000000   0.000000   0.000000   0.000000   0.000000
     16       0.000000   0.000000   0.000000   0.000000   0.000000   0.000000
     17       0.000000   0.000000   0.000000   0.000000   0.000000   0.000000
                  6          7          8          9         10         11    
      0       0.293803   0.145237   0.013284  -0.018057   0.118750   0.068552
      1      -0.145103   0.294047  -0.006812   0.010314  -0.068488   0.118828
      2       0.012255  -0.000538  -0.413987   0.548883   0.004947   0.000028
      3       0.398614   0.212829   0.012901  -0.014495  -0.211426  -0.151243
      4      -0.201550   0.408426  -0.005148   0.017596   0.066531  -0.115717
      5       0.190372  -0.351821  -0.410817   0.416778  -0.383514   0.647772
      6       0.427704   0.197828   0.013670  -0.006134  -0.153734  -0.129593
      7      -0.213229   0.404559  -0.006748   0.003865   0.088564  -0.224570
      8      -0.372917   0.024466  -0.407712   0.420888   0.744318  -0.000343
      9       0.402675   0.196845   0.011926  -0.022661  -0.163261  -0.024462
     10      -0.192141   0.416818  -0.006800   0.003993   0.149652  -0.188874
     11       0.234387   0.324665  -0.409294   0.417065  -0.384113  -0.647238
     12      -0.048106  -0.023768  -0.013283  -0.000025  -0.000254  -0.000145
     13       0.023759  -0.048137   0.007530   0.000020   0.000146  -0.000251
     14      -0.001715  -0.000115   0.395178   0.000705  -0.000010  -0.000001
     15      -0.161184  -0.079701   0.014346   0.013760  -0.046565  -0.026871
     16       0.079602  -0.161324  -0.008753  -0.007908   0.026858  -0.046582
     17      -0.007298   0.000698  -0.410579  -0.414907  -0.001872  -0.000027
                 12         13         14         15         16         17    
      0      -0.003834   0.006018   0.064294  -0.005447   0.044088  -0.077739
      1       0.002163   0.064306  -0.006028   0.002999   0.077993   0.043949
      2       0.115979  -0.000934   0.002280   0.038551   0.000005  -0.005672
      3       0.017976  -0.058117  -0.737070   0.003722   0.029577  -0.035090
      4       0.191041   0.119797  -0.011366  -0.572251  -0.673017  -0.348326
      5      -0.540250  -0.320952   0.004891  -0.168271  -0.217151  -0.115058
      6       0.192771  -0.386149  -0.045158  -0.435294   0.028045   0.680321
      7      -0.110732  -0.553284  -0.330182   0.251370   0.035683  -0.393367
      8      -0.528193   0.129702  -0.283566  -0.178512   0.002534   0.305379
      9      -0.156890   0.358324  -0.133124   0.499132  -0.590934   0.295038
     10      -0.110714  -0.482264   0.427157   0.283692  -0.306119   0.210126
     11      -0.540760   0.204941   0.246351  -0.168877   0.214506  -0.118998
     12      -0.000007   0.000024   0.000248  -0.000002  -0.000027   0.000047
     13       0.000005   0.000250  -0.000023   0.000001  -0.000048  -0.000027
     14       0.000219  -0.000005   0.000009   0.000142   0.000000  -0.000006
     15      -0.000421   0.000711   0.007455  -0.000137   0.000473  -0.000829
     16       0.000237   0.007466  -0.000688   0.000076   0.000838   0.000469
     17       0.011648  -0.000127   0.000257   0.002721   0.000002  -0.000188


The first frequency considered to be a vibration is 6
The total number of vibrations considered is 12


--------------------------
THERMOCHEMISTRY AT 298.15K
--------------------------

Temperature         ...   298.15 K
Pressure            ...     1.00 atm
Total Mass          ...    69.49 AMU
Quasi RRHO          ...     True
Cut-Off Frequency   ...     1.00 cm^-1

Throughout the following assumptions are being made:
  (1) The electronic state is orbitally nondegenerate
  (2) There are no thermally accessible electronically excited states
  (3) Hindered rotations indicated by low frequency modes are not
      treated as such but are treated as vibrations and this may
      cause some error
  (4) All equations used are the standard statistical mechanics
      equations for an ideal gas
  (5) All vibrations are strictly harmonic

freq.      78.35  E(vib)   ...       0.49 
freq.      78.53  E(vib)   ...       0.49 
freq.     108.83  E(vib)   ...       0.45 
freq.     996.48  E(vib)   ...       0.02 
freq.    1090.81  E(vib)   ...       0.02 
freq.    1091.05  E(vib)   ...       0.02 
freq.    1377.16  E(vib)   ...       0.01 
freq.    1452.36  E(vib)   ...       0.00 
freq.    1452.40  E(vib)   ...       0.00 
freq.    3049.05  E(vib)   ...       0.00 
freq.    3053.85  E(vib)   ...       0.00 
freq.    3054.24  E(vib)   ...       0.00 

------------
INNER ENERGY
------------

The inner energy is: U= E(el) + E(ZPE) + E(vib) + E(rot) + E(trans)
    E(el)   - is the total energy from the electronic structure calculation
              = E(kin-el) + E(nuc-el) + E(el-el) + E(nuc-nuc)
    E(ZPE)  - the the zero temperature vibrational energy from the frequency calculation
    E(vib)  - the the finite temperature correction to E(ZPE) due to population
              of excited vibrational states
    E(rot)  - is the rotational thermal energy
    E(trans)- is the translational thermal energy

Summary of contributions to the inner energy U:
Electronic energy                ...    -13.19198700 Eh
Zero point energy                ...      0.03846260 Eh      24.14 kcal/mol
Thermal vibrational correction   ...      0.00238057 Eh       1.49 kcal/mol
Thermal rotational correction    ...      0.00141627 Eh       0.89 kcal/mol
Thermal translational correction ...      0.00141627 Eh       0.89 kcal/mol
-----------------------------------------------------------------------
Total thermal energy                    -13.14831129 Eh


Summary of corrections to the electronic energy:
(perhaps to be used in another calculation)
Total thermal correction                  0.00521311 Eh       3.27 kcal/mol
Non-thermal (ZPE) correction              0.03846260 Eh      24.14 kcal/mol
-----------------------------------------------------------------------
Total correction                          0.04367571 Eh      27.41 kcal/mol


--------
ENTHALPY
--------

The enthalpy is H = U + kB*T
                kB is Boltzmann's constant
Total thermal energy              ...    -13.14831129 Eh 
Thermal Enthalpy correction       ...      0.00094421 Eh       0.59 kcal/mol
-----------------------------------------------------------------------
Total Enthalpy                    ...    -13.14736708 Eh


WARNING (ORCA/SYM): The number of Z matrix atoms does not agree with
the number of centers in the basis set. The point group will therefore
be determined without considering basis set information.


Note: Rotational entropy computed according to Herzberg 
Infrared and Raman Spectra, Chapter V,1, Van Nostrand Reinhold, 1945 
Point Group:  Cs, Symmetry Number:   1  
Rotational constants in cm-1:     5.269397     0.062362     0.062362 

Vibrational entropy computed according to the QRRHO of S. Grimme
Chem.Eur.J. 2012 18 9955 using a reference frequency of 100.0 cm-1


-------
ENTROPY
-------

The entropy contributions are T*S = T*(S(el)+S(vib)+S(rot)+S(trans))
     S(el)   - electronic entropy
     S(vib)  - vibrational entropy
     S(rot)  - rotational entropy
     S(trans)- translational entropy
The entropies will be listed as multiplied by the temperature to get
units of energy

Electronic entropy                ...      0.00000000 Eh      0.00 kcal/mol
Vibrational entropy               ...      0.00474907 Eh      2.98 kcal/mol
Rotational entropy                ...      0.01134614 Eh      7.12 kcal/mol
Translational entropy             ...      0.01835566 Eh     11.52 kcal/mol
-----------------------------------------------------------------------
Final entropy term                ...      0.03445086 Eh     21.62 kcal/mol

In case the symmetry of your molecule has not been determined correctly
or in case you have a reason to use a different symmetry number we print 
out the resulting rotational entropy values for sn=1,12:

 non-linear molecules -----------------------------------
|  sn= 1 | S(rot)=       0.01134614 Eh      7.12 kcal/mol|
|  sn= 2 | S(rot)=       0.01069169 Eh      6.71 kcal/mol|
|  sn= 3 | S(rot)=       0.01030885 Eh      6.47 kcal/mol|
|  sn= 4 | S(rot)=       0.01003723 Eh      6.30 kcal/mol|
|  sn= 5 | S(rot)=       0.00982654 Eh      6.17 kcal/mol|
|  sn= 6 | S(rot)=       0.00965440 Eh      6.06 kcal/mol|
|  sn= 7 | S(rot)=       0.00950885 Eh      5.97 kcal/mol|
|  sn= 8 | S(rot)=       0.00938277 Eh      5.89 kcal/mol|
|  sn= 9 | S(rot)=       0.00927156 Eh      5.82 kcal/mol|
|  sn=10 | S(rot)=       0.00917208 Eh      5.76 kcal/mol|
|  sn=11 | S(rot)=       0.00908209 Eh      5.70 kcal/mol|
|  sn=12 | S(rot)=       0.00899994 Eh      5.65 kcal/mol|
 linear molecules ---------------------------------------
|  Dinfh | S(rot)=       0.00794571 Eh      4.99 kcal/mol|
|  Cinfv | S(rot)=       0.00860017 Eh      5.40 kcal/mol|
 --------------------------------------------------------


-------------------
GIBBS FREE ENERGY
-------------------

The Gibbs free energy is G = H - T*S

Total enthalpy                    ...    -13.14736708 Eh 
Total entropy correction          ...     -0.03445086 Eh    -21.62 kcal/mol
-----------------------------------------------------------------------
Final Gibbs free energy         ...    -13.18181794 Eh

For completeness - the Gibbs free energy minus the electronic energy
G-E(el)                           ...      0.01016906 Eh      6.38 kcal/mol


--------------------------------
SUGGESTED CITATIONS FOR THIS RUN
--------------------------------

Below you find a list of papers that are relevant to this ORCA run
We neither can nor want to force you to cite these papers, but we appreciate if you do
You receive ORCA, which is the product of decades of hard work by many enthusiastic individuals, for free
The only thing we kindly ask in return is that you cite our papers,
We deeply appreciate it, if you show your appreciation for ORCA by not just citing the generic ORCA reference.

Please note that relegating all ORCA citations to the supporting information does *not* help us.
SI sections are not indexed - citations you put there will not count into any citation statistics
But we need these citations in order to attract the funding resources that allow us to do what we are doing

Therefore, if you are a happy ORCA user, please consider citing a few of the papers listed below in the main body of your paper

In addition to the list printed below, the program has created the file reactant_optfreq.bibtex that contains the list in bibtex format
You can import this file easily into all common literature databanks and citation aid programs


List of essential papers. We consider these as the minimum necessary citations

  1. Bannwarth, C.; Ehlert, S.; Grimme, S.
     GFN2-xTB—An Accurate and Broadly Parametrized Self-Consistent Tight-Binding Quantum Chemical Method with Multipole Electrostatics and Density-Dependent Dispersion Contributions
     J. Chem. Theory Comput. 2019 15(3), 1652-1671
     doi.org/10.1021/acs.jctc.8b01176
  2. Neese, F.
     Software update: the ORCA program system, version 6.0
     WIRES Comput. Molec. Sci. 2025 15(1), e70019
     doi.org/10.1002/wcms.7019

List of papers to cite with high priority. The work reported in these papers was absolutely
necessary for this run to complete.
Our perspective: the developers of density functionals and basis sets usually get cited in chemistry papers
Good! But without the algorithms to do something with them, the functionals or basis sets would not do anything.
Hence, in our opinion, the algorithm design and method developments papers are equally worthy of getting cited

  1. Bykov, D.; Petrenko, T.; Izsak, R.; Kossmann, S.; Becker, U.; Valeev, E.; Neese, F.
     Efficient implementation of the analytic second derivatives of Hartree-Fock and hybrid DFT energies: a detailed analysis of different approximations
     Molec. Phys. 2015 113 , 1961-1977
     doi.org/10.1080/00268976.2015.1025114
  2. Bannwarth, C.; Caldeweyher, E.; Ehlert, S.; Hansen, A.; Pracht, P.; Seibert, J.; Spicher, S.; Grimme, S.
     Extended tight-binding quantum chemistry methods
     WIRES Comput. Molec. Sci. 2020 11(2), e1493
     doi.org/10.1002/wcms.1493

List of suggested additional citations. These are papers that are important in the 'surrounding' of 
of this run, or papers that preceded the highly important papers. If you like your results we are grateful for a citation.

  1. Neese, F.
     The ORCA program system
     WIRES Comput. Molec. Sci. 2012 2(1), 73-78
     doi.org/10.1002/wcms.81
  2. Neese, F.
     Software update: the ORCA program system, version 4.0
     WIRES Comput. Molec. Sci. 2018 8(1), 1-6
     doi.org/10.1002/wcms.1327
  3. Neese, F.; Wennmohs, F.; Becker, U.; Riplinger, C.
     The ORCA quantum chemistry program package
     J. Chem. Phys. 2020 152(22), 224108
     doi.org/10.1063/5.0004608
  4. Neese, F.
     Software update: The ORCA program system—Version 5.0
     WIRES Comput. Molec. Sci. 2022 12(1), e1606
     doi.org/10.1002/wcms.1606

List of optional additional citations

  1. Neese, F.
     Approximate second-order SCF convergence for spin unrestricted wavefunctions
     Chem. Phys. Lett. 2000 325(1-3), 93-98
     doi.org/10.1016/s0009-2614(00)00662-x

Timings for individual modules:

Sum of individual times          ...        4.253 sec (=   0.071 min)
Geometry relaxation              ...        0.120 sec (=   0.002 min)   2.8 %
XTB module                       ...        4.133 sec (=   0.069 min)  97.2 %
                             ****ORCA TERMINATED NORMALLY****
TOTAL RUN TIME: 0 days 0 hours 0 minutes 5 seconds 348 msec
