
                                 *****************
                                 * O   R   C   A *
                                 *****************

                                            #,                                       
                                            ###                                      
                                            ####                                     
                                            #####                                    
                                            ######                                   
                                           ########,                                 
                                     ,,################,,,,,                         
                               ,,#################################,,                 
                          ,,##########################################,,             
                       ,#########################################, ''#####,          
                    ,#############################################,,   '####,        
                  ,##################################################,,,,####,       
                ,###########''''           ''''###############################       
              ,#####''   ,,,,##########,,,,          '''####'''          '####       
            ,##' ,,,,###########################,,,                        '##       
           ' ,,###''''                  '''############,,,                           
         ,,##''                                '''############,,,,        ,,,,,,###''
      ,#''                                            '''#######################'''  
     '                                                          ''''####''''         
             ,#######,   #######,   ,#######,      ##                                
            ,#'     '#,  ##    ##  ,#'     '#,    #''#        ,####,    ,#,          
            ##       ##  ##   ,#'  ##            #'  '#       #'       ,# #          
            ##       ##  #######   ##           ,######,      #####,      #          
            '#,     ,#'  ##    ##  '#,     ,#' ,#      #,     #,   #      #          
             '#######'   ##     ##  '#######'  #'      '#     '####' #    #          



                #########################################################
                #                        -***-                          #
                #          Department of theory and spectroscopy        #
                #                                                       #
                #                      Frank Neese                      #
                #                                                       #
                #     Directorship, Architecture, Infrastructure        #
                #                    SHARK, DRIVERS                     #
                #        Core code/Algorithms in most modules           #
                #                                                       #
                #        Max Planck Institute fuer Kohlenforschung      #
                #                Kaiser Wilhelm Platz 1                 #
                #                 D-45470 Muelheim/Ruhr                 #
                #                      Germany                          #
                #                                                       #
                #                  All rights reserved                  #
                #                        -***-                          #
                #########################################################


                         Program Version 6.1.0  -  RELEASE   -
                                (GIT: $679e74b$)
                          ($2025-06-10 18:02:51 +0200$)


 With contributions from (in alphabetic order):
[Max-Planck-Institut fuer Kohlenforschung]                               
  Daniel Aravena         : Magnetic Suceptibility                        
  Michael Atanasov       : Ab Initio Ligand Field Theory (pilot matlab implementation)
  Alexander A. Auer      : GIAO ZORA, VPT2 properties, NMR spectrum      
  Ute Becker             : All parallelization in ORCA, NUMFREQ, NUMCALC 
  Giovanni Bistoni       : ED, misc. LED, open-shell LED, HFLD           
  Dmytro Bykov           : pre 5.0 version of the SCF Hessian            
  Marcos Casanova-Páez   : Triplet and SCS-CIS(D). UHF-(DLPNO)-IP/EA/STEOM-CCSD. UHF-CVS-IP/STEOM-CCSD   
  Vijay G. Chilkuri      : MRCI spin determinant printing, contributions to CSF-ICE 
  Pauline Colinet        : FMM embedding                                 
  Dipayan Datta          : RHF DLPNO-CCSD density                        
  Achintya Kumar Dutta   : EOM-CC, STEOM-CC                              
  Nicolas Foglia         : Exact transition moments, OPA infrastructure, MCD improvements    
  Dmitry Ganyushin       : Spin-Orbit,Spin-Spin,Magnetic field MRCI      
  Miquel Garcia-Rates    : C-PCM and meta-GGA Hessian, CCSD/C-PCM, Gaussian charge scheme 
  Tiago L. C. Gouveia    : GS-ROHF, GS-ROCIS                             
  Yang Guo               : DLPNO-NEVPT2, F12-NEVPT2, CIM, IAO-localization        
  Andreas Hansen         : Spin unrestricted coupled pair/coupled cluster methods 
  Ingolf Harden          : AUTO-CI MPn and infrastructure                
  Benjamin Helmich-Paris : MC-RPA, TRAH-(SCF,CASSCF), AVAS, COSX integrals, SCF dyn. polar., MC-PDFT, srDFT 
  Lee Huntington         : MR-EOM, pCC                                   
  Robert Izsak           : Overlap fitted RIJCOSX, COSX-SCS-MP3, EOM     
  Riya Kayal             : Wick's Theorem for AUTO-CI, AUTO-CI UHF-CCSDT 
  Emily Kempfer          : AUTO-CI RHF CISDT and CCSDT, approximate NEVPT4
  Christian Kollmar      : KDIIS, OOCD, Brueckner-CCSD(T), CCSD density, CASPT2, CASPT2-K, improved NEVPT2 
  Axel Koslowski         : Symmetry handling                             
  Simone Kossmann        : meta-GGA functionals, TD-DFT gradient, OOMP2, (MP2 Hessian; deprecated post 5.0) 
  Lucas Lang             : DCDCAS, Hyperfine gauge corrections, ICE-SOC+SSC
  Marvin Lechner         : AUTO-CI (C++ implementation), FIC-MRCC        
  Spencer Leger          : CASSCF response                               
  Dagmar Lenk            : GEPOL surface, SMD, ORCA-2-JSON               
  Dimitrios Liakos       : Extrapolation schemes; Compound Job, Property file
  Dimitrios Manganas     : Further ROCIS development; embedding schemes. LFT, Crystal Embedding 
  Dimitrios Pantazis     : SARC Basis sets                               
  Anastasios Papadopoulos: AUTO-CI, single reference methods and gradients 
  Taras Petrenko         : pre 6.0 DFT Hessian and TD-DFT gradient,  ECA, NRVS 
  Petra Pikulova         : Analytic Raman intensities                    
  Peter Pinski           : DLPNO-MP2, DLPNO-MP2 Gradient                 
  Shashank Vittal Rao    : ES-AILFT, MagRelax                            
  Christoph Reimann      : Effective Core Potentials                     
  Marius Retegan         : Local ZFS, SOC                                
  Christoph Riplinger    : Optimizer, TS searches, QM/MM, DLPNO-CCSD(T), (RO)-DLPNO pert. Triples 
  Michael Roemelt        : Original ROCIS implementation, recursive CI coupling coefficients
  Masaaki Saitow         : Open-shell DLPNO-CCSD energy and density      
  Barbara Sandhoefer     : DKH picture change effects                    
  Yorick L. A. Schmerwitz: GMF and freeze-and-release deltaSCF, NEB S-IDPP initial path                    
  Kantharuban Sivalingam : CASSCF convergence/infrastructure, NEVPT2, NEVPT3, NEVPT4(SD), FIC-MRCI and CEPA variants
  Bernardo de Souza      : ESD, SOC TD-DFT                               
  Georgi L. Stoychev     : AutoAux, RI-MP2 NMR, DLPNO-MP2 response, X2C  
  Van Anh Tran           : RI-MP2 g-tensors                              
  Willem Van den Heuvel  : Paramagnetic NMR                              
  Zikuan Wang            : NOTCH, Electric field optimization            
  Frank Wennmohs         : Technical directorship and infrastructure     
  Hang Xu                : AUTO-CI-Response properties                   
                                                                         
[FACCTs GmbH]                                                            
  Markus Bursch, Nicolas Foglia, Miquel Garcia-Rates, Ingolf Harden, Hagen Neugebauer, Anastasios Papadopoulos, 
  Christoph Riplinger, Bernardo de Souza, Georgi L. Stoychev                                                    
                                                                 
  APM, various basis sets, CI-OPT, improved COSX, DLPNO-Multilevel,           
  DOCKER, DRACO, updates on ESD, Fragmentator, GOAT, IRC, LR-CPCM, L-BFGS, MBIS, meta-GGA TD-DFT gradient, ML-optimized integration grids, 
  MM, NACMEs, nearIR, NEB, NEB-TS, NL-DFT gradient (VV10), 2- and 3-layer-ONIOM, interface openCOSMO-RS, QMMM,   
  Crystal-QMMM, RESP, rigid body optimization, SF, symmetry and pop. for TD-DFT, various functionals, SOLVATOR                                   
                                                                         
[Other institutions]                                                     
  V. Asgeirsson          : NEB                                           
  Christoph Bannwarth    : sTDA-DFT, sTD-DFT, PBEh-3c, B97-3c, D3        
  Giovanni Bistoni       : ETS/NOCV, ADLD/ADEX, COVALED                  
  Martin Brehm           : Molecular dynamics                            
  Ronald Cardenas        : ETS/NOCV                                      
  Martina Colucci        : COVALED                                       
  Sebastian Ehlert       : rSCAN, r2SCAN, r2SCAN-3c, D4, dhf basis sets  
  Marvin Friede          : D4 for Fr, Ra, Ac-Lr                          
  Lars Goerigk           : TD-DFT with DH, B97 family of functionals     
  Stefan Grimme          : VdW corrections, initial TS optimization, DFT functionals, gCP, sTDA/sTD-DF 
  Waldemar Hujo          : DFT-NL                                        
  H. Jonsson             : NEB                                           
  Holger Kruse           : gCP                                           
  Marcel Mueller         : wB97X-3c, vDZP basis set                      
  Hagen Neugebauer       : wr2SCAN, Native XTB                           
  Gianluca Regni         : ADLD/ADEX                                     
  Tobias Risthaus        : pre 6.0 range-separated hybrid DFT and stability analysis
  Lukas Wittmann         : regularized MP2, r2SCAN double-hybrids, wr2SCAN        
                                                                         
We gratefully acknowledge several colleagues who have allowed us to      
interface, adapt or use parts of their codes:                            
  Ed Valeev, F. Pavosevic, A. Kumar             : LibInt (2-el integral package), F12 methods 
  Garnet Chan, S. Sharma, J. Yang, R. Olivares  : DMRG                   
  Ulf Ekstrom                                   : XCFun DFT Library      
  Mihaly Kallay                                 : mrcc  (arbitrary order and MRCC methods)
  Frank Weinhold                                : gennbo (NPA and NBO analysis)           
  Simon Mueller                                 : openCOSMO-RS                            
  Christopher J. Cramer and Donald G. Truhlar   : smd solvation model                     
  S Lehtola, MJT Oliveira, MAL Marques          : LibXC Library                           
  Liviu Ungur et al                             : ANISO software                          


 Your calculation uses the libint2 library for the computation of 2-el integrals
 For citations please refer to: http://libint.valeyev.net

 Your ORCA version has been built with support for libXC version: 7.0.0
 For citations please refer to: https://libxc.gitlab.io

 This ORCA versions uses:
   CBLAS   interface :  Fast vector & matrix operations
   LAPACKE interface :  Fast linear algebra routines
   SCALAPACK package :  Parallel linear algebra routines
   Shared memory     :  Shared parallel matrices
   BLAS/LAPACK       :  OpenBLAS 0.3.29  USE64BITINT DYNAMIC_ARCH NO_AFFINITY SkylakeX SINGLE_THREADED
        Core in use  :  SkylakeX
   Copyright (c) 2011-2014, The OpenBLAS Project


  ***********************************
  * Starting time: Thu Mar 12 12:46:41 2026
  * Host name:     midway3-login4.rcc.local
  * Process ID:    2790691
  * Working dir.:  /home/rzhu16/orca_TS_search/sn2_cl_f/geo_opt_reactant_product
  ***********************************

Your calculation utilizes the semiempirical GFN2-xTB method
Please cite in your paper:
Bannwarth, C.; Ehlert S.; Grimme, S. J. Chem. Theory Comput. 2019, 15, 1652.
   

================================================================================

================================================================================
                                        WARNINGS
                       Please study these warnings very carefully!
================================================================================


WARNING: Analytical Hessian for XTB is limited in the analysis of the data.
       : If you want to obtain extensive IR and deltaG analysis, please use ! XTB NumFreq. 


WARNING: Geometry Optimization
  ===> : Switching off AutoStart
         For restart on a previous wavefunction, please use MOREAD

WARNING: Found dipole moment calculation with XTB calculation
  ===> : Switching off dipole moment calculation


WARNING: Found frequency calculation in combination with XTB calculation
  ===> : Need to redirect dipole moment calculation to properties.out


================================================================================
                                       INPUT FILE
================================================================================
NAME = reactant_optfreq.inp
|  1> ! XTB2 Opt Freq PAL8
|  2> 
|  3> * xyz -1 1
|  4>   C      -0.327140      0.191498      0.331640
|  5>   H      -0.422213      1.273864      0.295509
|  6>   H       0.284691     -0.158307     -0.546623
|  7>   H      -1.309069     -0.273406      0.292821
|  8>   Cl      0.373726     -0.212925      1.912330
|  9>   F       0.634156     -0.361820     -2.133062
| 10> *
| 11> 
| 12>                          ****END OF INPUT****
================================================================================

                       *****************************
                       * Geometry Optimization Run *
                       *****************************

Geometry optimization settings:
Update method            Update   .... BFGS
Choice of coordinates    CoordSys .... (2022) Redundant Internals
Initial Hessian          InHess   .... Almloef's Model
Max. no of cycles        MaxIter  .... 50

Convergence Tolerances:
Energy Change            TolE     ....  5.0000e-06 Eh
Max. Gradient            TolMAXG  ....  3.0000e-04 Eh/bohr
RMS Gradient             TolRMSG  ....  1.0000e-04 Eh/bohr
Max. Displacement        TolMAXD  ....  4.0000e-03 bohr
RMS Displacement         TolRMSD  ....  2.0000e-03 bohr
Strict Convergence                .... False

------------------------------------------------------------------------------
                        ORCA OPTIMIZATION COORDINATE SETUP
------------------------------------------------------------------------------

The optimization will be done in redundant internal coordinates (2022)
Making redundant internal coordinates   ...  (2022 redundants) done
Evaluating the initial hessian          ...  (Almloef) done
Evaluating the coordinates              ...  done
Calculating the B-matrix                .... done
Calculating the G-matrix                .... done
The number of degrees of freedom        ....   16

    -----------------------------------------------------------------
                    Redundant Internal Coordinates


    -----------------------------------------------------------------
         Definition                    Initial Value    Approx d2E/dq
    -----------------------------------------------------------------
      1. B(H   1,C   0)                  1.0871         0.363911   
      2. B(H   2,C   0)                  1.1261         0.315404   
      3. B(H   3,C   0)                  1.0871         0.363932   
      4. B(Cl  4,H   2)                  2.4612         0.010000   
      5. B(Cl  4,C   0)                  1.7758         0.339834   
      6. B(F   5,H   2)                  1.6372         0.040149   
      7. A(H   1,C   0,H   3)          110.2181         0.291806   
      8. A(H   1,C   0,H   2)          109.3218         0.285342   
      9. A(H   1,C   0,Cl  4)          106.9087         0.333199   
     10. A(H   2,C   0,Cl  4)          114.1459         0.325418   
     11. A(H   3,C   0,Cl  4)          106.9109         0.333202   
     12. A(H   2,C   0,H   3)          109.2726         0.285345   
     13. A(C   0,H   2,F   5)          155.5546         0.205888   
     14. D(F   5,H   2,C   0,H   3)     59.9803         0.096186   
     15. D(F   5,H   2,C   0,Cl  4)    179.6135         0.096186   
     16. D(F   5,H   2,C   0,H   1)    -60.7210         0.096186   
    -----------------------------------------------------------------

Number of atoms                         .... 6
Number of degrees of freedom            .... 16


         *************************************************************
         *                GEOMETRY OPTIMIZATION CYCLE   1            *
         *************************************************************
---------------------------------
CARTESIAN COORDINATES (ANGSTROEM)
---------------------------------
  C    -0.327140    0.191498    0.331640
  H    -0.422213    1.273864    0.295509
  H     0.284691   -0.158307   -0.546623
  H    -1.309069   -0.273406    0.292821
  Cl    0.373726   -0.212925    1.912330
  F     0.634156   -0.361820   -2.133062

----------------------------
CARTESIAN COORDINATES (A.U.)
----------------------------
  NO LB    ZA    FRAG    MASS        X           Y           Z
   0 C   6.0000    0    12.011   -0.618205    0.361879    0.626709
   1 H   1.0000    0     1.008   -0.797867    2.407254    0.558431
   2 H   1.0000    0     1.008    0.537988   -0.299157   -1.032968
   3 H   1.0000    0     1.008   -2.473782   -0.516662    0.553351
   4 Cl 17.0000    0    35.453    0.706240   -0.402370    3.613780
   5 F   9.0000    0    18.998    1.198381   -0.683741   -4.030903

      -----------------------------------------------------------      
     |                   =====================                   |     
     |                           x T B                           |     
     |                   =====================                   |     
     |                         S. Grimme                         |     
     |          Mulliken Center for Theoretical Chemistry        |     
     |                    University of Bonn                     |     
      -----------------------------------------------------------      

   * xtb version 6.7.1 (edcfbbe) compiled by 'albert@albert-system' on 2024-07-22

   xtb is free software: you can redistribute it and/or modify it under
   the terms of the GNU Lesser General Public License as published by
   the Free Software Foundation, either version 3 of the License, or
   (at your option) any later version.
   
   xtb is distributed in the hope that it will be useful,
   but WITHOUT ANY WARRANTY; without even the implied warranty of
   MERCHANTABILITY or FITNESS FOR A PARTICULAR PURPOSE.  See the
   GNU Lesser General Public License for more details.
   
   Cite this work as:
   * C. Bannwarth, E. Caldeweyher, S. Ehlert, A. Hansen, P. Pracht,
     J. Seibert, S. Spicher, S. Grimme, WIREs Comput. Mol. Sci., 2020, 11,
     e01493. DOI: 10.1002/wcms.1493
   
   for GFN2-xTB:
   * C. Bannwarth, S. Ehlert and S. Grimme., J. Chem. Theory Comput., 2019,
     15, 1652-1671. DOI: 10.1021/acs.jctc.8b01176
   for GFN1-xTB:
   * S. Grimme, C. Bannwarth, P. Shushkov, J. Chem. Theory Comput., 2017,
     13, 1989-2009. DOI: 10.1021/acs.jctc.7b00118
   for GFN0-xTB:
   * P. Pracht, E. Caldeweyher, S. Ehlert, S. Grimme, ChemRxiv, 2019, preprint.
     DOI: 10.26434/chemrxiv.8326202.v1
   for GFN-FF:
   * S. Spicher and S. Grimme, Angew. Chem. Int. Ed., 2020, 59, 15665-15673.
     DOI: 10.1002/anie.202004239
   
   for ALPB and GBSA implicit solvation:
   * S. Ehlert, M. Stahn, S. Spicher, S. Grimme, J. Chem. Theory Comput.,
     2021, 17, 4250-4261. DOI: 10.1021/acs.jctc.1c00471
   
   for ddCOSMO and CPCM-X implicit solvation:
   * M. Stahn, S. Ehlert, S. Grimme, J. Phys. Chem. A,
     2023, XX, XXXX-XXXX. DOI: 10.1021/acs.jpca.3c04382
   
   for DFT-D4:
   * E. Caldeweyher, C. Bannwarth and S. Grimme, J. Chem. Phys., 2017,
     147, 034112. DOI: 10.1063/1.4993215
   * E. Caldeweyher, S. Ehlert, A. Hansen, H. Neugebauer, S. Spicher,
     C. Bannwarth and S. Grimme, J. Chem. Phys., 2019, 150, 154122.
     DOI: 10.1063/1.5090222
   * E. Caldeweyher, J.-M. Mewes, S. Ehlert and S. Grimme, Phys. Chem. Chem. Phys.
     2020, 22, 8499-8512. DOI: 10.1039/D0CP00502A
   
   for sTDA-xTB:
   * S. Grimme and C. Bannwarth, J. Chem. Phys., 2016, 145, 054103.
     DOI: 10.1063/1.4959605
   
   in the mass-spec context:
   * V. Asgeirsson, C. Bauer and S. Grimme, Chem. Sci., 2017, 8, 4879.
     DOI: 10.1039/c7sc00601b
   * J. Koopman and S. Grimme, ACS Omega 2019, 4, 12, 15120-15133.
     DOI: 10.1021/acsomega.9b02011
   
   for metadynamics refer to:
   * S. Grimme, J. Chem. Theory Comput., 2019, 155, 2847-2862
     DOI: 10.1021/acs.jctc.9b00143
   
   for SPH calculations refer to:
   * S. Spicher and S. Grimme, J. Chem. Theory Comput., 2021, 17, 1701-1714
     DOI: 10.1021/acs.jctc.0c01306
   
   for ONIOM refer to:
   * C. Plett, A. Katbashev, S. Ehlert, S. Grimme, M. Bursch,
     Phys. Chem. Chem. Phys., 2023, 25, 17860-17868. DOI: 10.1039/D3CP02178E
   
   for DIPRO refer to:
   * J. Kohn, N. Gildemeister, S. Grimme, D. Fazzi, A. Hansen,
     J. Chem. Phys., 2023, just accepted.
   
   for PTB refer to:
   * S. Grimme, M. Mueller, A. Hansen, J. Chem. Phys., 2023, 158, 124111.
     DOI: 10.1063/5.0137838
   
   with help from (in alphabetical order)
   P. Atkinson, C. Bannwarth, F. Bohle, G. Brandenburg, E. Caldeweyher
   M. Checinski, S. Dohm, S. Ehlert, S. Ehrlich, I. Gerasimov, C. Hölzer
   A. Katbashev, J. Kohn, J. Koopman, C. Lavigne, S. Lehtola, F. März, M. Müller,
   F. Musil, H. Neugebauer, J. Pisarek, C. Plett, P. Pracht, F. Pultar,
   J. Seibert, P. Shushkov, S. Spicher, M. Stahn, M. Steiner, T. Strunk,
   J. Stückrath, T. Rose, and J. Unsleber
   
 * started run on 2026/03/12 at 12:46:46.131     
   ID    Z sym.   atoms
    1    6 C      1
    2    1 H      2-4
    3   17 Cl     5
    4    9 F      6

           -------------------------------------------------
          |                Calculation Setup                |
           -------------------------------------------------

          program call               : /software/orca-6.1.0-el8-x86_64/bin/otool_xtb reactant_optfreq_XTB.xyz --grad -c -1 -u 0 -P 8 --namespace reactant_optfreq --input reactant_optfreq_XTB.input.tmp --acc 0.200000
          hostname                   : midway3-login4.rcc.local
          calculation namespace      : reactant_optfreq
          coordinate file            : reactant_optfreq_XTB.xyz
          omp threads                :                     8


molecular fragmentation (1/2 indicates fragments):
111112
# atoms in fragment 1/2:     5     1
 fragment masses (1/2) :       50.49       19.00
CMA distance (Bohr)    :   6.800
constraining FC (au)   :  0.0500

           -------------------------------------------------
          |                 G F N 2 - x T B                 |
           -------------------------------------------------

        Reference                      10.1021/acs.jctc.8b01176
      * Hamiltonian:
        H0-scaling (s, p, d)           1.850000    2.230000    2.230000
        zeta-weighting                 0.500000
      * Dispersion:
        s8                             2.700000
        a1                             0.520000
        a2                             5.000000
        s9                             5.000000
      * Repulsion:
        kExp                           1.500000    1.000000
        rExp                           1.000000
      * Coulomb:
        alpha                          2.000000
        third order                    shell-resolved
        anisotropic                    true
        a3                             3.000000
        a5                             4.000000
        cn-shift                       1.200000
        cn-exp                         4.000000
        max-rad                        5.000000


          ...................................................
          :                      SETUP                      :
          :.................................................:
          :  # basis functions                  21          :
          :  # atomic orbitals                  20          :
          :  # shells                           10          :
          :  # electrons                        22          :
          :  max. iterations                   250          :
          :  Hamiltonian                  GFN2-xTB          :
          :  restarted?                      false          :
          :  GBSA solvation                  false          :
          :  PC potential                    false          :
          :  electronic temp.          300.0000000     K    :
          :  accuracy                    0.2000000          :
          :  -> integral cutoff          0.3198970E+02      :
          :  -> integral neglect         0.2000000E-08      :
          :  -> SCF convergence          0.2000000E-06 Eh   :
          :  -> wf. convergence          0.2000000E-04 e    :
          :  Broyden damping             0.4000000          :
          :  net charge                         -1          :
          :  unpaired electrons                  0          :
          ...................................................

 iter      E             dE          RMSdq      gap      omega  full diag
   1    -13.1420553 -0.131421E+02  0.518E+00    5.39       0.0  T
   2    -13.1950685 -0.530132E-01  0.275E+00    3.38       1.0  T
   3    -13.1964629 -0.139438E-02  0.149E+00    2.97       1.0  T
   4    -13.1969882 -0.525317E-03  0.372E-01    2.41       1.0  T
   5    -13.1971776 -0.189378E-03  0.220E-01    2.56       1.0  T
   6    -13.1972856 -0.107958E-03  0.152E-01    2.47       1.0  T
   7    -13.1973625 -0.769761E-04  0.307E-02    2.44       1.3  T
   8    -13.1973637 -0.115709E-05  0.141E-02    2.43       2.9  T
   9    -13.1973641 -0.359255E-06  0.851E-03    2.43       4.8  T
  10    -13.1973642 -0.169593E-06  0.240E-03    2.43      17.0  T
  11    -13.1973642 -0.566212E-08  0.535E-04    2.43      76.3  T
  12    -13.1973642 -0.611747E-09  0.144E-04    2.43     284.3  T
  13    -13.1973642 -0.374438E-10  0.174E-05    2.43    2343.5  T

   *** convergence criteria satisfied after 13 iterations ***

         #    Occupation            Energy/Eh            Energy/eV
      -------------------------------------------------------------
         1        2.0000           -0.9102109             -24.7681
       ...           ...                  ...                  ...
         5        2.0000           -0.3425396              -9.3210
         6        2.0000           -0.3197962              -8.7021
         7        2.0000           -0.2683473              -7.3021
         8        2.0000           -0.2605289              -7.0894
         9        2.0000           -0.0961516              -2.6164
        10        2.0000           -0.0932682              -2.5380
        11        2.0000           -0.0932540              -2.5376 (HOMO)
        12                         -0.0040129              -0.1092 (LUMO)
        13                          0.1725599               4.6956
        14                          0.1725709               4.6959
        15                          0.1753171               4.7706
        16                          0.1765434               4.8040
       ...                                ...                  ...
        20                          0.4061323              11.0514
      -------------------------------------------------------------
                  HL-Gap            0.0892411 Eh            2.4284 eV
             Fermi-level           -0.0486334 Eh           -1.3234 eV

 SCC (total)                   0 d,  0 h,  0 min,  0.092 sec
 SCC setup                      ...        0 min,  0.000 sec (  0.328%)
 Dispersion                     ...        0 min,  0.000 sec (  0.083%)
 classical contributions        ...        0 min,  0.000 sec (  0.049%)
 integral evaluation            ...        0 min,  0.089 sec ( 96.582%)
 iterations                     ...        0 min,  0.002 sec (  2.241%)
 molecular gradient             ...        0 min,  0.000 sec (  0.535%)
 printout                       ...        0 min,  0.000 sec (  0.154%)

         :::::::::::::::::::::::::::::::::::::::::::::::::::::
         ::                     SUMMARY                     ::
         :::::::::::::::::::::::::::::::::::::::::::::::::::::
         :: total energy             -13.146076775757 Eh    ::
         :: gradient norm              0.002066869453 Eh/a0 ::
         :: HOMO-LUMO gap              2.428375240055 eV    ::
         ::.................................................::
         :: SCC energy               -13.197364039916 Eh    ::
         :: -> isotropic ES            0.235803959696 Eh    ::
         :: -> anisotropic ES         -0.001472695295 Eh    ::
         :: -> anisotropic XC         -0.001280228504 Eh    ::
         :: -> dispersion             -0.002094733149 Eh    ::
         :: repulsion energy           0.051287264158 Eh    ::
         :: add. restraining           0.000000000000 Eh    ::
         :: total charge              -1.000000000000 e     ::
         :::::::::::::::::::::::::::::::::::::::::::::::::::::


Property printout bound to 'properties.out'

           -------------------------------------------------
          | TOTAL ENERGY              -13.146076775757 Eh   |
          | GRADIENT NORM               0.002066869453 Eh/α |
          | HOMO-LUMO GAP               2.428375240055 eV   |
           -------------------------------------------------

------------------------------------------------------------------------
 * finished run on 2026/03/12 at 12:46:46.260     
------------------------------------------------------------------------
 total:
 * wall-time:     0 d,  0 h,  0 min,  0.129 sec
 *  cpu-time:     0 d,  0 h,  0 min,  0.487 sec
 * ratio c/w:     3.774 speedup
 SCF:
 * wall-time:     0 d,  0 h,  0 min,  0.093 sec
 *  cpu-time:     0 d,  0 h,  0 min,  0.371 sec
 * ratio c/w:     4.002 speedup


-------------------------   --------------------
FINAL SINGLE POINT ENERGY       -13.146076775760
-------------------------   --------------------


-------------
DIPOLE MOMENT
-------------
                                X             Y             Z
Total Dipole Moment    :     -1.39000       0.79500       2.14100
                        -----------------------------------------
Magnitude (a.u.)       :      2.67358
Magnitude (Debye)      :      6.79569


------------------
CARTESIAN GRADIENT
------------------

   1   C   :    0.000345214   -0.000191455    0.000183359
   2   H   :    0.000330516   -0.000151158   -0.000404313
   3   H   :    0.000722442   -0.000389681    0.000445212
   4   H   :    0.000318402   -0.000218763   -0.000431468
   5   Cl  :   -0.000693012    0.000389304    0.000634179
   6   F   :   -0.001023561    0.000561753   -0.000426969

Difference to translation invariance:
           :    0.0000000000    0.0000000000   -0.0000000000

Difference to rotation invariance:
           :    0.0000000050    0.0000000082    0.0000000000

Norm of the Cartesian gradient     ...    0.0020668695
RMS gradient                       ...    0.0004871658
MAX gradient                       ...    0.0010235612
------------------------------------------------------------------------------
                         ORCA GEOMETRY RELAXATION STEP
------------------------------------------------------------------------------

Reading the OPT-File                    .... done
Getting information on internals        .... done
Copying old internal coords+grads       .... done
Making the new internal coordinates     .... (2022 redundants) done
Validating the new internal coordinates .... (2022 redundants) done
Calculating the B-matrix                .... done
Calculating the G,G- and P matrices     .... done
Transforming gradient to internals      .... done
Projecting the internal gradient        .... done
Number of atoms                         ....   6
Number of internal coordinates          ....  16
Current Energy                          ....   -13.146076776 Eh
Current gradient norm                   ....     0.002066869 Eh/bohr
Maximum allowed component of the step   ....  0.300
Current trust radius                    ....  0.300
Evaluating the initial hessian          ....  (Almloef) done
Projecting the Hessian                  .... done
Forming the augmented Hessian           .... done
Diagonalizing the augmented Hessian     .... done
Last element of RFO vector              ....  0.999686175
Lowest eigenvalues of augmented Hessian:
 -0.000110586  0.040149263  0.088583311  0.096186001  0.205959278
Length of the computed step             ....  0.025058831
The final length of the internal step   ....  0.025058831
Converting the step to Cartesian space:
 Initial RMS(Int)=    0.0062647077
Transforming coordinates:
 Iter   0:  RMS(Cart)=    0.0128767813 RMS(Int)=    0.0062362756
done
Storing new coordinates                 .... done

                                .--------------------.
          ----------------------|Geometry convergence|-------------------------
          Item                value                   Tolerance       Converged
          ---------------------------------------------------------------------
          RMS gradient        0.0011925226            0.0001000000      NO
          MAX gradient        0.0038263224            0.0003000000      NO
          RMS step            0.0062647077            0.0020000000      NO
          MAX step            0.0185744890            0.0040000000      NO
          -------------------------------------------------------------------------
          ........................................................
          Max(Bonds)      0.0064      Max(Angles)    1.06
          Max(Dihed)        0.13      Max(Improp)    0.00
          ---------------------------------------------------------------------

The optimization has not yet converged - more geometry cycles are needed


    ---------------------------------------------------------------------------
                         Redundant Internal Coordinates
                            (Angstroem and degrees)

        Definition                    Value    dE/dq     Step     New-Value
    ----------------------------------------------------------------------------
     1. B(H   1,C   0)                1.0871 -0.000166  0.0002    1.0874   
     2. B(H   2,C   0)                1.1261 -0.001015  0.0005    1.1266   
     3. B(H   3,C   0)                1.0871 -0.000179  0.0003    1.0874   
     4. B(Cl  4,H   2)                2.4612  0.001041 -0.0064    2.4548   
     5. B(Cl  4,C   0)                1.7758 -0.000743 -0.0001    1.7756   
     6. B(F   5,H   2)                1.6372  0.000125 -0.0016    1.6355   
     7. A(H   1,C   0,H   3)          110.22  0.000406   -0.03    110.19   
     8. A(H   1,C   0,H   2)          109.32 -0.000920    0.22    109.55   
     9. A(H   1,C   0,Cl  4)          106.91 -0.000114    0.04    106.95   
    10. A(H   2,C   0,Cl  4)          114.15  0.001770   -0.52    113.63   
    11. A(H   3,C   0,Cl  4)          106.91 -0.000112    0.04    106.95   
    12. A(H   2,C   0,H   3)          109.27 -0.000987    0.24    109.51   
    13. A(C   0,H   2,F   5)          155.55 -0.003826    1.06    156.62   
    14. D(F   5,H   2,C   0,H   3)     59.98 -0.000337    0.13     60.11   
    15. D(F   5,H   2,C   0,Cl  4)    179.61 -0.000022    0.01    179.62   
    16. D(F   5,H   2,C   0,H   1)    -60.72  0.000340   -0.12    -60.84   
    ----------------------------------------------------------------------------

Geometry step timings:
Preparation and reading OPT file:      0.000 s ( 2.138 %)
Internal coordinates            :      0.000 s ( 2.624 %)
B/P matrices and projection     :      0.000 s ( 7.823 %)
Hessian update/contruction      :      0.001 s (49.125 %)
Making the step                 :      0.000 s ( 8.455 %)
Converting the step to Cartesian:      0.000 s ( 3.013 %)
Storing new data                :      0.000 s ( 5.782 %)
Checking convergence            :      0.000 s ( 4.227 %)
Final printing                  :      0.000 s (16.667 %)
Total time                      :      0.002 s

Time for energy+gradient        :      0.143 s
Time for complete geometry iter :      0.148 s

         *************************************************************
         *                GEOMETRY OPTIMIZATION CYCLE   2            *
         *************************************************************
---------------------------------
CARTESIAN COORDINATES (ANGSTROEM)
---------------------------------
  C    -0.332590    0.194546    0.330492
  H    -0.428143    1.277310    0.300866
  H     0.277424   -0.154232   -0.550142
  H    -1.315247   -0.269939    0.298372
  Cl    0.384375   -0.218976    1.901424
  F     0.648333   -0.369805   -2.128398

----------------------------
CARTESIAN COORDINATES (A.U.)
----------------------------
  NO LB    ZA    FRAG    MASS        X           Y           Z
   0 C   6.0000    0    12.011   -0.628505    0.367639    0.624539
   1 H   1.0000    0     1.008   -0.809073    2.413766    0.568555
   2 H   1.0000    0     1.008    0.524255   -0.291455   -1.039617
   3 H   1.0000    0     1.008   -2.485456   -0.510111    0.563842
   4 Cl 17.0000    0    35.453    0.726363   -0.413804    3.593171
   5 F   9.0000    0    18.998    1.225171   -0.698830   -4.022089

      -----------------------------------------------------------      
     |                   =====================                   |     
     |                           x T B                           |     
     |                   =====================                   |     
     |                         S. Grimme                         |     
     |          Mulliken Center for Theoretical Chemistry        |     
     |                    University of Bonn                     |     
      -----------------------------------------------------------      

   * xtb version 6.7.1 (edcfbbe) compiled by 'albert@albert-system' on 2024-07-22

   xtb is free software: you can redistribute it and/or modify it under
   the terms of the GNU Lesser General Public License as published by
   the Free Software Foundation, either version 3 of the License, or
   (at your option) any later version.
   
   xtb is distributed in the hope that it will be useful,
   but WITHOUT ANY WARRANTY; without even the implied warranty of
   MERCHANTABILITY or FITNESS FOR A PARTICULAR PURPOSE.  See the
   GNU Lesser General Public License for more details.
   
   Cite this work as:
   * C. Bannwarth, E. Caldeweyher, S. Ehlert, A. Hansen, P. Pracht,
     J. Seibert, S. Spicher, S. Grimme, WIREs Comput. Mol. Sci., 2020, 11,
     e01493. DOI: 10.1002/wcms.1493
   
   for GFN2-xTB:
   * C. Bannwarth, S. Ehlert and S. Grimme., J. Chem. Theory Comput., 2019,
     15, 1652-1671. DOI: 10.1021/acs.jctc.8b01176
   for GFN1-xTB:
   * S. Grimme, C. Bannwarth, P. Shushkov, J. Chem. Theory Comput., 2017,
     13, 1989-2009. DOI: 10.1021/acs.jctc.7b00118
   for GFN0-xTB:
   * P. Pracht, E. Caldeweyher, S. Ehlert, S. Grimme, ChemRxiv, 2019, preprint.
     DOI: 10.26434/chemrxiv.8326202.v1
   for GFN-FF:
   * S. Spicher and S. Grimme, Angew. Chem. Int. Ed., 2020, 59, 15665-15673.
     DOI: 10.1002/anie.202004239
   
   for ALPB and GBSA implicit solvation:
   * S. Ehlert, M. Stahn, S. Spicher, S. Grimme, J. Chem. Theory Comput.,
     2021, 17, 4250-4261. DOI: 10.1021/acs.jctc.1c00471
   
   for ddCOSMO and CPCM-X implicit solvation:
   * M. Stahn, S. Ehlert, S. Grimme, J. Phys. Chem. A,
     2023, XX, XXXX-XXXX. DOI: 10.1021/acs.jpca.3c04382
   
   for DFT-D4:
   * E. Caldeweyher, C. Bannwarth and S. Grimme, J. Chem. Phys., 2017,
     147, 034112. DOI: 10.1063/1.4993215
   * E. Caldeweyher, S. Ehlert, A. Hansen, H. Neugebauer, S. Spicher,
     C. Bannwarth and S. Grimme, J. Chem. Phys., 2019, 150, 154122.
     DOI: 10.1063/1.5090222
   * E. Caldeweyher, J.-M. Mewes, S. Ehlert and S. Grimme, Phys. Chem. Chem. Phys.
     2020, 22, 8499-8512. DOI: 10.1039/D0CP00502A
   
   for sTDA-xTB:
   * S. Grimme and C. Bannwarth, J. Chem. Phys., 2016, 145, 054103.
     DOI: 10.1063/1.4959605
   
   in the mass-spec context:
   * V. Asgeirsson, C. Bauer and S. Grimme, Chem. Sci., 2017, 8, 4879.
     DOI: 10.1039/c7sc00601b
   * J. Koopman and S. Grimme, ACS Omega 2019, 4, 12, 15120-15133.
     DOI: 10.1021/acsomega.9b02011
   
   for metadynamics refer to:
   * S. Grimme, J. Chem. Theory Comput., 2019, 155, 2847-2862
     DOI: 10.1021/acs.jctc.9b00143
   
   for SPH calculations refer to:
   * S. Spicher and S. Grimme, J. Chem. Theory Comput., 2021, 17, 1701-1714
     DOI: 10.1021/acs.jctc.0c01306
   
   for ONIOM refer to:
   * C. Plett, A. Katbashev, S. Ehlert, S. Grimme, M. Bursch,
     Phys. Chem. Chem. Phys., 2023, 25, 17860-17868. DOI: 10.1039/D3CP02178E
   
   for DIPRO refer to:
   * J. Kohn, N. Gildemeister, S. Grimme, D. Fazzi, A. Hansen,
     J. Chem. Phys., 2023, just accepted.
   
   for PTB refer to:
   * S. Grimme, M. Mueller, A. Hansen, J. Chem. Phys., 2023, 158, 124111.
     DOI: 10.1063/5.0137838
   
   with help from (in alphabetical order)
   P. Atkinson, C. Bannwarth, F. Bohle, G. Brandenburg, E. Caldeweyher
   M. Checinski, S. Dohm, S. Ehlert, S. Ehrlich, I. Gerasimov, C. Hölzer
   A. Katbashev, J. Kohn, J. Koopman, C. Lavigne, S. Lehtola, F. März, M. Müller,
   F. Musil, H. Neugebauer, J. Pisarek, C. Plett, P. Pracht, F. Pultar,
   J. Seibert, P. Shushkov, S. Spicher, M. Stahn, M. Steiner, T. Strunk,
   J. Stückrath, T. Rose, and J. Unsleber
   
 * started run on 2026/03/12 at 12:46:46.276     
   ID    Z sym.   atoms
    1    6 C      1
    2    1 H      2-4
    3   17 Cl     5
    4    9 F      6

           -------------------------------------------------
          |                Calculation Setup                |
           -------------------------------------------------

          program call               : /software/orca-6.1.0-el8-x86_64/bin/otool_xtb reactant_optfreq_XTB.xyz --grad -c -1 -u 0 -P 8 --namespace reactant_optfreq --input reactant_optfreq_XTB.input.tmp --acc 0.200000
          hostname                   : midway3-login4.rcc.local
          calculation namespace      : reactant_optfreq
          coordinate file            : reactant_optfreq_XTB.xyz
          omp threads                :                     8


molecular fragmentation (1/2 indicates fragments):
111112
# atoms in fragment 1/2:     5     1
 fragment masses (1/2) :       50.49       19.00
CMA distance (Bohr)    :   6.779
constraining FC (au)   :  0.0500

           -------------------------------------------------
          |                 G F N 2 - x T B                 |
           -------------------------------------------------

        Reference                      10.1021/acs.jctc.8b01176
      * Hamiltonian:
        H0-scaling (s, p, d)           1.850000    2.230000    2.230000
        zeta-weighting                 0.500000
      * Dispersion:
        s8                             2.700000
        a1                             0.520000
        a2                             5.000000
        s9                             5.000000
      * Repulsion:
        kExp                           1.500000    1.000000
        rExp                           1.000000
      * Coulomb:
        alpha                          2.000000
        third order                    shell-resolved
        anisotropic                    true
        a3                             3.000000
        a5                             4.000000
        cn-shift                       1.200000
        cn-exp                         4.000000
        max-rad                        5.000000

q/qsh data taken from xtbrestart
CAMM data taken from xtbrestart

          ...................................................
          :                      SETUP                      :
          :.................................................:
          :  # basis functions                  21          :
          :  # atomic orbitals                  20          :
          :  # shells                           10          :
          :  # electrons                        22          :
          :  max. iterations                   250          :
          :  Hamiltonian                  GFN2-xTB          :
          :  restarted?                       true          :
          :  GBSA solvation                  false          :
          :  PC potential                    false          :
          :  electronic temp.          300.0000000     K    :
          :  accuracy                    0.2000000          :
          :  -> integral cutoff          0.3198970E+02      :
          :  -> integral neglect         0.2000000E-08      :
          :  -> SCF convergence          0.2000000E-06 Eh   :
          :  -> wf. convergence          0.2000000E-04 e    :
          :  Broyden damping             0.4000000          :
          :  net charge                         -1          :
          :  unpaired electrons                  0          :
          ...................................................

 iter      E             dE          RMSdq      gap      omega  full diag
   1    -13.1973457 -0.131973E+02  0.599E-02    2.44       0.0  T
   2    -13.1973458 -0.138249E-06  0.349E-02    2.43       1.2  T
   3    -13.1973458 -0.233703E-07  0.248E-03    2.43      16.4  T
   4    -13.1973458 -0.583911E-08  0.122E-03    2.43      33.6  T
   5    -13.1973458 -0.121067E-08  0.485E-04    2.43      84.1  T
   6    -13.1973458 -0.700204E-09  0.212E-04    2.43     192.5  T
   7    -13.1973458 -0.122563E-09  0.997E-05    2.43     409.5  T
   8    -13.1973458 -0.198810E-10  0.632E-06    2.43    6459.7  T

   *** convergence criteria satisfied after 8 iterations ***

         #    Occupation            Energy/Eh            Energy/eV
      -------------------------------------------------------------
         1        2.0000           -0.9100602             -24.7640
       ...           ...                  ...                  ...
         5        2.0000           -0.3426412              -9.3237
         6        2.0000           -0.3197674              -8.7013
         7        2.0000           -0.2682591              -7.2997
         8        2.0000           -0.2603536              -7.0846
         9        2.0000           -0.0959968              -2.6122
        10        2.0000           -0.0930837              -2.5329
        11        2.0000           -0.0930734              -2.5327 (HOMO)
        12                         -0.0038198              -0.1039 (LUMO)
        13                          0.1726388               4.6977
        14                          0.1727475               4.7007
        15                          0.1754459               4.7741
        16                          0.1767526               4.8097
       ...                                ...                  ...
        20                          0.4063131              11.0563
      -------------------------------------------------------------
                  HL-Gap            0.0892536 Eh            2.4287 eV
             Fermi-level           -0.0484466 Eh           -1.3183 eV

 SCC (total)                   0 d,  0 h,  0 min,  0.156 sec
 SCC setup                      ...        0 min,  0.000 sec (  0.140%)
 Dispersion                     ...        0 min,  0.000 sec (  0.108%)
 classical contributions        ...        0 min,  0.000 sec (  0.074%)
 integral evaluation            ...        0 min,  0.107 sec ( 68.778%)
 iterations                     ...        0 min,  0.048 sec ( 30.435%)
 molecular gradient             ...        0 min,  0.001 sec (  0.347%)
 printout                       ...        0 min,  0.000 sec (  0.097%)

         :::::::::::::::::::::::::::::::::::::::::::::::::::::
         ::                     SUMMARY                     ::
         :::::::::::::::::::::::::::::::::::::::::::::::::::::
         :: total energy             -13.146178819185 Eh    ::
         :: gradient norm              0.001982577842 Eh/a0 ::
         :: HOMO-LUMO gap              2.428714025395 eV    ::
         ::.................................................::
         :: SCC energy               -13.197345640752 Eh    ::
         :: -> isotropic ES            0.235937563039 Eh    ::
         :: -> anisotropic ES         -0.001506171482 Eh    ::
         :: -> anisotropic XC         -0.001311191181 Eh    ::
         :: -> dispersion             -0.002097503825 Eh    ::
         :: repulsion energy           0.051166821566 Eh    ::
         :: add. restraining           0.000000000000 Eh    ::
         :: total charge              -1.000000000000 e     ::
         :::::::::::::::::::::::::::::::::::::::::::::::::::::


Property printout bound to 'properties.out'

           -------------------------------------------------
          | TOTAL ENERGY              -13.146178819185 Eh   |
          | GRADIENT NORM               0.001982577842 Eh/α |
          | HOMO-LUMO GAP               2.428714025395 eV   |
           -------------------------------------------------

------------------------------------------------------------------------
 * finished run on 2026/03/12 at 12:46:46.470     
------------------------------------------------------------------------
 total:
 * wall-time:     0 d,  0 h,  0 min,  0.193 sec
 *  cpu-time:     0 d,  0 h,  0 min,  0.799 sec
 * ratio c/w:     4.134 speedup
 SCF:
 * wall-time:     0 d,  0 h,  0 min,  0.156 sec
 *  cpu-time:     0 d,  0 h,  0 min,  0.616 sec
 * ratio c/w:     3.942 speedup


-------------------------   --------------------
FINAL SINGLE POINT ENERGY       -13.146178819190
-------------------------   --------------------


-------------
DIPOLE MOMENT
-------------
                                X             Y             Z
Total Dipole Moment    :     -1.42100       0.81200       2.14300
                        -----------------------------------------
Magnitude (a.u.)       :      2.69649
Magnitude (Debye)      :      6.85392


------------------
CARTESIAN GRADIENT
------------------

   1   C   :    0.000152104   -0.000083613   -0.000097730
   2   H   :    0.000174213    0.000024707   -0.000331729
   3   H   :    0.000955427   -0.000513444    0.000747713
   4   H   :    0.000068937   -0.000172434   -0.000352485
   5   Cl  :   -0.000432521    0.000242654    0.000524049
   6   F   :   -0.000918160    0.000502131   -0.000489819

Difference to translation invariance:
           :    0.0000000000   -0.0000000000   -0.0000000000

Difference to rotation invariance:
           :    0.0000000103    0.0000000011   -0.0000000023

Norm of the Cartesian gradient     ...    0.0019825778
RMS gradient                       ...    0.0004672981
MAX gradient                       ...    0.0009554273
------------------------------------------------------------------------------
                         ORCA GEOMETRY RELAXATION STEP
------------------------------------------------------------------------------

Reading the OPT-File                    .... done
Getting information on internals        .... done
Copying old internal coords+grads       .... done
Making the new internal coordinates     .... (2022 redundants) done
Validating the new internal coordinates .... (2022 redundants) done
Calculating the B-matrix                .... done
Calculating the G,G- and P matrices     .... done
Transforming gradient to internals      .... done
Projecting the internal gradient        .... done
Number of atoms                         ....   6
Number of internal coordinates          ....  16
Current Energy                          ....   -13.146178819 Eh
Current gradient norm                   ....     0.001982578 Eh/bohr
Maximum allowed component of the step   ....  0.300
Current trust radius                    ....  0.300
Updating the Hessian (BFGS)             .... done
Forming the augmented Hessian           .... done
Diagonalizing the augmented Hessian     .... done
Last element of RFO vector              ....  0.989073738
Lowest eigenvalues of augmented Hessian:
 -0.000563167  0.023720881  0.043621628  0.096185558  0.110202165
Length of the computed step             ....  0.149050205
The final length of the internal step   ....  0.149050205
Converting the step to Cartesian space:
 Initial RMS(Int)=    0.0372625512
Transforming coordinates:
 Iter   0:  RMS(Cart)=    0.0754497740 RMS(Int)=    0.0361984146
 Iter   5:  RMS(Cart)=    0.0000009841 RMS(Int)=    0.0000036380
done
Storing new coordinates                 .... done
The predicted energy change is          ....    -0.000287839
Previously predicted energy change      ....    -0.000055328
Actually observed energy change         ....    -0.000102043
Ratio of predicted to observed change   ....     1.844344532
New trust radius                        ....     0.200000000

                                .--------------------.
          ----------------------|Geometry convergence|-------------------------
          Item                value                   Tolerance       Converged
          ---------------------------------------------------------------------
          Energy change      -0.0001020434            0.0000050000      NO
          RMS gradient        0.0010103999            0.0001000000      NO
          MAX gradient        0.0035179008            0.0003000000      NO
          RMS step            0.0372625512            0.0020000000      NO
          MAX step            0.1187087869            0.0040000000      NO
          -------------------------------------------------------------------------
          ........................................................
          Max(Bonds)      0.0327      Max(Angles)    6.80
          Max(Dihed)        0.71      Max(Improp)    0.00
          ---------------------------------------------------------------------

The optimization has not yet converged - more geometry cycles are needed


    ---------------------------------------------------------------------------
                         Redundant Internal Coordinates
                            (Angstroem and degrees)

        Definition                    Value    dE/dq     Step     New-Value
    ----------------------------------------------------------------------------
     1. B(H   1,C   0)                1.0874  0.000018 -0.0000    1.0873   
     2. B(H   2,C   0)                1.1266 -0.000738  0.0029    1.1296   
     3. B(H   3,C   0)                1.0874  0.000022 -0.0000    1.0873   
     4. B(Cl  4,H   2)                2.4548  0.000749 -0.0327    2.4220   
     5. B(Cl  4,C   0)                1.7756 -0.000447 -0.0015    1.7741   
     6. B(F   5,H   2)                1.6355  0.000198 -0.0173    1.6183   
     7. A(H   1,C   0,H   3)          110.19  0.000240   -0.06    110.13   
     8. A(H   1,C   0,H   2)          109.55 -0.000661    1.15    110.69   
     9. A(H   1,C   0,Cl  4)          106.95 -0.000027    0.12    107.07   
    10. A(H   2,C   0,Cl  4)          113.63  0.001210   -2.58    111.05   
    11. A(H   3,C   0,Cl  4)          106.95 -0.000024    0.13    107.08   
    12. A(H   2,C   0,H   3)          109.51 -0.000705    1.22    110.73   
    13. A(C   0,H   2,F   5)          156.62 -0.003518    6.80    163.42   
    14. D(F   5,H   2,C   0,H   3)     60.11 -0.000281    0.71     60.82   
    15. D(F   5,H   2,C   0,Cl  4)    179.62 -0.000015    0.04    179.66   
    16. D(F   5,H   2,C   0,H   1)    -60.85  0.000279   -0.68    -61.53   
    ----------------------------------------------------------------------------

Geometry step timings:
Preparation and reading OPT file:      0.000 s ( 3.048 %)
Internal coordinates            :      0.000 s ( 3.846 %)
B/P matrices and projection     :      0.000 s (12.990 %)
Hessian update/contruction      :      0.000 s (32.511 %)
Making the step                 :      0.000 s ( 8.200 %)
Converting the step to Cartesian:      0.000 s ( 3.411 %)
Storing new data                :      0.000 s ( 6.604 %)
Checking convergence            :      0.000 s ( 5.515 %)
Final printing                  :      0.000 s (23.875 %)
Total time                      :      0.001 s

Time for energy+gradient        :      0.205 s
Time for complete geometry iter :      0.208 s

         *************************************************************
         *                GEOMETRY OPTIMIZATION CYCLE   3            *
         *************************************************************
---------------------------------
CARTESIAN COORDINATES (ANGSTROEM)
---------------------------------
  C    -0.362823    0.211483    0.322522
  H    -0.459154    1.294514    0.331760
  H     0.231586   -0.128497   -0.575969
  H    -1.346686   -0.251374    0.330339
  Cl    0.443344   -0.252564    1.833405
  F     0.727883   -0.414657   -2.089442

----------------------------
CARTESIAN COORDINATES (A.U.)
----------------------------
  NO LB    ZA    FRAG    MASS        X           Y           Z
   0 C   6.0000    0    12.011   -0.685637    0.399644    0.609479
   1 H   1.0000    0     1.008   -0.867674    2.446278    0.626936
   2 H   1.0000    0     1.008    0.437635   -0.242825   -1.088423
   3 H   1.0000    0     1.008   -2.544868   -0.475029    0.624249
   4 Cl 17.0000    0    35.453    0.837799   -0.477277    3.464633
   5 F   9.0000    0    18.998    1.375500   -0.783589   -3.948474

      -----------------------------------------------------------      
     |                   =====================                   |     
     |                           x T B                           |     
     |                   =====================                   |     
     |                         S. Grimme                         |     
     |          Mulliken Center for Theoretical Chemistry        |     
     |                    University of Bonn                     |     
      -----------------------------------------------------------      

   * xtb version 6.7.1 (edcfbbe) compiled by 'albert@albert-system' on 2024-07-22

   xtb is free software: you can redistribute it and/or modify it under
   the terms of the GNU Lesser General Public License as published by
   the Free Software Foundation, either version 3 of the License, or
   (at your option) any later version.
   
   xtb is distributed in the hope that it will be useful,
   but WITHOUT ANY WARRANTY; without even the implied warranty of
   MERCHANTABILITY or FITNESS FOR A PARTICULAR PURPOSE.  See the
   GNU Lesser General Public License for more details.
   
   Cite this work as:
   * C. Bannwarth, E. Caldeweyher, S. Ehlert, A. Hansen, P. Pracht,
     J. Seibert, S. Spicher, S. Grimme, WIREs Comput. Mol. Sci., 2020, 11,
     e01493. DOI: 10.1002/wcms.1493
   
   for GFN2-xTB:
   * C. Bannwarth, S. Ehlert and S. Grimme., J. Chem. Theory Comput., 2019,
     15, 1652-1671. DOI: 10.1021/acs.jctc.8b01176
   for GFN1-xTB:
   * S. Grimme, C. Bannwarth, P. Shushkov, J. Chem. Theory Comput., 2017,
     13, 1989-2009. DOI: 10.1021/acs.jctc.7b00118
   for GFN0-xTB:
   * P. Pracht, E. Caldeweyher, S. Ehlert, S. Grimme, ChemRxiv, 2019, preprint.
     DOI: 10.26434/chemrxiv.8326202.v1
   for GFN-FF:
   * S. Spicher and S. Grimme, Angew. Chem. Int. Ed., 2020, 59, 15665-15673.
     DOI: 10.1002/anie.202004239
   
   for ALPB and GBSA implicit solvation:
   * S. Ehlert, M. Stahn, S. Spicher, S. Grimme, J. Chem. Theory Comput.,
     2021, 17, 4250-4261. DOI: 10.1021/acs.jctc.1c00471
   
   for ddCOSMO and CPCM-X implicit solvation:
   * M. Stahn, S. Ehlert, S. Grimme, J. Phys. Chem. A,
     2023, XX, XXXX-XXXX. DOI: 10.1021/acs.jpca.3c04382
   
   for DFT-D4:
   * E. Caldeweyher, C. Bannwarth and S. Grimme, J. Chem. Phys., 2017,
     147, 034112. DOI: 10.1063/1.4993215
   * E. Caldeweyher, S. Ehlert, A. Hansen, H. Neugebauer, S. Spicher,
     C. Bannwarth and S. Grimme, J. Chem. Phys., 2019, 150, 154122.
     DOI: 10.1063/1.5090222
   * E. Caldeweyher, J.-M. Mewes, S. Ehlert and S. Grimme, Phys. Chem. Chem. Phys.
     2020, 22, 8499-8512. DOI: 10.1039/D0CP00502A
   
   for sTDA-xTB:
   * S. Grimme and C. Bannwarth, J. Chem. Phys., 2016, 145, 054103.
     DOI: 10.1063/1.4959605
   
   in the mass-spec context:
   * V. Asgeirsson, C. Bauer and S. Grimme, Chem. Sci., 2017, 8, 4879.
     DOI: 10.1039/c7sc00601b
   * J. Koopman and S. Grimme, ACS Omega 2019, 4, 12, 15120-15133.
     DOI: 10.1021/acsomega.9b02011
   
   for metadynamics refer to:
   * S. Grimme, J. Chem. Theory Comput., 2019, 155, 2847-2862
     DOI: 10.1021/acs.jctc.9b00143
   
   for SPH calculations refer to:
   * S. Spicher and S. Grimme, J. Chem. Theory Comput., 2021, 17, 1701-1714
     DOI: 10.1021/acs.jctc.0c01306
   
   for ONIOM refer to:
   * C. Plett, A. Katbashev, S. Ehlert, S. Grimme, M. Bursch,
     Phys. Chem. Chem. Phys., 2023, 25, 17860-17868. DOI: 10.1039/D3CP02178E
   
   for DIPRO refer to:
   * J. Kohn, N. Gildemeister, S. Grimme, D. Fazzi, A. Hansen,
     J. Chem. Phys., 2023, just accepted.
   
   for PTB refer to:
   * S. Grimme, M. Mueller, A. Hansen, J. Chem. Phys., 2023, 158, 124111.
     DOI: 10.1063/5.0137838
   
   with help from (in alphabetical order)
   P. Atkinson, C. Bannwarth, F. Bohle, G. Brandenburg, E. Caldeweyher
   M. Checinski, S. Dohm, S. Ehlert, S. Ehrlich, I. Gerasimov, C. Hölzer
   A. Katbashev, J. Kohn, J. Koopman, C. Lavigne, S. Lehtola, F. März, M. Müller,
   F. Musil, H. Neugebauer, J. Pisarek, C. Plett, P. Pracht, F. Pultar,
   J. Seibert, P. Shushkov, S. Spicher, M. Stahn, M. Steiner, T. Strunk,
   J. Stückrath, T. Rose, and J. Unsleber
   
 * started run on 2026/03/12 at 12:46:46.485     
   ID    Z sym.   atoms
    1    6 C      1
    2    1 H      2-4
    3   17 Cl     5
    4    9 F      6

           -------------------------------------------------
          |                Calculation Setup                |
           -------------------------------------------------

          program call               : /software/orca-6.1.0-el8-x86_64/bin/otool_xtb reactant_optfreq_XTB.xyz --grad -c -1 -u 0 -P 8 --namespace reactant_optfreq --input reactant_optfreq_XTB.input.tmp --acc 0.200000
          hostname                   : midway3-login4.rcc.local
          calculation namespace      : reactant_optfreq
          coordinate file            : reactant_optfreq_XTB.xyz
          omp threads                :                     8


molecular fragmentation (1/2 indicates fragments):
111112
# atoms in fragment 1/2:     5     1
 fragment masses (1/2) :       50.49       19.00
CMA distance (Bohr)    :   6.632
constraining FC (au)   :  0.0500

           -------------------------------------------------
          |                 G F N 2 - x T B                 |
           -------------------------------------------------

        Reference                      10.1021/acs.jctc.8b01176
      * Hamiltonian:
        H0-scaling (s, p, d)           1.850000    2.230000    2.230000
        zeta-weighting                 0.500000
      * Dispersion:
        s8                             2.700000
        a1                             0.520000
        a2                             5.000000
        s9                             5.000000
      * Repulsion:
        kExp                           1.500000    1.000000
        rExp                           1.000000
      * Coulomb:
        alpha                          2.000000
        third order                    shell-resolved
        anisotropic                    true
        a3                             3.000000
        a5                             4.000000
        cn-shift                       1.200000
        cn-exp                         4.000000
        max-rad                        5.000000

q/qsh data taken from xtbrestart
CAMM data taken from xtbrestart

          ...................................................
          :                      SETUP                      :
          :.................................................:
          :  # basis functions                  21          :
          :  # atomic orbitals                  20          :
          :  # shells                           10          :
          :  # electrons                        22          :
          :  max. iterations                   250          :
          :  Hamiltonian                  GFN2-xTB          :
          :  restarted?                       true          :
          :  GBSA solvation                  false          :
          :  PC potential                    false          :
          :  electronic temp.          300.0000000     K    :
          :  accuracy                    0.2000000          :
          :  -> integral cutoff          0.3198970E+02      :
          :  -> integral neglect         0.2000000E-08      :
          :  -> SCF convergence          0.2000000E-06 Eh   :
          :  -> wf. convergence          0.2000000E-04 e    :
          :  Broyden damping             0.4000000          :
          :  net charge                         -1          :
          :  unpaired electrons                  0          :
          ...................................................

 iter      E             dE          RMSdq      gap      omega  full diag
   1    -13.1973683 -0.131974E+02  0.365E-01    2.49       0.0  T
   2    -13.1973755 -0.722853E-05  0.214E-01    2.50       1.0  T
   3    -13.1973758 -0.296438E-06  0.177E-02    2.48       2.3  T
   4    -13.1973764 -0.601395E-06  0.769E-03    2.49       5.3  T
   5    -13.1973764 -0.547308E-07  0.384E-03    2.49      10.6  T
   6    -13.1973765 -0.477764E-07  0.140E-03    2.48      29.2  T
   7    -13.1973765 -0.530009E-08  0.626E-04    2.48      65.2  T
   8    -13.1973765 -0.523386E-09  0.106E-04    2.48     385.4  T
   9    -13.1973765 -0.161151E-10  0.498E-05    2.48     819.5  T

   *** convergence criteria satisfied after 9 iterations ***

         #    Occupation            Energy/Eh            Energy/eV
      -------------------------------------------------------------
         1        2.0000           -0.9084162             -24.7193
       ...           ...                  ...                  ...
         5        2.0000           -0.3422686              -9.3136
         6        2.0000           -0.3187860              -8.6746
         7        2.0000           -0.2669080              -7.2629
         8        2.0000           -0.2583993              -7.0314
         9        2.0000           -0.0960400              -2.6134
        10        2.0000           -0.0930200              -2.5312
        11        2.0000           -0.0930017              -2.5307 (HOMO)
        12                         -0.0017004              -0.0463 (LUMO)
        13                          0.1740364               4.7358
        14                          0.1746307               4.7519
        15                          0.1770759               4.8185
        16                          0.1788633               4.8671
       ...                                ...                  ...
        20                          0.4103959              11.1674
      -------------------------------------------------------------
                  HL-Gap            0.0913013 Eh            2.4844 eV
             Fermi-level           -0.0473510 Eh           -1.2885 eV

 SCC (total)                   0 d,  0 h,  0 min,  0.152 sec
 SCC setup                      ...        0 min,  0.000 sec (  0.126%)
 Dispersion                     ...        0 min,  0.000 sec (  0.075%)
 classical contributions        ...        0 min,  0.000 sec (  0.028%)
 integral evaluation            ...        0 min,  0.105 sec ( 68.742%)
 iterations                     ...        0 min,  0.046 sec ( 30.485%)
 molecular gradient             ...        0 min,  0.001 sec (  0.406%)
 printout                       ...        0 min,  0.000 sec (  0.116%)

         :::::::::::::::::::::::::::::::::::::::::::::::::::::
         ::                     SUMMARY                     ::
         :::::::::::::::::::::::::::::::::::::::::::::::::::::
         :: total energy             -13.146475618242 Eh    ::
         :: gradient norm              0.003531884337 Eh/a0 ::
         :: HOMO-LUMO gap              2.484433785366 eV    ::
         ::.................................................::
         :: SCC energy               -13.197376229014 Eh    ::
         :: -> isotropic ES            0.235856122420 Eh    ::
         :: -> anisotropic ES         -0.001712943360 Eh    ::
         :: -> anisotropic XC         -0.001602331314 Eh    ::
         :: -> dispersion             -0.002119551068 Eh    ::
         :: repulsion energy           0.050900610771 Eh    ::
         :: add. restraining           0.000000000000 Eh    ::
         :: total charge              -1.000000000000 e     ::
         :::::::::::::::::::::::::::::::::::::::::::::::::::::


Property printout bound to 'properties.out'

           -------------------------------------------------
          | TOTAL ENERGY              -13.146475618242 Eh   |
          | GRADIENT NORM               0.003531884337 Eh/α |
          | HOMO-LUMO GAP               2.484433785366 eV   |
           -------------------------------------------------

------------------------------------------------------------------------
 * finished run on 2026/03/12 at 12:46:46.655     
------------------------------------------------------------------------
 total:
 * wall-time:     0 d,  0 h,  0 min,  0.170 sec
 *  cpu-time:     0 d,  0 h,  0 min,  0.641 sec
 * ratio c/w:     3.775 speedup
 SCF:
 * wall-time:     0 d,  0 h,  0 min,  0.152 sec
 *  cpu-time:     0 d,  0 h,  0 min,  0.556 sec
 * ratio c/w:     3.650 speedup


-------------------------   --------------------
FINAL SINGLE POINT ENERGY       -13.146475618240
-------------------------   --------------------


-------------
DIPOLE MOMENT
-------------
                                X             Y             Z
Total Dipole Moment    :     -1.59100       0.90800       2.11800
                        -----------------------------------------
Magnitude (a.u.)       :      2.80030
Magnitude (Debye)      :      7.11779


------------------
CARTESIAN GRADIENT
------------------

   1   C   :   -0.001137251    0.000588256   -0.001512646
   2   H   :   -0.000422972    0.000053754    0.000155780
   3   H   :    0.001574939   -0.000831432    0.001989690
   4   H   :   -0.000282092    0.000355090    0.000171348
   5   Cl  :    0.000597600   -0.000337107   -0.000547869
   6   F   :   -0.000330224    0.000171440   -0.000256303

Difference to translation invariance:
           :    0.0000000000   -0.0000000000    0.0000000000

Difference to rotation invariance:
           :    0.0000003754    0.0000006302   -0.0000000063

Norm of the Cartesian gradient     ...    0.0035318843
RMS gradient                       ...    0.0008324731
MAX gradient                       ...    0.0019896900
------------------------------------------------------------------------------
                         ORCA GEOMETRY RELAXATION STEP
------------------------------------------------------------------------------

Reading the OPT-File                    .... done
Getting information on internals        .... done
Copying old internal coords+grads       .... done
Making the new internal coordinates     .... (2022 redundants) done
Validating the new internal coordinates .... (2022 redundants) done
Calculating the B-matrix                .... done
Calculating the G,G- and P matrices     .... done
Transforming gradient to internals      .... done
Projecting the internal gradient        .... done
Number of atoms                         ....   6
Number of internal coordinates          ....  16
Current Energy                          ....   -13.146475618 Eh
Current gradient norm                   ....     0.003531884 Eh/bohr
Maximum allowed component of the step   ....  0.300
Current trust radius                    ....  0.200
Updating the Hessian (BFGS)             .... done
Forming the augmented Hessian           .... done
Diagonalizing the augmented Hessian     .... done
Last element of RFO vector              ....  0.999830114
Lowest eigenvalues of augmented Hessian:
 -0.000032941  0.022551309  0.043961381  0.096186151  0.106971025
Length of the computed step             ....  0.018435279
The final length of the internal step   ....  0.018435279
Converting the step to Cartesian space:
 Initial RMS(Int)=    0.0046088197
Transforming coordinates:
 Iter   0:  RMS(Cart)=    0.0062386456 RMS(Int)=    0.0046040755
done
Storing new coordinates                 .... done
The predicted energy change is          ....    -0.000016476
Previously predicted energy change      ....    -0.000287839
Actually observed energy change         ....    -0.000296799
Ratio of predicted to observed change   ....     1.031128562
New trust radius                        ....     0.300000000

                                .--------------------.
          ----------------------|Geometry convergence|-------------------------
          Item                value                   Tolerance       Converged
          ---------------------------------------------------------------------
          Energy change      -0.0002967991            0.0000050000      NO
          RMS gradient        0.0006163783            0.0001000000      NO
          MAX gradient        0.0013406837            0.0003000000      NO
          RMS step            0.0046088197            0.0020000000      NO
          MAX step            0.0165593203            0.0040000000      NO
          -------------------------------------------------------------------------
          ........................................................
          Max(Bonds)      0.0028      Max(Angles)    0.95
          Max(Dihed)        0.02      Max(Improp)    0.00
          ---------------------------------------------------------------------

The optimization has not yet converged - more geometry cycles are needed


    ---------------------------------------------------------------------------
                         Redundant Internal Coordinates
                            (Angstroem and degrees)

        Definition                    Value    dE/dq     Step     New-Value
    ----------------------------------------------------------------------------
     1. B(H   1,C   0)                1.0873  0.000092 -0.0000    1.0873   
     2. B(H   2,C   0)                1.1297  0.000186  0.0011    1.1308   
     3. B(H   3,C   0)                1.0873  0.000105 -0.0001    1.0873   
     4. B(Cl  4,H   2)                2.4218 -0.000974  0.0028    2.4246   
     5. B(Cl  4,C   0)                1.7743  0.000770 -0.0000    1.7742   
     6. B(F   5,H   2)                1.6183  0.000108 -0.0025    1.6158   
     7. A(H   1,C   0,H   3)          110.11 -0.000521    0.06    110.17   
     8. A(H   1,C   0,H   2)          110.68  0.000575   -0.05    110.63   
     9. A(H   1,C   0,Cl  4)          107.07  0.000254   -0.06    107.01   
    10. A(H   2,C   0,Cl  4)          111.07 -0.001236    0.16    111.23   
    11. A(H   3,C   0,Cl  4)          107.08  0.000259   -0.06    107.02   
    12. A(H   2,C   0,H   3)          110.71  0.000631   -0.05    110.66   
    13. A(C   0,H   2,F   5)          163.42 -0.001341    0.95    164.37   
    14. D(F   5,H   2,C   0,H   3)     60.84  0.000072    0.02     60.85   
    15. D(F   5,H   2,C   0,Cl  4)    179.66  0.000010    0.00    179.67   
    16. D(F   5,H   2,C   0,H   1)    -61.54 -0.000094   -0.00    -61.55   
    ----------------------------------------------------------------------------

Geometry step timings:
Preparation and reading OPT file:      0.000 s ( 2.894 %)
Internal coordinates            :      0.000 s ( 3.351 %)
B/P matrices and projection     :      0.000 s (11.500 %)
Hessian update/contruction      :      0.000 s (30.388 %)
Making the step                 :      0.000 s ( 9.749 %)
Converting the step to Cartesian:      0.000 s ( 6.093 %)
Storing new data                :      0.000 s ( 8.911 %)
Checking convergence            :      0.000 s ( 6.626 %)
Final printing                  :      0.000 s (20.487 %)
Total time                      :      0.001 s

Time for energy+gradient        :      0.182 s
Time for complete geometry iter :      0.185 s

         *************************************************************
         *                GEOMETRY OPTIMIZATION CYCLE   4            *
         *************************************************************
---------------------------------
CARTESIAN COORDINATES (ANGSTROEM)
---------------------------------
  C    -0.364427    0.212415    0.322359
  H    -0.460126    1.295424    0.334813
  H     0.225596   -0.125126   -0.581283
  H    -1.347941   -0.250979    0.333413
  Cl    0.446445   -0.254348    1.829799
  F     0.734604   -0.418482   -2.086486

----------------------------
CARTESIAN COORDINATES (A.U.)
----------------------------
  NO LB    ZA    FRAG    MASS        X           Y           Z
   0 C   6.0000    0    12.011   -0.688667    0.401406    0.609170
   1 H   1.0000    0     1.008   -0.869512    2.447997    0.632705
   2 H   1.0000    0     1.008    0.426314   -0.236453   -1.098467
   3 H   1.0000    0     1.008   -2.547239   -0.474282    0.630060
   4 Cl 17.0000    0    35.453    0.843659   -0.480647    3.457820
   5 F   9.0000    0    18.998    1.388200   -0.790817   -3.942888

      -----------------------------------------------------------      
     |                   =====================                   |     
     |                           x T B                           |     
     |                   =====================                   |     
     |                         S. Grimme                         |     
     |          Mulliken Center for Theoretical Chemistry        |     
     |                    University of Bonn                     |     
      -----------------------------------------------------------      

   * xtb version 6.7.1 (edcfbbe) compiled by 'albert@albert-system' on 2024-07-22

   xtb is free software: you can redistribute it and/or modify it under
   the terms of the GNU Lesser General Public License as published by
   the Free Software Foundation, either version 3 of the License, or
   (at your option) any later version.
   
   xtb is distributed in the hope that it will be useful,
   but WITHOUT ANY WARRANTY; without even the implied warranty of
   MERCHANTABILITY or FITNESS FOR A PARTICULAR PURPOSE.  See the
   GNU Lesser General Public License for more details.
   
   Cite this work as:
[...]
             Fermi-level           -0.0477071 Eh           -1.2982 eV

 SCC (total)                   0 d,  0 h,  0 min,  0.127 sec
 SCC setup                      ...        0 min,  0.000 sec (  0.157%)
 Dispersion                     ...        0 min,  0.000 sec (  0.051%)
 classical contributions        ...        0 min,  0.000 sec (  0.031%)
 integral evaluation            ...        0 min,  0.125 sec ( 98.549%)
 iterations                     ...        0 min,  0.001 sec (  0.729%)
 molecular gradient             ...        0 min,  0.000 sec (  0.370%)
 printout                       ...        0 min,  0.000 sec (  0.095%)

         :::::::::::::::::::::::::::::::::::::::::::::::::::::
         ::                     SUMMARY                     ::
         :::::::::::::::::::::::::::::::::::::::::::::::::::::
         :: total energy             -13.146556313607 Eh    ::
         :: gradient norm              0.000217540488 Eh/a0 ::
         :: HOMO-LUMO gap              2.558366088005 eV    ::
         ::.................................................::
         :: SCC energy               -13.197085530922 Eh    ::
         :: -> isotropic ES            0.234141829923 Eh    ::
         :: -> anisotropic ES         -0.001615943304 Eh    ::
         :: -> anisotropic XC         -0.001642783927 Eh    ::
         :: -> dispersion             -0.002125032386 Eh    ::
         :: repulsion energy           0.050529217316 Eh    ::
         :: add. restraining           0.000000000000 Eh    ::
         :: total charge              -1.000000000000 e     ::
         :::::::::::::::::::::::::::::::::::::::::::::::::::::

           ------------------------------------------------- 
          |                Numerical Hessian                |
           ------------------------------------------------- 
step length          :   0.00500
SCC accuracy         :   0.30000
Hessian scale factor :   1.00000
frozen atoms in %    :   0.00000    0
RMS gradient         :   0.00022
estimated CPU  time      0.00 min
estimated wall time      0.00 min

writing file <hessian>.

 projected vibrational frequencies (cm⁻¹)
eigval :       -0.00    -0.00    -0.00    -0.00     0.00     0.00
eigval :      113.48   320.14   349.16   681.60  1007.17  1045.82
eigval :     1325.08  1394.28  1432.58  2339.25  3011.37  3017.50

Property printout bound to 'properties.out'
Molecule has the following symmetry elements: (sigma) 
It seems to be the Cs point group

           -------------------------------------------------
          | TOTAL ENERGY              -13.146556313607 Eh   |
          | TOTAL ENTHALPY            -13.104565249334 Eh   |
          | TOTAL FREE ENERGY         -13.137725730984 Eh   |
          | GRADIENT NORM               0.000217709862 Eh/α |
          | HOMO-LUMO GAP               2.558363136431 eV   |
           -------------------------------------------------

------------------------------------------------------------------------
 * finished run on 2026/03/12 at 12:46:47.381     
------------------------------------------------------------------------
 total:
 * wall-time:     0 d,  0 h,  0 min,  0.168 sec
 *  cpu-time:     0 d,  0 h,  0 min,  0.723 sec
 * ratio c/w:     4.313 speedup
 SCF:
 * wall-time:     0 d,  0 h,  0 min,  0.127 sec
 *  cpu-time:     0 d,  0 h,  0 min,  0.556 sec
 * ratio c/w:     4.372 speedup
 analytical hessian:
 * wall-time:     0 d,  0 h,  0 min,  0.011 sec
 *  cpu-time:     0 d,  0 h,  0 min,  0.089 sec
 * ratio c/w:     7.790 speedup


-------------------------   --------------------
FINAL SINGLE POINT ENERGY       -13.146556313600
-------------------------   --------------------


-------------
DIPOLE MOMENT
-------------
                                X             Y             Z
Total Dipole Moment    :     -1.61600       0.92300       2.07900
                        -----------------------------------------
Magnitude (a.u.)       :      2.79027
Magnitude (Debye)      :      7.09231


-----------------------
VIBRATIONAL FREQUENCIES
-----------------------

Scaling factor for frequencies =  1.000000000  (already applied!)

     0:       0.00 cm**-1
     1:       0.00 cm**-1
     2:       0.00 cm**-1
     3:       0.00 cm**-1
     4:       0.00 cm**-1
     5:       0.00 cm**-1
     6:     113.48 cm**-1
     7:     320.13 cm**-1
     8:     349.15 cm**-1
     9:     681.59 cm**-1
    10:    1007.14 cm**-1
    11:    1045.79 cm**-1
    12:    1325.05 cm**-1
    13:    1394.24 cm**-1
    14:    1432.54 cm**-1
    15:    2339.19 cm**-1
    16:    3011.28 cm**-1
    17:    3017.42 cm**-1


------------
NORMAL MODES
------------

These modes are the Cartesian displacements weighted by the diagonal matrix
M(i,i)=1/sqrt(m[i]) where m[i] is the mass of the displaced atom
Thus, these vectors are normalized but *not* orthogonal

                  0          1          2          3          4          5    
      0       0.000000   0.000000   0.000000   0.000000   0.000000   0.000000
      1       0.000000   0.000000   0.000000   0.000000   0.000000   0.000000
      2       0.000000   0.000000   0.000000   0.000000   0.000000   0.000000
      3       0.000000   0.000000   0.000000   0.000000   0.000000   0.000000
      4       0.000000   0.000000   0.000000   0.000000   0.000000   0.000000
      5       0.000000   0.000000   0.000000   0.000000   0.000000   0.000000
      6       0.000000   0.000000   0.000000   0.000000   0.000000   0.000000
      7       0.000000   0.000000   0.000000   0.000000   0.000000   0.000000
      8       0.000000   0.000000   0.000000   0.000000   0.000000   0.000000
      9       0.000000   0.000000   0.000000   0.000000   0.000000   0.000000
     10       0.000000   0.000000   0.000000   0.000000   0.000000   0.000000
     11       0.000000   0.000000   0.000000   0.000000   0.000000   0.000000
     12       0.000000   0.000000   0.000000   0.000000   0.000000   0.000000
     13       0.000000   0.000000   0.000000   0.000000   0.000000   0.000000
     14       0.000000   0.000000   0.000000   0.000000   0.000000   0.000000
     15       0.000000   0.000000   0.000000   0.000000   0.000000   0.000000
     16       0.000000   0.000000   0.000000   0.000000   0.000000   0.000000
     17       0.000000   0.000000   0.000000   0.000000   0.000000   0.000000
                  6          7          8          9         10         11    
      0      -0.325494  -0.272993   0.048064   0.241603   0.082008  -0.053074
      1       0.187304   0.156992   0.082973  -0.139438  -0.046702  -0.092963
      2       0.084852   0.238365   0.000274   0.498198  -0.041250  -0.000147
      3      -0.313229  -0.257507  -0.495030   0.189526  -0.020339   0.378701
      4       0.185793   0.152048   0.029482  -0.120886  -0.044530  -0.047697
      5       0.254322   0.379170   0.307351   0.288292   0.466526   0.549690
      6      -0.435697  -0.393783   0.276399   0.230264  -0.441148   0.152489
      7       0.251451   0.226943   0.480746  -0.135016   0.252728   0.268008
      8      -0.028931   0.144450   0.000781   0.534763  -0.536774  -0.000903
      9      -0.317509  -0.260613   0.275844   0.198484   0.028979  -0.231517
     10       0.175922   0.145111  -0.412532  -0.100755   0.037809   0.304007
     11       0.253039   0.378399  -0.307924   0.290860   0.469060  -0.546939
     12       0.087102   0.032278  -0.007160  -0.102530  -0.017687   0.010345
     13      -0.050015  -0.018607  -0.012257   0.059075   0.010090   0.018146
     14      -0.233297   0.071597  -0.000072  -0.184485   0.000557  -0.000005
     15       0.099824   0.160741  -0.020061   0.005784   0.004107  -0.001651
     16      -0.057616  -0.092339  -0.034768  -0.003163  -0.002355  -0.002908
     17       0.356335  -0.332170  -0.000050  -0.029799   0.003880   0.000004
                 12         13         14         15         16         17    
      0       0.035289   0.030503   0.061107  -0.041031  -0.050911   0.047122
      1      -0.020367   0.053180  -0.035076   0.023475   0.031961   0.078815
      2       0.100911   0.000053  -0.013969   0.067247   0.004906  -0.000038
      3      -0.101266  -0.141167  -0.688017  -0.014207   0.024184   0.074352
      4      -0.009790   0.002066  -0.059865   0.041665  -0.722964  -0.680101
      5      -0.513033   0.393022   0.026718   0.006980  -0.005979  -0.016230
      6      -0.468568  -0.400295   0.149854   0.555801   0.003005   0.018619
      7       0.269209  -0.698016  -0.085899  -0.318058  -0.000564   0.032602
      8      -0.385654  -0.000659   0.098142  -0.761044  -0.026072   0.000755
      9      -0.042250   0.073111  -0.295279  -0.043174   0.603523  -0.658333
     10       0.093287  -0.120037   0.624292  -0.008735   0.328813  -0.296959
     11      -0.513126  -0.393182   0.027619   0.007014  -0.004181   0.015545
     12       0.003965   0.001702   0.003187  -0.000064  -0.000661   0.000157
     13      -0.002278   0.002954  -0.001832   0.000038   0.000386   0.000236
     14       0.004813   0.000007   0.000949  -0.000638  -0.000768   0.000015
     15       0.002767   0.002389  -0.000360  -0.000384  -0.000043  -0.000087
     16      -0.001587   0.004161   0.000205   0.000217   0.000015  -0.000158
     17       0.002128  -0.000003  -0.001029  -0.001687   0.000254  -0.000008


The first frequency considered to be a vibration is 6
The total number of vibrations considered is 12


--------------------------
THERMOCHEMISTRY AT 298.15K
--------------------------

Temperature         ...   298.15 K
Pressure            ...     1.00 atm
Total Mass          ...    69.49 AMU
Quasi RRHO          ...     True
Cut-Off Frequency   ...     1.00 cm^-1

Throughout the following assumptions are being made:
  (1) The electronic state is orbitally nondegenerate
  (2) There are no thermally accessible electronically excited states
  (3) Hindered rotations indicated by low frequency modes are not
      treated as such but are treated as vibrations and this may
      cause some error
  (4) All equations used are the standard statistical mechanics
      equations for an ideal gas
  (5) All vibrations are strictly harmonic

freq.     113.48  E(vib)   ...       0.45 
freq.     320.13  E(vib)   ...       0.25 
freq.     349.15  E(vib)   ...       0.23 
freq.     681.59  E(vib)   ...       0.08 
freq.    1007.14  E(vib)   ...       0.02 
freq.    1045.79  E(vib)   ...       0.02 
freq.    1325.05  E(vib)   ...       0.01 
freq.    1394.24  E(vib)   ...       0.00 
freq.    1432.54  E(vib)   ...       0.00 
freq.    2339.19  E(vib)   ...       0.00 
freq.    3011.28  E(vib)   ...       0.00 
freq.    3017.42  E(vib)   ...       0.00 

------------
INNER ENERGY
------------

The inner energy is: U= E(el) + E(ZPE) + E(vib) + E(rot) + E(trans)
    E(el)   - is the total energy from the electronic structure calculation
              = E(kin-el) + E(nuc-el) + E(el-el) + E(nuc-nuc)
    E(ZPE)  - the the zero temperature vibrational energy from the frequency calculation
    E(vib)  - the the finite temperature correction to E(ZPE) due to population
              of excited vibrational states
    E(rot)  - is the rotational thermal energy
    E(trans)- is the translational thermal energy

Summary of contributions to the inner energy U:
Electronic energy                ...    -13.14655631 Eh
Zero point energy                ...      0.03653497 Eh      22.93 kcal/mol
Thermal vibrational correction   ...      0.00167835 Eh       1.05 kcal/mol
Thermal rotational correction    ...      0.00141627 Eh       0.89 kcal/mol
Thermal translational correction ...      0.00141627 Eh       0.89 kcal/mol
-----------------------------------------------------------------------
Total thermal energy                    -13.10551045 Eh


Summary of corrections to the electronic energy:
(perhaps to be used in another calculation)
Total thermal correction                  0.00451089 Eh       2.83 kcal/mol
Non-thermal (ZPE) correction              0.03653497 Eh      22.93 kcal/mol
-----------------------------------------------------------------------
Total correction                          0.04104586 Eh      25.76 kcal/mol


--------
ENTHALPY
--------

The enthalpy is H = U + kB*T
                kB is Boltzmann's constant
Total thermal energy              ...    -13.10551045 Eh 
Thermal Enthalpy correction       ...      0.00094421 Eh       0.59 kcal/mol
-----------------------------------------------------------------------
Total Enthalpy                    ...    -13.10456624 Eh


WARNING (ORCA/SYM): The number of Z matrix atoms does not agree with
the number of centers in the basis set. The point group will therefore
be determined without considering basis set information.


Note: Only C1 symmetry has been detected, increase convergence thresholds 
      if your molecule has a higher symmetry. Symmetry factor of 1.0 is   
      used for the rotational entropy correction. 
 

Note: Rotational entropy computed according to Herzberg 
Infrared and Raman Spectra, Chapter V,1, Van Nostrand Reinhold, 1945 
Point Group:  C1, Symmetry Number:   1  
Rotational constants in cm-1:     0.982823     0.087322     0.081441 

Vibrational entropy computed according to the QRRHO of S. Grimme
Chem.Eur.J. 2012 18 9955 using a reference frequency of 100.0 cm-1


-------
ENTROPY
-------

The entropy contributions are T*S = T*(S(el)+S(vib)+S(rot)+S(trans))
     S(el)   - electronic entropy
     S(vib)  - vibrational entropy
     S(rot)  - rotational entropy
     S(trans)- translational entropy
The entropies will be listed as multiplied by the temperature to get
units of energy

Electronic entropy                ...      0.00000000 Eh      0.00 kcal/mol
Vibrational entropy               ...      0.00288441 Eh      1.81 kcal/mol
Rotational entropy                ...      0.01185396 Eh      7.44 kcal/mol
Translational entropy             ...      0.01835566 Eh     11.52 kcal/mol
-----------------------------------------------------------------------
Final entropy term                ...      0.03309403 Eh     20.77 kcal/mol

In case the symmetry of your molecule has not been determined correctly
or in case you have a reason to use a different symmetry number we print 
out the resulting rotational entropy values for sn=1,12:

 non-linear molecules -----------------------------------
|  sn= 1 | S(rot)=       0.01185396 Eh      7.44 kcal/mol|
|  sn= 2 | S(rot)=       0.01119951 Eh      7.03 kcal/mol|
|  sn= 3 | S(rot)=       0.01081667 Eh      6.79 kcal/mol|
|  sn= 4 | S(rot)=       0.01054505 Eh      6.62 kcal/mol|
|  sn= 5 | S(rot)=       0.01033436 Eh      6.48 kcal/mol|
|  sn= 6 | S(rot)=       0.01016222 Eh      6.38 kcal/mol|
|  sn= 7 | S(rot)=       0.01001667 Eh      6.29 kcal/mol|
|  sn= 8 | S(rot)=       0.00989059 Eh      6.21 kcal/mol|
|  sn= 9 | S(rot)=       0.00977938 Eh      6.14 kcal/mol|
|  sn=10 | S(rot)=       0.00967990 Eh      6.07 kcal/mol|
|  sn=11 | S(rot)=       0.00958991 Eh      6.02 kcal/mol|
|  sn=12 | S(rot)=       0.00950776 Eh      5.97 kcal/mol|
 linear molecules ---------------------------------------
|  Dinfh | S(rot)=       0.00769370 Eh      4.83 kcal/mol|
|  Cinfv | S(rot)=       0.00834815 Eh      5.24 kcal/mol|
 --------------------------------------------------------


-------------------
GIBBS FREE ENERGY
-------------------

The Gibbs free energy is G = H - T*S

Total enthalpy                    ...    -13.10456624 Eh 
Total entropy correction          ...     -0.03309403 Eh    -20.77 kcal/mol
-----------------------------------------------------------------------
Final Gibbs free energy         ...    -13.13766027 Eh

For completeness - the Gibbs free energy minus the electronic energy
G-E(el)                           ...      0.00889604 Eh      5.58 kcal/mol


--------------------------------
SUGGESTED CITATIONS FOR THIS RUN
--------------------------------

Below you find a list of papers that are relevant to this ORCA run
We neither can nor want to force you to cite these papers, but we appreciate if you do
You receive ORCA, which is the product of decades of hard work by many enthusiastic individuals, for free
The only thing we kindly ask in return is that you cite our papers,
We deeply appreciate it, if you show your appreciation for ORCA by not just citing the generic ORCA reference.

Please note that relegating all ORCA citations to the supporting information does *not* help us.
SI sections are not indexed - citations you put there will not count into any citation statistics
But we need these citations in order to attract the funding resources that allow us to do what we are doing

Therefore, if you are a happy ORCA user, please consider citing a few of the papers listed below in the main body of your paper

In addition to the list printed below, the program has created the file reactant_optfreq.bibtex that contains the list in bibtex format
You can import this file easily into all common literature databanks and citation aid programs


List of essential papers. We consider these as the minimum necessary citations

  1. Bannwarth, C.; Ehlert, S.; Grimme, S.
     GFN2-xTB—An Accurate and Broadly Parametrized Self-Consistent Tight-Binding Quantum Chemical Method with Multipole Electrostatics and Density-Dependent Dispersion Contributions
     J. Chem. Theory Comput. 2019 15(3), 1652-1671
     doi.org/10.1021/acs.jctc.8b01176
  2. Neese, F.
     Software update: the ORCA program system, version 6.0
     WIRES Comput. Molec. Sci. 2025 15(1), e70019
     doi.org/10.1002/wcms.7019

List of papers to cite with high priority. The work reported in these papers was absolutely
necessary for this run to complete.
Our perspective: the developers of density functionals and basis sets usually get cited in chemistry papers
Good! But without the algorithms to do something with them, the functionals or basis sets would not do anything.
Hence, in our opinion, the algorithm design and method developments papers are equally worthy of getting cited

  1. Bykov, D.; Petrenko, T.; Izsak, R.; Kossmann, S.; Becker, U.; Valeev, E.; Neese, F.
     Efficient implementation of the analytic second derivatives of Hartree-Fock and hybrid DFT energies: a detailed analysis of different approximations
     Molec. Phys. 2015 113 , 1961-1977
     doi.org/10.1080/00268976.2015.1025114
  2. Bannwarth, C.; Caldeweyher, E.; Ehlert, S.; Hansen, A.; Pracht, P.; Seibert, J.; Spicher, S.; Grimme, S.
     Extended tight-binding quantum chemistry methods
     WIRES Comput. Molec. Sci. 2020 11(2), e1493
     doi.org/10.1002/wcms.1493

List of suggested additional citations. These are papers that are important in the 'surrounding' of 
of this run, or papers that preceded the highly important papers. If you like your results we are grateful for a citation.

  1. Neese, F.
     The ORCA program system
     WIRES Comput. Molec. Sci. 2012 2(1), 73-78
     doi.org/10.1002/wcms.81
  2. Neese, F.
     Software update: the ORCA program system, version 4.0
     WIRES Comput. Molec. Sci. 2018 8(1), 1-6
     doi.org/10.1002/wcms.1327
  3. Neese, F.; Wennmohs, F.; Becker, U.; Riplinger, C.
     The ORCA quantum chemistry program package
     J. Chem. Phys. 2020 152(22), 224108
     doi.org/10.1063/5.0004608
  4. Neese, F.
     Software update: The ORCA program system—Version 5.0
     WIRES Comput. Molec. Sci. 2022 12(1), e1606
     doi.org/10.1002/wcms.1606

List of optional additional citations

  1. Neese, F.
     Approximate second-order SCF convergence for spin unrestricted wavefunctions
     Chem. Phys. Lett. 2000 325(1-3), 93-98
     doi.org/10.1016/s0009-2614(00)00662-x

Timings for individual modules:

Sum of individual times          ...        1.243 sec (=   0.021 min)
Geometry relaxation              ...        0.017 sec (=   0.000 min)   1.3 %
XTB module                       ...        1.226 sec (=   0.020 min)  98.7 %
                             ****ORCA TERMINATED NORMALLY****
TOTAL RUN TIME: 0 days 0 hours 0 minutes 5 seconds 648 msec
