
                                 *****************
                                 * O   R   C   A *
                                 *****************

                                            #,                                       
                                            ###                                      
                                            ####                                     
                                            #####                                    
                                            ######                                   
                                           ########,                                 
                                     ,,################,,,,,                         
                               ,,#################################,,                 
                          ,,##########################################,,             
                       ,#########################################, ''#####,          
                    ,#############################################,,   '####,        
                  ,##################################################,,,,####,       
                ,###########''''           ''''###############################       
              ,#####''   ,,,,##########,,,,          '''####'''          '####       
            ,##' ,,,,###########################,,,                        '##       
           ' ,,###''''                  '''############,,,                           
         ,,##''                                '''############,,,,        ,,,,,,###''
      ,#''                                            '''#######################'''  
     '                                                          ''''####''''         
             ,#######,   #######,   ,#######,      ##                                
            ,#'     '#,  ##    ##  ,#'     '#,    #''#        ,####,    ,#,          
            ##       ##  ##   ,#'  ##            #'  '#       #'       ,# #          
            ##       ##  #######   ##           ,######,      #####,      #          
            '#,     ,#'  ##    ##  '#,     ,#' ,#      #,     #,   #      #          
             '#######'   ##     ##  '#######'  #'      '#     '####' #    #          



                #########################################################
                #                        -***-                          #
                #          Department of theory and spectroscopy        #
                #                                                       #
                #                      Frank Neese                      #
                #                                                       #
                #     Directorship, Architecture, Infrastructure        #
                #                    SHARK, DRIVERS                     #
                #        Core code/Algorithms in most modules           #
                #                                                       #
                #        Max Planck Institute fuer Kohlenforschung      #
                #                Kaiser Wilhelm Platz 1                 #
                #                 D-45470 Muelheim/Ruhr                 #
                #                      Germany                          #
                #                                                       #
                #                  All rights reserved                  #
                #                        -***-                          #
                #########################################################


                         Program Version 6.1.0  -  RELEASE   -
                                (GIT: $679e74b$)
                          ($2025-06-10 18:02:51 +0200$)


 With contributions from (in alphabetic order):
[Max-Planck-Institut fuer Kohlenforschung]                               
  Daniel Aravena         : Magnetic Suceptibility                        
  Michael Atanasov       : Ab Initio Ligand Field Theory (pilot matlab implementation)
  Alexander A. Auer      : GIAO ZORA, VPT2 properties, NMR spectrum      
  Ute Becker             : All parallelization in ORCA, NUMFREQ, NUMCALC 
  Giovanni Bistoni       : ED, misc. LED, open-shell LED, HFLD           
  Dmytro Bykov           : pre 5.0 version of the SCF Hessian            
  Marcos Casanova-Páez   : Triplet and SCS-CIS(D). UHF-(DLPNO)-IP/EA/STEOM-CCSD. UHF-CVS-IP/STEOM-CCSD   
  Vijay G. Chilkuri      : MRCI spin determinant printing, contributions to CSF-ICE 
  Pauline Colinet        : FMM embedding                                 
  Dipayan Datta          : RHF DLPNO-CCSD density                        
  Achintya Kumar Dutta   : EOM-CC, STEOM-CC                              
  Nicolas Foglia         : Exact transition moments, OPA infrastructure, MCD improvements    
  Dmitry Ganyushin       : Spin-Orbit,Spin-Spin,Magnetic field MRCI      
  Miquel Garcia-Rates    : C-PCM and meta-GGA Hessian, CCSD/C-PCM, Gaussian charge scheme 
  Tiago L. C. Gouveia    : GS-ROHF, GS-ROCIS                             
  Yang Guo               : DLPNO-NEVPT2, F12-NEVPT2, CIM, IAO-localization        
  Andreas Hansen         : Spin unrestricted coupled pair/coupled cluster methods 
  Ingolf Harden          : AUTO-CI MPn and infrastructure                
  Benjamin Helmich-Paris : MC-RPA, TRAH-(SCF,CASSCF), AVAS, COSX integrals, SCF dyn. polar., MC-PDFT, srDFT 
  Lee Huntington         : MR-EOM, pCC                                   
  Robert Izsak           : Overlap fitted RIJCOSX, COSX-SCS-MP3, EOM     
  Riya Kayal             : Wick's Theorem for AUTO-CI, AUTO-CI UHF-CCSDT 
  Emily Kempfer          : AUTO-CI RHF CISDT and CCSDT, approximate NEVPT4
  Christian Kollmar      : KDIIS, OOCD, Brueckner-CCSD(T), CCSD density, CASPT2, CASPT2-K, improved NEVPT2 
  Axel Koslowski         : Symmetry handling                             
  Simone Kossmann        : meta-GGA functionals, TD-DFT gradient, OOMP2, (MP2 Hessian; deprecated post 5.0) 
  Lucas Lang             : DCDCAS, Hyperfine gauge corrections, ICE-SOC+SSC
  Marvin Lechner         : AUTO-CI (C++ implementation), FIC-MRCC        
  Spencer Leger          : CASSCF response                               
  Dagmar Lenk            : GEPOL surface, SMD, ORCA-2-JSON               
  Dimitrios Liakos       : Extrapolation schemes; Compound Job, Property file
  Dimitrios Manganas     : Further ROCIS development; embedding schemes. LFT, Crystal Embedding 
  Dimitrios Pantazis     : SARC Basis sets                               
  Anastasios Papadopoulos: AUTO-CI, single reference methods and gradients 
  Taras Petrenko         : pre 6.0 DFT Hessian and TD-DFT gradient,  ECA, NRVS 
  Petra Pikulova         : Analytic Raman intensities                    
  Peter Pinski           : DLPNO-MP2, DLPNO-MP2 Gradient                 
  Shashank Vittal Rao    : ES-AILFT, MagRelax                            
  Christoph Reimann      : Effective Core Potentials                     
  Marius Retegan         : Local ZFS, SOC                                
  Christoph Riplinger    : Optimizer, TS searches, QM/MM, DLPNO-CCSD(T), (RO)-DLPNO pert. Triples 
  Michael Roemelt        : Original ROCIS implementation, recursive CI coupling coefficients
  Masaaki Saitow         : Open-shell DLPNO-CCSD energy and density      
  Barbara Sandhoefer     : DKH picture change effects                    
  Yorick L. A. Schmerwitz: GMF and freeze-and-release deltaSCF, NEB S-IDPP initial path                    
  Kantharuban Sivalingam : CASSCF convergence/infrastructure, NEVPT2, NEVPT3, NEVPT4(SD), FIC-MRCI and CEPA variants
  Bernardo de Souza      : ESD, SOC TD-DFT                               
  Georgi L. Stoychev     : AutoAux, RI-MP2 NMR, DLPNO-MP2 response, X2C  
  Van Anh Tran           : RI-MP2 g-tensors                              
  Willem Van den Heuvel  : Paramagnetic NMR                              
  Zikuan Wang            : NOTCH, Electric field optimization            
  Frank Wennmohs         : Technical directorship and infrastructure     
  Hang Xu                : AUTO-CI-Response properties                   
                                                                         
[FACCTs GmbH]                                                            
  Markus Bursch, Nicolas Foglia, Miquel Garcia-Rates, Ingolf Harden, Hagen Neugebauer, Anastasios Papadopoulos, 
  Christoph Riplinger, Bernardo de Souza, Georgi L. Stoychev                                                    
                                                                 
  APM, various basis sets, CI-OPT, improved COSX, DLPNO-Multilevel,           
  DOCKER, DRACO, updates on ESD, Fragmentator, GOAT, IRC, LR-CPCM, L-BFGS, MBIS, meta-GGA TD-DFT gradient, ML-optimized integration grids, 
  MM, NACMEs, nearIR, NEB, NEB-TS, NL-DFT gradient (VV10), 2- and 3-layer-ONIOM, interface openCOSMO-RS, QMMM,   
  Crystal-QMMM, RESP, rigid body optimization, SF, symmetry and pop. for TD-DFT, various functionals, SOLVATOR                                   
                                                                         
[Other institutions]                                                     
  V. Asgeirsson          : NEB                                           
  Christoph Bannwarth    : sTDA-DFT, sTD-DFT, PBEh-3c, B97-3c, D3        
  Giovanni Bistoni       : ETS/NOCV, ADLD/ADEX, COVALED                  
  Martin Brehm           : Molecular dynamics                            
  Ronald Cardenas        : ETS/NOCV                                      
  Martina Colucci        : COVALED                                       
  Sebastian Ehlert       : rSCAN, r2SCAN, r2SCAN-3c, D4, dhf basis sets  
  Marvin Friede          : D4 for Fr, Ra, Ac-Lr                          
  Lars Goerigk           : TD-DFT with DH, B97 family of functionals     
  Stefan Grimme          : VdW corrections, initial TS optimization, DFT functionals, gCP, sTDA/sTD-DF 
  Waldemar Hujo          : DFT-NL                                        
  H. Jonsson             : NEB                                           
  Holger Kruse           : gCP                                           
  Marcel Mueller         : wB97X-3c, vDZP basis set                      
  Hagen Neugebauer       : wr2SCAN, Native XTB                           
  Gianluca Regni         : ADLD/ADEX                                     
  Tobias Risthaus        : pre 6.0 range-separated hybrid DFT and stability analysis
  Lukas Wittmann         : regularized MP2, r2SCAN double-hybrids, wr2SCAN        
                                                                         
We gratefully acknowledge several colleagues who have allowed us to      
interface, adapt or use parts of their codes:                            
  Ed Valeev, F. Pavosevic, A. Kumar             : LibInt (2-el integral package), F12 methods 
  Garnet Chan, S. Sharma, J. Yang, R. Olivares  : DMRG                   
  Ulf Ekstrom                                   : XCFun DFT Library      
  Mihaly Kallay                                 : mrcc  (arbitrary order and MRCC methods)
  Frank Weinhold                                : gennbo (NPA and NBO analysis)           
  Simon Mueller                                 : openCOSMO-RS                            
  Christopher J. Cramer and Donald G. Truhlar   : smd solvation model                     
  S Lehtola, MJT Oliveira, MAL Marques          : LibXC Library                           
  Liviu Ungur et al                             : ANISO software                          


 Your calculation uses the libint2 library for the computation of 2-el integrals
 For citations please refer to: http://libint.valeyev.net

 Your ORCA version has been built with support for libXC version: 7.0.0
 For citations please refer to: https://libxc.gitlab.io

 This ORCA versions uses:
   CBLAS   interface :  Fast vector & matrix operations
   LAPACKE interface :  Fast linear algebra routines
   SCALAPACK package :  Parallel linear algebra routines
   Shared memory     :  Shared parallel matrices
   BLAS/LAPACK       :  OpenBLAS 0.3.29  USE64BITINT DYNAMIC_ARCH NO_AFFINITY SkylakeX SINGLE_THREADED
        Core in use  :  SkylakeX
   Copyright (c) 2011-2014, The OpenBLAS Project


  ***********************************
  * Starting time: Mon Mar 16 14:16:07 2026
  * Host name:     midway3-login4.rcc.local
  * Process ID:    74158
  * Working dir.:  /home/rzhu16/evans-polanyi-principle-validation/runs/da_br/TS_search
  ***********************************

Your calculation utilizes the semiempirical GFN2-xTB method
Please cite in your paper:
Bannwarth, C.; Ehlert S.; Grimme, S. J. Chem. Theory Comput. 2019, 15, 1652.
   

================================================================================

================================================================================
                                        WARNINGS
                       Please study these warnings very carefully!
================================================================================


WARNING: Analytical Hessian for XTB is limited in the analysis of the data.
       : If you want to obtain extensive IR and deltaG analysis, please use ! XTB NumFreq. 


WARNING: Geometry Optimization
  ===> : Switching off AutoStart
         For restart on a previous wavefunction, please use MOREAD

WARNING: Found dipole moment calculation with XTB calculation
  ===> : Switching off dipole moment calculation


WARNING: Found frequency calculation in combination with XTB calculation
  ===> : Need to redirect dipole moment calculation to properties.out


================================================================================
                                       INPUT FILE
================================================================================
NAME = da_br.inp
|  1> ! XTB2 OptTS Freq PAL8
|  2> 
|  3> %geom
|  4>   Calc_Hess true
|  5>   Recalc_Hess 3
|  6>   MaxIter 200
|  7>   Trust -0.1
|  8> end
|  9> 
| 10> * xyz 0 1
| 11> C    0.000000   0.000000   0.000000
| 12> C    1.400000   0.000000   0.000000
| 13> C    2.100000   1.212436   0.000000
| 14> C    3.500000   1.212436   0.000000
| 15> C    2.401989   0.832073   1.868073
| 16> C    1.098011   0.380362   1.868073
| 17> H   -0.794681  -0.649304  -0.336581
| 18> H   -0.794681   0.466002  -0.563671
| 19> H    1.940000  -0.935307   0.000000
| 20> H    1.560000   2.147743   0.000000
| 21> H    4.294681   1.861739  -0.336581
| 22> H    4.294681   0.746434  -0.563671
| 23> H    0.490471   0.772177   2.670429
| 24> H    0.863031  -0.303311   2.670429
| 25> H    3.009529   0.440258   2.670429
| 26> Br   2.824084   2.060153   3.309342
| 27> *
| 28> 
| 29>                          ****END OF INPUT****
================================================================================

                       *****************************
                       * Geometry Optimization Run *
                       *****************************

Geometry optimization settings:
Update method            Update   .... Bofill
Choice of coordinates    CoordSys .... (2022) Redundant Internals
Initial Hessian          InHess   .... Almloef's Model
Max. no of cycles        MaxIter  .... 200

Convergence Tolerances:
Energy Change            TolE     ....  5.0000e-06 Eh
Max. Gradient            TolMAXG  ....  3.0000e-04 Eh/bohr
RMS Gradient             TolRMSG  ....  1.0000e-04 Eh/bohr
Max. Displacement        TolMAXD  ....  4.0000e-03 bohr
RMS Displacement         TolRMSD  ....  2.0000e-03 bohr
Strict Convergence                .... False

------------------------------------------------------------------------------
                        ORCA OPTIMIZATION COORDINATE SETUP
------------------------------------------------------------------------------

The optimization will be done in redundant internal coordinates (2022)
Making redundant internal coordinates   ...  (2022 redundants) done
Following TS mode number                ...     0
Evaluating the initial hessian          ...  (Is done on the fly) done
Evaluating the coordinates              ...  done
Calculating the B-matrix                .... done
Calculating the G-matrix                .... done
The number of degrees of freedom        ....   87

    -----------------------------------------------------------------
                    Redundant Internal Coordinates


    -----------------------------------------------------------------
         Definition                    Initial Value    d2E/dq (diagonal element)
    -----------------------------------------------------------------
      1. B(C   1,C   0)                  1.4000         0.000000   
      2. B(C   2,C   1)                  1.4000         0.000000   
      3. B(C   3,C   2)                  1.4000         0.000000   
      4. B(C   4,C   2)                  1.9302         0.000000   
      5. B(C   5,C   4)                  1.3800         0.000000   
      6. B(C   5,C   1)                  1.9302         0.000000   
      7. B(H   6,C   0)                  1.0800         0.000000   
      8. B(H   7,C   0)                  1.0800         0.000000   
      9. B(H   8,C   1)                  1.0800         0.000000   
     10. B(H   9,C   2)                  1.0800         0.000000   
     11. B(H  10,C   3)                  1.0800         0.000000   
     12. B(H  11,C   3)                  1.0800         0.000000   
     13. B(H  12,C   5)                  1.0800         0.000000   
     14. B(H  13,C   5)                  1.0800         0.000000   
     15. B(H  14,C   4)                  1.0800         0.000000   
     16. B(Br 15,H  14)                  1.7512         0.000000   
     17. B(Br 15,C   4)                  1.9400         0.000000   
     18. A(C   1,C   0,H   6)          137.3762         0.000000   
     19. A(H   6,C   0,H   7)           63.5979         0.000000   
     20. A(C   1,C   0,H   7)          137.3762         0.000000   
     21. A(C   0,C   1,C   5)           80.9987         0.000000   
     22. A(C   5,C   1,H   8)          104.4117         0.000000   
     23. A(C   0,C   1,H   8)          120.0000         0.000000   
     24. A(C   2,C   1,C   5)           84.6965         0.000000   
     25. A(C   0,C   1,C   2)          120.0000         0.000000   
     26. A(C   2,C   1,H   8)          120.0000         0.000000   
     27. A(C   1,C   2,H   9)          120.0000         0.000000   
     28. A(C   3,C   2,H   9)          120.0000         0.000000   
     29. A(C   1,C   2,C   4)           84.6965         0.000000   
     30. A(C   3,C   2,C   4)           80.9987         0.000000   
     31. A(C   1,C   2,C   3)          120.0000         0.000000   
     32. A(C   4,C   2,H   9)          104.4118         0.000000   
     33. A(H  10,C   3,H  11)           63.5978         0.000000   
     34. A(C   2,C   3,H  11)          137.3762         0.000000   
     35. A(C   2,C   3,H  10)          137.3762         0.000000   
     36. A(C   2,C   4,C   5)           85.2197         0.000000   
     37. A(C   5,C   4,Br 15)          114.3806         0.000000   
     38. A(C   2,C   4,Br 15)          128.9259         0.000000   
     39. A(C   2,C   4,H  14)          151.4650         0.000000   
     40. A(C   5,C   4,H  14)          114.3806         0.000000   
     41. A(H  14,C   4,Br 15)           63.5978         0.000000   
     42. A(H  12,C   5,H  13)           63.5978         0.000000   
     43. A(C   4,C   5,H  13)          114.3806         0.000000   
     44. A(C   1,C   5,H  13)          128.9259         0.000000   
     45. A(C   4,C   5,H  12)          114.3806         0.000000   
     46. A(C   1,C   5,H  12)          151.4650         0.000000   
     47. A(C   1,C   5,C   4)           85.2197         0.000000   
     48. A(C   4,H  14,Br 15)           82.8706         0.000000   
     49. A(C   4,Br 15,H  14)           33.5316         0.000000   
     50. D(C   5,C   1,C   0,H   6)   -128.9097         0.000000   
     51. D(H   8,C   1,C   0,H   6)    -27.4010         0.000000   
     52. D(C   2,C   1,C   0,H   6)    152.5990         0.000000   
     53. D(C   2,C   1,C   0,H   7)     50.4185         0.000000   
     54. D(C   5,C   1,C   0,H   7)    128.9098         0.000000   
     55. D(C   3,C   2,C   1,C   0)    180.0000         0.000000   
     56. D(C   3,C   2,C   1,C   5)    103.5935         0.000000   
     57. D(C   4,C   2,C   1,C   5)     27.1871         0.000000   
     58. D(C   4,C   2,C   1,H   8)    -76.4065         0.000000   
     59. D(C   3,C   2,C   1,H   8)      0.0000         0.000000   
     60. D(C   4,C   2,C   1,C   0)    103.5935         0.000000   
     61. D(H  11,C   3,C   2,C   1)     50.4185         0.000000   
     62. D(H  10,C   3,C   2,C   4)   -128.9098         0.000000   
     63. D(H  10,C   3,C   2,C   1)    152.5990         0.000000   
     64. D(H  10,C   3,C   2,H   9)    -27.4010         0.000000   
     65. D(H  11,C   3,C   2,C   4)    128.9097         0.000000   
     66. D(H  14,C   4,C   2,H   9)   -144.5296         0.000000   
     67. D(H  14,C   4,C   2,C   3)    -25.7151         0.000000   
     68. D(H  14,C   4,C   2,C   1)     95.8264         0.000000   
     69. D(C   5,C   4,C   2,H   9)     79.9613         0.000000   
     70. D(C   5,C   4,C   2,C   3)   -161.2242         0.000000   
     71. D(C   5,C   4,C   2,C   1)    -39.6828         0.000000   
     72. D(C   1,C   5,C   4,H  14)   -130.8696         0.000000   
     73. D(C   1,C   5,C   4,C   2)     27.5662         0.000000   
     74. D(H  12,C   5,C   1,H   8)   -144.5296         0.000000   
     75. D(H  12,C   5,C   1,C   2)     95.8263         0.000000   
     76. D(H  12,C   5,C   1,C   0)    -25.7151         0.000000   
     77. D(C   4,C   5,C   1,H   8)     79.9613         0.000000   
     78. D(C   4,C   5,C   1,C   2)    -39.6828         0.000000   
     79. D(C   1,C   5,C   4,Br 15)    158.4357         0.000000   
     80. D(C   4,C   5,C   1,C   0)   -161.2242         0.000000   
     81. D(H  12,C   5,C   4,Br 15)     -0.0000         0.000000   
     82. D(H  12,C   5,C   4,H  14)     70.6946         0.000000   
     83. D(H  12,C   5,C   4,C   2)   -130.8696         0.000000   
     84. D(Br 15,H  14,C   4,C   5)   -106.3194         0.000000   
     85. D(Br 15,H  14,C   4,C   2)    123.7419         0.000000   
     86. D(H  14,Br 15,C   4,C   5)    106.3194         0.000000   
     87. D(H  14,Br 15,C   4,C   2)   -149.2961         0.000000   
    -----------------------------------------------------------------

Number of atoms                         .... 16
Number of degrees of freedom            .... 87


         *************************************************************
         *                GEOMETRY OPTIMIZATION CYCLE   1            *
         *************************************************************
---------------------------------
CARTESIAN COORDINATES (ANGSTROEM)
---------------------------------
  C     0.000000    0.000000    0.000000
  C     1.400000    0.000000    0.000000
  C     2.100000    1.212436    0.000000
  C     3.500000    1.212436    0.000000
  C     2.401989    0.832073    1.868073
  C     1.098011    0.380362    1.868073
  H    -0.794681   -0.649304   -0.336581
  H    -0.794681    0.466002   -0.563671
  H     1.940000   -0.935307    0.000000
  H     1.560000    2.147743    0.000000
  H     4.294681    1.861739   -0.336581
  H     4.294681    0.746434   -0.563671
  H     0.490471    0.772177    2.670429
  H     0.863031   -0.303311    2.670429
  H     3.009529    0.440258    2.670429
  Br    2.824084    2.060153    3.309342

----------------------------
CARTESIAN COORDINATES (A.U.)
----------------------------
  NO LB    ZA    FRAG    MASS        X           Y           Z
   0 C   6.0000    0    12.011    0.000000    0.000000    0.000000
   1 C   6.0000    0    12.011    2.645617    0.000000    0.000000
   2 C   6.0000    0    12.011    3.968425    2.291172    0.000000
   3 C   6.0000    0    12.011    6.614041    2.291172    0.000000
   4 C   6.0000    0    12.011    4.539101    1.572390    3.530146
   5 C   6.0000    0    12.011    2.074940    0.718780    3.530146
   6 H   1.0000    0     1.008   -1.501729   -1.227007   -0.636046
   7 H   1.0000    0     1.008   -1.501729    0.880616   -1.065184
   8 H   1.0000    0     1.008    3.666069   -1.767474    0.000000
   9 H   1.0000    0     1.008    2.947973    4.058646    0.000000
  10 H   1.0000    0     1.008    8.115771    3.518177   -0.636046
  11 H   1.0000    0     1.008    8.115771    1.410556   -1.065184
  12 H   1.0000    0     1.008    0.926856    1.459203    5.046379
  13 H   1.0000    0     1.008    1.630892   -0.573175    5.046379
  14 H   1.0000    0     1.008    5.687186    0.831967    5.046379
  15 Br 35.0000    0    79.900    5.336745    3.893125    6.253750

      -----------------------------------------------------------      
     |                   =====================                   |     
     |                           x T B                           |     
     |                   =====================                   |     
     |                         S. Grimme                         |     
     |          Mulliken Center for Theoretical Chemistry        |     
     |                    University of Bonn                     |     
      -----------------------------------------------------------      

   * xtb version 6.7.1 (edcfbbe) compiled by 'albert@albert-system' on 2024-07-22

   xtb is free software: you can redistribute it and/or modify it under
   the terms of the GNU Lesser General Public License as published by
   the Free Software Foundation, either version 3 of the License, or
   (at your option) any later version.
   
   xtb is distributed in the hope that it will be useful,
   but WITHOUT ANY WARRANTY; without even the implied warranty of
   MERCHANTABILITY or FITNESS FOR A PARTICULAR PURPOSE.  See the
   GNU Lesser General Public License for more details.
   
   Cite this work as:
   * C. Bannwarth, E. Caldeweyher, S. Ehlert, A. Hansen, P. Pracht,
     J. Seibert, S. Spicher, S. Grimme, WIREs Comput. Mol. Sci., 2020, 11,
     e01493. DOI: 10.1002/wcms.1493
   
   for GFN2-xTB:
   * C. Bannwarth, S. Ehlert and S. Grimme., J. Chem. Theory Comput., 2019,
     15, 1652-1671. DOI: 10.1021/acs.jctc.8b01176
   for GFN1-xTB:
   * S. Grimme, C. Bannwarth, P. Shushkov, J. Chem. Theory Comput., 2017,
     13, 1989-2009. DOI: 10.1021/acs.jctc.7b00118
   for GFN0-xTB:
   * P. Pracht, E. Caldeweyher, S. Ehlert, S. Grimme, ChemRxiv, 2019, preprint.
     DOI: 10.26434/chemrxiv.8326202.v1
   for GFN-FF:
   * S. Spicher and S. Grimme, Angew. Chem. Int. Ed., 2020, 59, 15665-15673.
     DOI: 10.1002/anie.202004239
   
   for ALPB and GBSA implicit solvation:
   * S. Ehlert, M. Stahn, S. Spicher, S. Grimme, J. Chem. Theory Comput.,
     2021, 17, 4250-4261. DOI: 10.1021/acs.jctc.1c00471
   
   for ddCOSMO and CPCM-X implicit solvation:
   * M. Stahn, S. Ehlert, S. Grimme, J. Phys. Chem. A,
     2023, XX, XXXX-XXXX. DOI: 10.1021/acs.jpca.3c04382
   
   for DFT-D4:
   * E. Caldeweyher, C. Bannwarth and S. Grimme, J. Chem. Phys., 2017,
     147, 034112. DOI: 10.1063/1.4993215
   * E. Caldeweyher, S. Ehlert, A. Hansen, H. Neugebauer, S. Spicher,
     C. Bannwarth and S. Grimme, J. Chem. Phys., 2019, 150, 154122.
     DOI: 10.1063/1.5090222
   * E. Caldeweyher, J.-M. Mewes, S. Ehlert and S. Grimme, Phys. Chem. Chem. Phys.
     2020, 22, 8499-8512. DOI: 10.1039/D0CP00502A
   
   for sTDA-xTB:
   * S. Grimme and C. Bannwarth, J. Chem. Phys., 2016, 145, 054103.
     DOI: 10.1063/1.4959605
   
   in the mass-spec context:
   * V. Asgeirsson, C. Bauer and S. Grimme, Chem. Sci., 2017, 8, 4879.
     DOI: 10.1039/c7sc00601b
   * J. Koopman and S. Grimme, ACS Omega 2019, 4, 12, 15120-15133.
     DOI: 10.1021/acsomega.9b02011
   
   for metadynamics refer to:
   * S. Grimme, J. Chem. Theory Comput., 2019, 155, 2847-2862
     DOI: 10.1021/acs.jctc.9b00143
   
   for SPH calculations refer to:
   * S. Spicher and S. Grimme, J. Chem. Theory Comput., 2021, 17, 1701-1714
     DOI: 10.1021/acs.jctc.0c01306
   
   for ONIOM refer to:
   * C. Plett, A. Katbashev, S. Ehlert, S. Grimme, M. Bursch,
     Phys. Chem. Chem. Phys., 2023, 25, 17860-17868. DOI: 10.1039/D3CP02178E
   
   for DIPRO refer to:
   * J. Kohn, N. Gildemeister, S. Grimme, D. Fazzi, A. Hansen,
     J. Chem. Phys., 2023, just accepted.
   
   for PTB refer to:
   * S. Grimme, M. Mueller, A. Hansen, J. Chem. Phys., 2023, 158, 124111.
     DOI: 10.1063/5.0137838
   
   with help from (in alphabetical order)
   P. Atkinson, C. Bannwarth, F. Bohle, G. Brandenburg, E. Caldeweyher
   M. Checinski, S. Dohm, S. Ehlert, S. Ehrlich, I. Gerasimov, C. Hölzer
   A. Katbashev, J. Kohn, J. Koopman, C. Lavigne, S. Lehtola, F. März, M. Müller,
   F. Musil, H. Neugebauer, J. Pisarek, C. Plett, P. Pracht, F. Pultar,
   J. Seibert, P. Shushkov, S. Spicher, M. Stahn, M. Steiner, T. Strunk,
   J. Stückrath, T. Rose, and J. Unsleber
   
 * started run on 2026/03/16 at 14:16:07.881     
   ID    Z sym.   atoms
    1    6 C      1-6
    2    1 H      7-15
    3   35 Br     16

           -------------------------------------------------
          |                Calculation Setup                |
           -------------------------------------------------

          program call               : /software/orca-6.1.0-el8-x86_64/bin/otool_xtb da_br_XTB.xyz --grad -c 0 -u 0 -P 8 --namespace da_br --input da_br_XTB.input.tmp --acc 0.200000
          hostname                   : midway3-login4.rcc.local
          calculation namespace      : da_br
          coordinate file            : da_br_XTB.xyz
          omp threads                :                     8


           -------------------------------------------------
          |                 G F N 2 - x T B                 |
           -------------------------------------------------

        Reference                      10.1021/acs.jctc.8b01176
      * Hamiltonian:
        H0-scaling (s, p, d)           1.850000    2.230000    2.230000
        zeta-weighting                 0.500000
      * Dispersion:
        s8                             2.700000
        a1                             0.520000
        a2                             5.000000
        s9                             5.000000
      * Repulsion:
        kExp                           1.500000    1.000000
        rExp                           1.000000
      * Coulomb:
        alpha                          2.000000
        third order                    shell-resolved
        anisotropic                    true
        a3                             3.000000
        a5                             4.000000
        cn-shift                       1.200000
        cn-exp                         4.000000
        max-rad                        5.000000


          ...................................................
          :                      SETUP                      :
          :.................................................:
          :  # basis functions                  43          :
          :  # atomic orbitals                  42          :
          :  # shells                           24          :
          :  # electrons                        40          :
          :  max. iterations                   250          :
          :  Hamiltonian                  GFN2-xTB          :
          :  restarted?                      false          :
          :  GBSA solvation                  false          :
          :  PC potential                    false          :
          :  electronic temp.          300.0000000     K    :
          :  accuracy                    0.2000000          :
          :  -> integral cutoff          0.3198970E+02      :
          :  -> integral neglect         0.2000000E-08      :
          :  -> SCF convergence          0.2000000E-06 Eh   :
          :  -> wf. convergence          0.2000000E-04 e    :
          :  Broyden damping             0.4000000          :
          :  net charge                          0          :
          :  unpaired electrons                  0          :
          ...................................................

 iter      E             dE          RMSdq      gap      omega  full diag
   1    -21.1395250 -0.211395E+02  0.540E+00    0.38       0.0  T
   2    -20.9814227  0.158102E+00  0.514E+00    0.68       1.0  T
   3    -20.9955476 -0.141249E-01  0.363E+00    0.72       1.0  T
   4    -20.9203624  0.751852E-01  0.378E+00    0.90       1.0  T
   5    -21.0008921 -0.805297E-01  0.297E+00    0.60       1.0  T
   6    -21.1675960 -0.166704E+00  0.147E+00    0.42       1.0  T
   7    -21.2051768 -0.375808E-01  0.713E-01    0.33       1.0  T
   8    -21.1984238  0.675299E-02  0.731E-01    0.32       1.0  T
   9    -21.2068443 -0.842047E-02  0.321E-01    0.26       1.0  T
  10    -21.2051167  0.172763E-02  0.361E-01    0.25       1.0  T
  11    -21.2074132 -0.229654E-02  0.146E-01    0.25       1.0  T
  12    -21.2073729  0.403408E-04  0.124E-01    0.24       1.0  T
  13    -21.2073727  0.160166E-06  0.127E-01    0.25       1.0  T
  14    -21.2075653 -0.192587E-03  0.187E-02    0.25       1.3  T
  15    -21.2075505  0.148210E-04  0.313E-02    0.26       1.0  T
  16    -21.2075708 -0.203159E-04  0.698E-03    0.25       3.6  T
  17    -21.2075712 -0.458116E-06  0.117E-03    0.25      21.4  T
  18    -21.2075712 -0.509923E-08  0.879E-04    0.25      28.4  T
  19    -21.2075712 -0.687844E-09  0.500E-04    0.25      50.0  T
  20    -21.2075713 -0.411524E-08  0.202E-04    0.25     123.5  T
  21    -21.2075713 -0.156742E-09  0.217E-04    0.25     115.1  T
  22    -21.2075713 -0.480277E-09  0.376E-05    0.25     665.4  T
  23    -21.2075713 -0.181117E-10  0.103E-05    0.25    2415.8  T

   *** convergence criteria satisfied after 23 iterations ***

         #    Occupation            Energy/Eh            Energy/eV
      -------------------------------------------------------------
         1        2.0000           -0.8230785             -22.3971
       ...           ...                  ...                  ...
        14        2.0000           -0.4177970             -11.3688
        15        2.0000           -0.4023546             -10.9486
        16        2.0000           -0.3923698             -10.6769
        17        2.0000           -0.3886847             -10.5766
        18        2.0000           -0.3781048             -10.2888
        19        2.0000           -0.3481882              -9.4747
        20        1.9854           -0.2790131              -7.5923 (HOMO)
        21        0.0146           -0.2696846              -7.3385 (LUMO)
        22        0.0000           -0.2607623              -7.0957
        23                         -0.1746665              -4.7529
        24                         -0.1603037              -4.3621
        25                          0.0130565               0.3553
       ...                                ...                  ...
        42                          0.5869167              15.9708
      -------------------------------------------------------------
                  HL-Gap            0.0093285 Eh            0.2538 eV
             Fermi-level           -0.2743489 Eh           -7.4654 eV

 SCC (total)                   0 d,  0 h,  0 min,  0.154 sec
 SCC setup                      ...        0 min,  0.000 sec (  0.156%)
 Dispersion                     ...        0 min,  0.000 sec (  0.066%)
 classical contributions        ...        0 min,  0.000 sec (  0.028%)
 integral evaluation            ...        0 min,  0.141 sec ( 91.709%)
 iterations                     ...        0 min,  0.010 sec (  6.795%)
 molecular gradient             ...        0 min,  0.002 sec (  1.117%)
 printout                       ...        0 min,  0.000 sec (  0.111%)

         :::::::::::::::::::::::::::::::::::::::::::::::::::::
         ::                     SUMMARY                     ::
         :::::::::::::::::::::::::::::::::::::::::::::::::::::
         :: total energy             -20.892796586011 Eh    ::
         :: gradient norm              0.354830434139 Eh/a0 ::
         :: HOMO-LUMO gap              0.253840558943 eV    ::
         ::.................................................::
         :: SCC energy               -21.207535938378 Eh    ::
         :: -> isotropic ES            0.019284352806 Eh    ::
         :: -> anisotropic ES          0.011324850943 Eh    ::
         :: -> anisotropic XC          0.011211628104 Eh    ::
         :: -> dispersion             -0.011598314037 Eh    ::
         :: repulsion energy           0.314739352368 Eh    ::
         :: add. restraining           0.000000000000 Eh    ::
         :: total charge               0.000000000000 e     ::
         :::::::::::::::::::::::::::::::::::::::::::::::::::::


Property printout bound to 'properties.out'

           -------------------------------------------------
          | TOTAL ENERGY              -20.892796586011 Eh   |
          | GRADIENT NORM               0.354830434139 Eh/α |
          | HOMO-LUMO GAP               0.253840558943 eV   |
           -------------------------------------------------

------------------------------------------------------------------------
 * finished run on 2026/03/16 at 14:16:08.067     
------------------------------------------------------------------------
 total:
 * wall-time:     0 d,  0 h,  0 min,  0.185 sec
 *  cpu-time:     0 d,  0 h,  0 min,  0.427 sec
 * ratio c/w:     2.314 speedup
 SCF:
 * wall-time:     0 d,  0 h,  0 min,  0.154 sec
 *  cpu-time:     0 d,  0 h,  0 min,  0.334 sec
 * ratio c/w:     2.165 speedup


-------------------------   --------------------
FINAL SINGLE POINT ENERGY       -20.892796586010
-------------------------   --------------------


-------------
DIPOLE MOMENT
-------------
                                X             Y             Z
Total Dipole Moment    :     -0.70900      -1.32700      -1.39700
                        -----------------------------------------
Magnitude (a.u.)       :      2.05310
Magnitude (Debye)      :      5.21857


------------------
CARTESIAN GRADIENT
------------------

   1   C   :    0.047980859    0.014295649    0.050440346
   2   C   :    0.081887917    0.028181365    0.003864854
   3   C   :   -0.089259371   -0.033420631    0.014439504
   4   C   :   -0.043548291   -0.018930766    0.062013963
   5   C   :   -0.017279650   -0.002489063   -0.091418045
   6   C   :    0.020266481    0.024211339   -0.074874348
   7   H   :   -0.027353714    0.096252627   -0.034611134
   8   H   :   -0.025838520   -0.102855237    0.002984194
   9   H   :   -0.003599368    0.000731337    0.006392456
  10   H   :    0.003408331   -0.000832790    0.007553914
  11   H   :    0.027936835   -0.096515399   -0.033899599
  12   H   :    0.025421540    0.102827501    0.001272081
  13   H   :    0.044579825   -0.084148653    0.035499797
  14   H   :   -0.026310101    0.093292795    0.021681915
  15   H   :   -0.024261228    0.068104460    0.058422181
  16   Br  :    0.005968455   -0.088704532   -0.029762079

Difference to translation invariance:
           :    0.0000000000   -0.0000000000    0.0000000000

Difference to rotation invariance:
           :   -0.0152667824    0.0402419011   -0.0263289455

Norm of the Cartesian gradient     ...    0.3548304341
RMS gradient                       ...    0.0512153617
MAX gradient                       ...    0.1028552375
      -----------------------------------------------------------      
     |                   =====================                   |     
     |                           x T B                           |     
     |                   =====================                   |     
     |                         S. Grimme                         |     
     |          Mulliken Center for Theoretical Chemistry        |     
     |                    University of Bonn                     |     
      -----------------------------------------------------------      

   * xtb version 6.7.1 (edcfbbe) compiled by 'albert@albert-system' on 2024-07-22

   xtb is free software: you can redistribute it and/or modify it under
   the terms of the GNU Lesser General Public License as published by
   the Free Software Foundation, either version 3 of the License, or
   (at your option) any later version.
   
   xtb is distributed in the hope that it will be useful,
   but WITHOUT ANY WARRANTY; without even the implied warranty of
   MERCHANTABILITY or FITNESS FOR A PARTICULAR PURPOSE.  See the
   GNU Lesser General Public License for more details.
   
   Cite this work as:
   * C. Bannwarth, E. Caldeweyher, S. Ehlert, A. Hansen, P. Pracht,
     J. Seibert, S. Spicher, S. Grimme, WIREs Comput. Mol. Sci., 2020, 11,
     e01493. DOI: 10.1002/wcms.1493
   
   for GFN2-xTB:
   * C. Bannwarth, S. Ehlert and S. Grimme., J. Chem. Theory Comput., 2019,
     15, 1652-1671. DOI: 10.1021/acs.jctc.8b01176
   for GFN1-xTB:
   * S. Grimme, C. Bannwarth, P. Shushkov, J. Chem. Theory Comput., 2017,
     13, 1989-2009. DOI: 10.1021/acs.jctc.7b00118
   for GFN0-xTB:
   * P. Pracht, E. Caldeweyher, S. Ehlert, S. Grimme, ChemRxiv, 2019, preprint.
     DOI: 10.26434/chemrxiv.8326202.v1
   for GFN-FF:
   * S. Spicher and S. Grimme, Angew. Chem. Int. Ed., 2020, 59, 15665-15673.
     DOI: 10.1002/anie.202004239
   
   for ALPB and GBSA implicit solvation:
   * S. Ehlert, M. Stahn, S. Spicher, S. Grimme, J. Chem. Theory Comput.,
     2021, 17, 4250-4261. DOI: 10.1021/acs.jctc.1c00471
   
   for ddCOSMO and CPCM-X implicit solvation:
   * M. Stahn, S. Ehlert, S. Grimme, J. Phys. Chem. A,
     2023, XX, XXXX-XXXX. DOI: 10.1021/acs.jpca.3c04382
   
   for DFT-D4:
   * E. Caldeweyher, C. Bannwarth and S. Grimme, J. Chem. Phys., 2017,
     147, 034112. DOI: 10.1063/1.4993215
   * E. Caldeweyher, S. Ehlert, A. Hansen, H. Neugebauer, S. Spicher,
     C. Bannwarth and S. Grimme, J. Chem. Phys., 2019, 150, 154122.
     DOI: 10.1063/1.5090222
   * E. Caldeweyher, J.-M. Mewes, S. Ehlert and S. Grimme, Phys. Chem. Chem. Phys.
     2020, 22, 8499-8512. DOI: 10.1039/D0CP00502A
   
   for sTDA-xTB:
   * S. Grimme and C. Bannwarth, J. Chem. Phys., 2016, 145, 054103.
     DOI: 10.1063/1.4959605
   
   in the mass-spec context:
   * V. Asgeirsson, C. Bauer and S. Grimme, Chem. Sci., 2017, 8, 4879.
     DOI: 10.1039/c7sc00601b
   * J. Koopman and S. Grimme, ACS Omega 2019, 4, 12, 15120-15133.
     DOI: 10.1021/acsomega.9b02011
   
   for metadynamics refer to:
   * S. Grimme, J. Chem. Theory Comput., 2019, 155, 2847-2862
     DOI: 10.1021/acs.jctc.9b00143
   
   for SPH calculations refer to:
   * S. Spicher and S. Grimme, J. Chem. Theory Comput., 2021, 17, 1701-1714
     DOI: 10.1021/acs.jctc.0c01306
   
   for ONIOM refer to:
   * C. Plett, A. Katbashev, S. Ehlert, S. Grimme, M. Bursch,
     Phys. Chem. Chem. Phys., 2023, 25, 17860-17868. DOI: 10.1039/D3CP02178E
   
   for DIPRO refer to:
   * J. Kohn, N. Gildemeister, S. Grimme, D. Fazzi, A. Hansen,
     J. Chem. Phys., 2023, just accepted.
   
   for PTB refer to:
   * S. Grimme, M. Mueller, A. Hansen, J. Chem. Phys., 2023, 158, 124111.
     DOI: 10.1063/5.0137838
   
   with help from (in alphabetical order)
   P. Atkinson, C. Bannwarth, F. Bohle, G. Brandenburg, E. Caldeweyher
   M. Checinski, S. Dohm, S. Ehlert, S. Ehrlich, I. Gerasimov, C. Hölzer
   A. Katbashev, J. Kohn, J. Koopman, C. Lavigne, S. Lehtola, F. März, M. Müller,
   F. Musil, H. Neugebauer, J. Pisarek, C. Plett, P. Pracht, F. Pultar,
   J. Seibert, P. Shushkov, S. Spicher, M. Stahn, M. Steiner, T. Strunk,
   J. Stückrath, T. Rose, and J. Unsleber
   
 * started run on 2026/03/16 at 14:16:08.078     
   ID    Z sym.   atoms
    1    6 C      1-6
    2    1 H      7-15
    3   35 Br     16

           -------------------------------------------------
          |                Calculation Setup                |
           -------------------------------------------------

          program call               : /software/orca-6.1.0-el8-x86_64/bin/otool_xtb da_br_XTB.xyz --hess -c 0 -u 0 -P 8 --namespace da_br --input da_br_XTB.input.tmp --acc 0.200000
          hostname                   : midway3-login4.rcc.local
          calculation namespace      : da_br
          coordinate file            : da_br_XTB.xyz
          omp threads                :                     8


           -------------------------------------------------
          |                 G F N 2 - x T B                 |
           -------------------------------------------------

        Reference                      10.1021/acs.jctc.8b01176
      * Hamiltonian:
        H0-scaling (s, p, d)           1.850000    2.230000    2.230000
        zeta-weighting                 0.500000
      * Dispersion:
        s8                             2.700000
        a1                             0.520000
        a2                             5.000000
        s9                             5.000000
      * Repulsion:
        kExp                           1.500000    1.000000
        rExp                           1.000000
      * Coulomb:
        alpha                          2.000000
        third order                    shell-resolved
        anisotropic                    true
        a3                             3.000000
        a5                             4.000000
        cn-shift                       1.200000
        cn-exp                         4.000000
        max-rad                        5.000000

q/qsh data taken from xtbrestart
CAMM data taken from xtbrestart

          ...................................................
          :                      SETUP                      :
          :.................................................:
          :  # basis functions                  43          :
          :  # atomic orbitals                  42          :
          :  # shells                           24          :
          :  # electrons                        40          :
          :  max. iterations                   250          :
          :  Hamiltonian                  GFN2-xTB          :
          :  restarted?                       true          :
          :  GBSA solvation                  false          :
          :  PC potential                    false          :
          :  electronic temp.          300.0000000     K    :
          :  accuracy                    0.2000000          :
          :  -> integral cutoff          0.3198970E+02      :
          :  -> integral neglect         0.2000000E-08      :
          :  -> SCF convergence          0.2000000E-06 Eh   :
          :  -> wf. convergence          0.2000000E-04 e    :
          :  Broyden damping             0.4000000          :
          :  net charge                          0          :
          :  unpaired electrons                  0          :
          ...................................................

 iter      E             dE          RMSdq      gap      omega  full diag
   1    -21.2075713 -0.212076E+02  0.295E-06    0.25       0.0  T
   2    -21.2075713  0.178062E-10  0.258E-05    0.25     969.3  T
   3    -21.2075713 -0.175326E-10  0.527E-06    0.25    4742.1  T

   *** convergence criteria satisfied after 3 iterations ***

         #    Occupation            Energy/Eh            Energy/eV
      -------------------------------------------------------------
         1        2.0000           -0.8230786             -22.3971
       ...           ...                  ...                  ...
        14        2.0000           -0.4177970             -11.3688
        15        2.0000           -0.4023546             -10.9486
        16        2.0000           -0.3923699             -10.6769
        17        2.0000           -0.3886847             -10.5766
        18        2.0000           -0.3781047             -10.2888
        19        2.0000           -0.3481882              -9.4747
        20        1.9854           -0.2790131              -7.5923 (HOMO)
        21        0.0146           -0.2696846              -7.3385 (LUMO)
        22        0.0000           -0.2607623              -7.0957
        23                         -0.1746665              -4.7529
        24                         -0.1603038              -4.3621
        25                          0.0130565               0.3553
       ...                                ...                  ...
        42                          0.5869167              15.9708
      -------------------------------------------------------------
                  HL-Gap            0.0093285 Eh            0.2538 eV
             Fermi-level           -0.2743489 Eh           -7.4654 eV

 SCC (total)                   0 d,  0 h,  0 min,  0.181 sec
 SCC setup                      ...        0 min,  0.000 sec (  0.147%)
 Dispersion                     ...        0 min,  0.000 sec (  0.074%)
 classical contributions        ...        0 min,  0.000 sec (  0.021%)
 integral evaluation            ...        0 min,  0.101 sec ( 55.917%)
 iterations                     ...        0 min,  0.002 sec (  1.326%)
 molecular gradient             ...        0 min,  0.076 sec ( 42.100%)
 printout                       ...        0 min,  0.001 sec (  0.390%)

         :::::::::::::::::::::::::::::::::::::::::::::::::::::
         ::                     SUMMARY                     ::
         :::::::::::::::::::::::::::::::::::::::::::::::::::::
         :: total energy             -20.892796586011 Eh    ::
         :: gradient norm              0.354830606567 Eh/a0 ::
         :: HOMO-LUMO gap              0.253840121329 eV    ::
         ::.................................................::
         :: SCC energy               -21.207535938379 Eh    ::
         :: -> isotropic ES            0.019284270670 Eh    ::
         :: -> anisotropic ES          0.011324834069 Eh    ::
         :: -> anisotropic XC          0.011211638029 Eh    ::
         :: -> dispersion             -0.011598313564 Eh    ::
         :: repulsion energy           0.314739352368 Eh    ::
         :: add. restraining           0.000000000000 Eh    ::
         :: total charge              -0.000000000000 e     ::
         :::::::::::::::::::::::::::::::::::::::::::::::::::::

           ------------------------------------------------- 
          |                Numerical Hessian                |
           ------------------------------------------------- 
step length          :   0.00500
SCC accuracy         :   0.30000
Hessian scale factor :   1.00000
frozen atoms in %    :   0.00000    0
RMS gradient         :   0.36439 !! INCOMPLETELY OPTIMIZED GEOMETRY !!
estimated CPU  time      0.04 min
estimated wall time      0.01 min

writing file <hessian>.

 projected vibrational frequencies (cm⁻¹)
eigval :       -0.00    -0.00    -0.00    -0.00     0.00     0.00
eigval :    -1345.90 -1288.64 -1197.27  -861.15  -700.24  -538.04
eigval :     -500.65  -478.53  -352.43  -296.67  -171.86  -134.52
eigval :      286.41   360.14   420.49   520.84   592.40   716.58
eigval :      742.92   804.51   875.53   924.78   960.07  1052.65
eigval :     1171.73  1179.73  1217.06  1295.80  1375.44  1450.72
eigval :     1535.03  1679.57  1693.86  2646.98  2662.54  2685.57
eigval :     2878.58  3046.56  3055.47  3293.69  3336.90  3346.36

Property printout bound to 'properties.out'
Molecule has no symmetry elements
It seems to be the C1 point group
imag cut-off (cm-1) :    5.00
 found           12  significant imaginary frequencies
 writing imag mode distorted coords to xtbhess.xyz
 for further optimization.

           -------------------------------------------------
          | TOTAL ENERGY              -20.892796585742 Eh   |
          | TOTAL ENTHALPY            -20.778103831933 Eh   |
          | TOTAL FREE ENERGY         -20.814320802624 Eh   |
          | GRADIENT NORM               0.364390625946 Eh/α |
          | HOMO-LUMO GAP               0.253839158373 eV   |
           -------------------------------------------------
########################################################################
[WARNING] Runtime exception occurred
-1- hessian_numhess: Hessian on incompletely optimized geometry!
########################################################################

------------------------------------------------------------------------
 * finished run on 2026/03/16 at 14:16:08.780     
------------------------------------------------------------------------
 total:
 * wall-time:     0 d,  0 h,  0 min,  0.701 sec
 *  cpu-time:     0 d,  0 h,  0 min,  1.522 sec
 * ratio c/w:     2.171 speedup
 SCF:
 * wall-time:     0 d,  0 h,  0 min,  0.181 sec
 *  cpu-time:     0 d,  0 h,  0 min,  0.262 sec
 * ratio c/w:     1.447 speedup
 analytical hessian:
 * wall-time:     0 d,  0 h,  0 min,  0.407 sec
 *  cpu-time:     0 d,  0 h,  0 min,  1.048 sec
 * ratio c/w:     2.572 speedup


-------------------------   --------------------
FINAL SINGLE POINT ENERGY       -20.892796586010
-------------------------   --------------------


-------------
DIPOLE MOMENT
-------------
                                X             Y             Z
Total Dipole Moment    :     -0.70900      -1.32700      -1.39700
                        -----------------------------------------
Magnitude (a.u.)       :      2.05310
Magnitude (Debye)      :      5.21857


-----------------------
VIBRATIONAL FREQUENCIES
-----------------------

Scaling factor for frequencies =  1.000000000  (already applied!)

     0:       0.00 cm**-1
     1:       0.00 cm**-1
     2:       0.00 cm**-1
     3:       0.00 cm**-1
     4:       0.00 cm**-1
     5:       0.00 cm**-1
     6:   -1345.86 cm**-1  ***imaginary mode***
     7:   -1288.60 cm**-1  ***imaginary mode***
     8:   -1197.24 cm**-1  ***imaginary mode***
     9:    -861.14 cm**-1  ***imaginary mode***
    10:    -700.23 cm**-1  ***imaginary mode***
    11:    -538.03 cm**-1  ***imaginary mode***
    12:    -500.63 cm**-1  ***imaginary mode***
    13:    -478.52 cm**-1  ***imaginary mode***
    14:    -352.42 cm**-1  ***imaginary mode***
    15:    -296.66 cm**-1  ***imaginary mode***
    16:    -171.86 cm**-1  ***imaginary mode***
    17:    -134.52 cm**-1  ***imaginary mode***
    18:     286.41 cm**-1
    19:     360.13 cm**-1
    20:     420.48 cm**-1
    21:     520.83 cm**-1
    22:     592.39 cm**-1
    23:     716.56 cm**-1
    24:     742.91 cm**-1
    25:     804.49 cm**-1
    26:     875.51 cm**-1
    27:     924.76 cm**-1
    28:     960.04 cm**-1
    29:    1052.62 cm**-1
    30:    1171.71 cm**-1
    31:    1179.70 cm**-1
    32:    1217.03 cm**-1
    33:    1295.78 cm**-1
    34:    1375.43 cm**-1
    35:    1450.68 cm**-1
    36:    1535.00 cm**-1
    37:    1679.52 cm**-1
    38:    1693.81 cm**-1
    39:    2646.90 cm**-1
    40:    2662.46 cm**-1
    41:    2685.50 cm**-1
    42:    2878.50 cm**-1
    43:    3046.47 cm**-1
    44:    3055.38 cm**-1
    45:    3293.60 cm**-1
    46:    3336.80 cm**-1
    47:    3346.27 cm**-1


------------
NORMAL MODES
------------

These modes are the Cartesian displacements weighted by the diagonal matrix
M(i,i)=1/sqrt(m[i]) where m[i] is the mass of the displaced atom
Thus, these vectors are normalized but *not* orthogonal

                  0          1          2          3          4          5    
      0       0.000000   0.000000   0.000000   0.000000   0.000000   0.000000
      1       0.000000   0.000000   0.000000   0.000000   0.000000   0.000000
      2       0.000000   0.000000   0.000000   0.000000   0.000000   0.000000
      3       0.000000   0.000000   0.000000   0.000000   0.000000   0.000000
      4       0.000000   0.000000   0.000000   0.000000   0.000000   0.000000
      5       0.000000   0.000000   0.000000   0.000000   0.000000   0.000000
      6       0.000000   0.000000   0.000000   0.000000   0.000000   0.000000
      7       0.000000   0.000000   0.000000   0.000000   0.000000   0.000000
      8       0.000000   0.000000   0.000000   0.000000   0.000000   0.000000
      9       0.000000   0.000000   0.000000   0.000000   0.000000   0.000000
     10       0.000000   0.000000   0.000000   0.000000   0.000000   0.000000
     11       0.000000   0.000000   0.000000   0.000000   0.000000   0.000000
     12       0.000000   0.000000   0.000000   0.000000   0.000000   0.000000
     13       0.000000   0.000000   0.000000   0.000000   0.000000   0.000000
     14       0.000000   0.000000   0.000000   0.000000   0.000000   0.000000
     15       0.000000   0.000000   0.000000   0.000000   0.000000   0.000000
     16       0.000000   0.000000   0.000000   0.000000   0.000000   0.000000
     17       0.000000   0.000000   0.000000   0.000000   0.000000   0.000000
     18       0.000000   0.000000   0.000000   0.000000   0.000000   0.000000
     19       0.000000   0.000000   0.000000   0.000000   0.000000   0.000000
     20       0.000000   0.000000   0.000000   0.000000   0.000000   0.000000
     21       0.000000   0.000000   0.000000   0.000000   0.000000   0.000000
     22       0.000000   0.000000   0.000000   0.000000   0.000000   0.000000
     23       0.000000   0.000000   0.000000   0.000000   0.000000   0.000000
     24       0.000000   0.000000   0.000000   0.000000   0.000000   0.000000
     25       0.000000   0.000000   0.000000   0.000000   0.000000   0.000000
     26       0.000000   0.000000   0.000000   0.000000   0.000000   0.000000
     27       0.000000   0.000000   0.000000   0.000000   0.000000   0.000000
     28       0.000000   0.000000   0.000000   0.000000   0.000000   0.000000
     29       0.000000   0.000000   0.000000   0.000000   0.000000   0.000000
     30       0.000000   0.000000   0.000000   0.000000   0.000000   0.000000
     31       0.000000   0.000000   0.000000   0.000000   0.000000   0.000000
     32       0.000000   0.000000   0.000000   0.000000   0.000000   0.000000
     33       0.000000   0.000000   0.000000   0.000000   0.000000   0.000000
     34       0.000000   0.000000   0.000000   0.000000   0.000000   0.000000
     35       0.000000   0.000000   0.000000   0.000000   0.000000   0.000000
     36       0.000000   0.000000   0.000000   0.000000   0.000000   0.000000
     37       0.000000   0.000000   0.000000   0.000000   0.000000   0.000000
     38       0.000000   0.000000   0.000000   0.000000   0.000000   0.000000
     39       0.000000   0.000000   0.000000   0.000000   0.000000   0.000000
     40       0.000000   0.000000   0.000000   0.000000   0.000000   0.000000
     41       0.000000   0.000000   0.000000   0.000000   0.000000   0.000000
     42       0.000000   0.000000   0.000000   0.000000   0.000000   0.000000
     43       0.000000   0.000000   0.000000   0.000000   0.000000   0.000000
     44       0.000000   0.000000   0.000000   0.000000   0.000000   0.000000
     45       0.000000   0.000000   0.000000   0.000000   0.000000   0.000000
     46       0.000000   0.000000   0.000000   0.000000   0.000000   0.000000
     47       0.000000   0.000000   0.000000   0.000000   0.000000   0.000000
                  6          7          8          9         10         11    
      0      -0.022854   0.004654  -0.041059   0.006539   0.123300  -0.009405
      1       0.014252  -0.028299   0.003179  -0.009494   0.016137   0.007357
      2       0.002209  -0.001446   0.001160  -0.024035  -0.027383   0.021444
      3       0.003413  -0.004547  -0.002802  -0.020583   0.025284   0.006112
      4      -0.007339   0.007087   0.000683  -0.024159  -0.037432   0.017762
      5       0.037651  -0.018237   0.068425  -0.024059  -0.287562   0.034426
      6      -0.002813  -0.002505   0.002281   0.015196  -0.022855   0.008212
      7       0.009447   0.005225  -0.000998  -0.022276  -0.027371   0.024195
      8       0.032098   0.023248   0.027222   0.230995  -0.040944  -0.011002
      9       0.017786   0.007547   0.014881   0.104563  -0.033809   0.005319
     10      -0.018142  -0.023941   0.011889  -0.006455  -0.014366  -0.024574
     11       0.003648   0.001011   0.010816   0.014023   0.007318  -0.014647
     12      -0.003067  -0.000616  -0.000329  -0.086608  -0.099063  -0.009804
     13       0.020296   0.011493   0.030021   0.090121   0.043660   0.052181
     14      -0.036007  -0.009566  -0.027141  -0.198678   0.073465   0.006968
     15       0.010132   0.000974   0.028958  -0.038224  -0.039358  -0.004170
     16      -0.021503   0.006263  -0.042894   0.003890   0.008941  -0.010297
     17      -0.035632   0.011170  -0.048082   0.045625   0.241060  -0.047047
     18      -0.135773   0.219783   0.003575  -0.011458  -0.182793  -0.020023
     19       0.021388  -0.083885   0.040445  -0.010690   0.220323   0.055149
     20       0.333045  -0.510683  -0.203554   0.030231   0.260203  -0.067924
     21       0.149587  -0.223743  -0.015201  -0.020727   0.141162   0.023916
     22      -0.116077   0.114938   0.108613  -0.006285   0.186886   0.070389
     23      -0.400104   0.509274   0.073656   0.033072   0.123140   0.030982
     24       0.024987  -0.025039  -0.020443  -0.019429   0.016432   0.004778
     25       0.000658  -0.005452  -0.004637  -0.025131  -0.031466   0.016548
     26       0.027746  -0.041980  -0.082194   0.032607  -0.057893  -0.012062
     27      -0.027965  -0.010293   0.023104   0.013959  -0.010502   0.017321
     28       0.000101  -0.002669   0.010620  -0.019109  -0.020827   0.026861
     29       0.061709   0.024550  -0.037549  -0.070329   0.047232   0.003565
     30       0.170601   0.173265  -0.091498  -0.029042   0.014890   0.218899
     31      -0.031914  -0.083331   0.009949  -0.003636  -0.041573  -0.250610
     32       0.436495   0.358213  -0.301952  -0.325438   0.058386  -0.057763
     33      -0.188704  -0.169846   0.102340  -0.002074  -0.023483  -0.194830
     34       0.141967   0.051067  -0.101932  -0.068699  -0.026420  -0.267905
     35      -0.488244  -0.361527   0.263800  -0.074420   0.027252  -0.020825
     36      -0.180321  -0.045983  -0.435414   0.220927  -0.380474  -0.035483
     37      -0.074323   0.070648  -0.138206   0.018452  -0.214686  -0.552175
     38      -0.183538  -0.081094  -0.427018   0.279256   0.031324   0.300518
     39       0.165545   0.024288   0.390251  -0.027717   0.490810   0.342377
     40       0.102820   0.069640   0.206385  -0.014562  -0.007734  -0.364518
     41       0.180380   0.085695   0.372542   0.026751   0.350613  -0.312384
     42       0.020836   0.000361  -0.012330   0.441851  -0.026158  -0.067983
     43       0.045143   0.036481  -0.012456   0.223314  -0.124696   0.010054
     44      -0.034785   0.006086  -0.029149  -0.610307  -0.106858   0.043259
     45      -0.000375  -0.000106   0.000412  -0.004270   0.006487  -0.003084
     46      -0.000683   0.001221  -0.001781  -0.005936   0.002327   0.005833
     47       0.000253  -0.000784  -0.000185   0.001966  -0.004134   0.002651
                 12         13         14         15         16         17    
      0      -0.000854  -0.030701  -0.054946  -0.042379   0.085450  -0.061658
      1       0.010020  -0.023811  -0.061709  -0.013635  -0.037248   0.238443
      2      -0.039637  -0.076374  -0.239160  -0.055479  -0.062519   0.080601
      3      -0.011698  -0.044620  -0.083052  -0.049745   0.062123  -0.071458
      4       0.039380  -0.034293  -0.018618   0.028354   0.024412   0.100478
      5      -0.033224   0.042986  -0.037597   0.000301   0.161114  -0.050081
      6      -0.021916  -0.045650  -0.098039   0.021152   0.018834   0.083890
      7       0.046969  -0.020686   0.005208  -0.028403   0.085509  -0.000550
      8      -0.030084  -0.089241   0.137144  -0.012047   0.188770   0.119350
      9      -0.033688  -0.069916  -0.062988   0.012960  -0.023362   0.081014
     10       0.009941  -0.053269   0.037033  -0.039361   0.133314  -0.063381
     11       0.023219   0.037994   0.177387   0.076739   0.065930   0.058816
     12       0.023759   0.080491   0.081935  -0.045947  -0.090240   0.133085
     13       0.006700   0.098358  -0.129197   0.106331   0.001912  -0.157114
     14       0.023303   0.060805  -0.092510   0.054825   0.230921   0.072381
     15       0.050184   0.139138   0.026599  -0.022601  -0.079209   0.166184
     16      -0.006654   0.009936   0.007844   0.042834   0.001573  -0.222409
     17       0.025675   0.011664   0.068603  -0.016365   0.033764   0.080864
     18       0.238302  -0.258114  -0.082882   0.251389  -0.038522   0.061167
     19      -0.303235   0.260277   0.003777  -0.348079   0.126598   0.058524
     20       0.173129  -0.211485  -0.323551   0.042829  -0.116184   0.238448
     21      -0.243699   0.214995   0.089778  -0.313229   0.216178  -0.302553
     22      -0.358480   0.311214   0.024365  -0.376743   0.152332   0.048228
     23      -0.103340  -0.052842  -0.334750  -0.064829  -0.042323   0.201652
     24      -0.004615  -0.037061  -0.035715  -0.080094   0.126842  -0.199107
     25       0.042250  -0.028505   0.007731   0.007429   0.062951   0.025141
     26      -0.005934   0.085318   0.043498  -0.015774   0.177033  -0.249506
     27      -0.017223  -0.036939  -0.107481   0.072165  -0.047117   0.180913
     28       0.045897  -0.017390  -0.000526   0.005384   0.048850   0.059829
     29      -0.004458  -0.064651   0.067249  -0.041938   0.349088   0.232770
     30       0.276405  -0.056123   0.003182  -0.200142   0.158986  -0.083027
     31      -0.354959  -0.011986  -0.026052   0.251354  -0.067441   0.127223
     32      -0.118093   0.206317   0.167217   0.245144   0.034619   0.116713
     33      -0.280598   0.026320  -0.075568   0.286333  -0.209445   0.204869
     34      -0.411421   0.023838  -0.030364   0.287896  -0.093841   0.157569
     35       0.131205   0.074844   0.235501   0.121273   0.066733  -0.001970
     36       0.011668   0.189843   0.041724  -0.101536  -0.116283   0.206650
     37       0.167081   0.067929  -0.101918  -0.198996   0.069968  -0.197346
     38      -0.120593   0.018149   0.140749   0.064467  -0.054552   0.089120
     39      -0.034099   0.047950   0.196837   0.168567  -0.237208   0.133602
     40       0.110986  -0.004039  -0.128987  -0.110616  -0.030596  -0.227646
     41       0.100439  -0.048915  -0.030840  -0.117341  -0.053719   0.065961
     42       0.192606   0.535043  -0.274037  -0.021433   0.058275   0.281919
     43       0.015931  -0.051494   0.276576  -0.200264  -0.547708  -0.031408
     44      -0.138288  -0.448025   0.490725  -0.164540  -0.242498   0.044509
     45      -0.002620  -0.012217   0.031716   0.018243   0.005083  -0.055878
     46      -0.002793  -0.003364   0.023657  -0.005837  -0.027971   0.015460
     47       0.005706   0.007396  -0.007835  -0.008086  -0.094389  -0.063714
                 18         19         20         21         22         23    
      0      -0.019347  -0.049635   0.056603   0.001595  -0.192005   0.058738
      1      -0.057799   0.005908   0.043896   0.258107  -0.213254   0.005128
      2       0.339323   0.068014  -0.049729  -0.026697  -0.024927  -0.098941
      3       0.063668   0.016924   0.021820   0.019041  -0.172252   0.006692
      4       0.015478  -0.056027   0.091574  -0.220495   0.057246  -0.002227
      5      -0.052649  -0.153415   0.204437   0.071580  -0.028088   0.047811
      6      -0.041681  -0.037942   0.012280   0.015316   0.180116  -0.026767
      7       0.059562  -0.015579   0.094723  -0.219566  -0.036132   0.007333
      8      -0.083954  -0.039276  -0.209894  -0.056648  -0.117477  -0.050089
      9       0.061492  -0.015751   0.021056  -0.005530   0.215532   0.024842
     10       0.081523   0.042936  -0.011142   0.266132   0.214355  -0.023604
     11       0.392421   0.211916   0.039357   0.009700  -0.020039   0.125655
     12       0.088121  -0.185548  -0.146650   0.004833  -0.013854   0.012635
     13       0.075291  -0.049852  -0.046184   0.013723  -0.154160  -0.033748
     14      -0.149375   0.039756  -0.119242  -0.010768   0.045732   0.018304
     15       0.022140  -0.064037  -0.065710  -0.001632  -0.031102  -0.006691
     16       0.195873  -0.259897  -0.189594   0.031518   0.064421   0.021954
     17      -0.005986  -0.215898   0.199604   0.019968   0.048319  -0.046465
     18      -0.087703  -0.107330   0.155542   0.269685  -0.459114  -0.132757
     19       0.073194   0.113022  -0.021273  -0.035962   0.055549   0.023102
     20       0.145180  -0.090819  -0.119930  -0.088710   0.087648   0.418107
     21       0.170271   0.060619   0.057320  -0.181008  -0.099388  -0.210805
     22       0.049796   0.114790   0.036709  -0.030725   0.064492   0.091698
     23       0.156484   0.015990  -0.031947  -0.023598   0.099166   0.416526
     24       0.139790   0.024057   0.054045  -0.288845  -0.219199  -0.037117
     25       0.059117  -0.051986   0.110142  -0.394249   0.014416  -0.021488
     26      -0.036867  -0.346764   0.390307   0.128514   0.144995   0.097986
     27      -0.081908  -0.123363   0.058999  -0.289332   0.224967  -0.086149
     28       0.034545  -0.066003   0.118257  -0.392772   0.006437  -0.023678
     29      -0.282206  -0.050638  -0.458426  -0.111270   0.041524  -0.093459
     30       0.177611   0.072355   0.067483   0.236573   0.438573  -0.230356
     31      -0.059373  -0.057895   0.028200   0.007348  -0.043461   0.050345
     32       0.303525   0.178597   0.222522   0.090773  -0.030512  -0.436276
     33      -0.021945  -0.117033   0.147685  -0.162770   0.046158  -0.237575
     34      -0.045352  -0.052469   0.082601   0.007632  -0.007790   0.115987
     35       0.375798   0.159424   0.109024   0.014220  -0.081078  -0.425523
     36       0.067552   0.014690  -0.026441   0.030749  -0.106377  -0.009454
     37       0.118625  -0.075746  -0.048184  -0.087014  -0.068937  -0.016333
     38       0.072933  -0.232891   0.158938   0.148153   0.056147  -0.051268
     39       0.158900  -0.476018  -0.089574   0.093729   0.085763   0.084513
     40       0.138058  -0.095207  -0.128056   0.014866   0.023863  -0.015902
     41      -0.010234  -0.150655   0.212062   0.034083   0.050920  -0.049402
     42      -0.101206   0.226595   0.051984   0.000089   0.237135   0.032507
     43       0.212038  -0.012748   0.358595   0.005400  -0.134349   0.009876
     44       0.123597  -0.323703  -0.064101  -0.024089  -0.184769   0.038564
     45      -0.031531   0.055875   0.009104  -0.001381   0.000166  -0.000004
     46      -0.062935   0.052309  -0.004260  -0.008032   0.011283   0.001088
     47      -0.076811   0.023980  -0.014980  -0.003193   0.012182   0.001629
                 24         25         26         27         28         29    
      0      -0.019089   0.061627  -0.001951   0.018942  -0.010438  -0.016760
      1      -0.032518  -0.001430   0.016080   0.009936   0.007645  -0.008019
      2      -0.047947  -0.028657   0.051864   0.024739   0.004053  -0.013130
      3      -0.056726   0.009388  -0.017187  -0.017474   0.007567   0.030405
      4      -0.010279  -0.013497   0.015321   0.001946   0.011709   0.001194
      5      -0.015097   0.027345  -0.070801   0.003552  -0.043380  -0.016524
      6       0.040397  -0.008967  -0.001044   0.012627  -0.010923   0.019180
      7      -0.020238   0.016461   0.000460  -0.023031   0.006964  -0.006675
      8       0.037923   0.042612   0.053448  -0.059969  -0.011528  -0.000736
      9       0.036908  -0.065048  -0.007196  -0.003395  -0.003082  -0.011442
     10       0.038655   0.005241   0.001366  -0.010915  -0.005861   0.006235
     11      -0.017198  -0.057192  -0.008216   0.034683   0.007708  -0.016516
     12       0.000609  -0.007700   0.002939  -0.016996   0.019402  -0.048348
     13       0.224254  -0.087500  -0.036066   0.004246   0.013521   0.024062
     14      -0.001851  -0.067346   0.043686  -0.076466  -0.026316   0.106191
     15       0.064893   0.001247   0.037984   0.029788  -0.034605  -0.031020
     16      -0.125763   0.052108   0.016365   0.015150  -0.061158   0.010949
     17       0.029482  -0.059531  -0.007482   0.036873  -0.075462  -0.061270
     18      -0.248975  -0.103561   0.102613   0.093465  -0.006560  -0.024211
     19       0.085733   0.024642  -0.026620  -0.020788   0.011134  -0.023495
     20       0.300206   0.421010  -0.146655  -0.080115  -0.012538   0.014560
     21      -0.115343  -0.164044   0.072379   0.045987  -0.044217  -0.042119
     22       0.099402   0.081847  -0.034753  -0.012080   0.015371  -0.011801
     23       0.235815   0.398627  -0.109426  -0.038218   0.050498   0.025564
     24      -0.101770  -0.024174  -0.041214  -0.041526   0.017525  -0.010558
     25      -0.037318  -0.027677   0.001736  -0.011682   0.022683  -0.021552
     26       0.151195   0.133703   0.680800   0.211022   0.656623   0.118640
     27       0.027234   0.020811  -0.016132   0.034754   0.011543   0.072709
     28      -0.023707   0.026816  -0.007275  -0.011709   0.017489   0.017970
     29      -0.069465   0.004475  -0.436180   0.825029   0.228211   0.244653
     30       0.153059   0.120050  -0.075890  -0.081517   0.015369  -0.052562
     31      -0.063155  -0.015184   0.038944   0.018963  -0.022227   0.048941
     32       0.075377   0.469344  -0.090442  -0.105084   0.026033   0.024589
     33       0.035362   0.196751  -0.045709  -0.029597   0.035063   0.038155
     34      -0.088164  -0.069673   0.040675   0.010671  -0.020532  -0.003418
     35       0.107960   0.413497  -0.104523  -0.027749   0.068714   0.060176
     36       0.015839  -0.151498  -0.268227  -0.233907   0.356138   0.101280
     37       0.257722  -0.071267  -0.058959  -0.008423   0.076432  -0.042196
     38      -0.259671  -0.135494  -0.244477  -0.217445   0.201241   0.141097
     39      -0.252472   0.045049  -0.063359  -0.135004   0.260528   0.105396
     40      -0.155054  -0.047055  -0.144610  -0.163861   0.182623   0.151080
     41      -0.192652  -0.153215  -0.240046  -0.237139   0.277067   0.168491
     42      -0.417657   0.137689   0.129432   0.028023  -0.182925   0.318460
     43       0.149657   0.037895   0.109320   0.080621  -0.317838   0.789983
     44       0.355049  -0.143684   0.007084  -0.078511  -0.049279   0.251673
     45       0.001343   0.000449   0.000564   0.000497  -0.001012   0.002326
     46      -0.013981   0.005055  -0.001005   0.001893   0.004526  -0.015595
     47      -0.006671   0.003695  -0.000768   0.002324   0.003536  -0.012941
                 30         31         32         33         34         35    
      0      -0.140010  -0.055906  -0.003790   0.191066  -0.003236  -0.008356
      1       0.040226   0.039967  -0.005958   0.026965  -0.013983  -0.015626
      2      -0.029784  -0.013796   0.006033   0.022652  -0.009557  -0.021780
      3       0.112106   0.019138   0.028475  -0.272985   0.096927   0.038909
      4      -0.153950  -0.072237  -0.115484  -0.044538   0.115322   0.059262
      5      -0.018310  -0.000206  -0.003883   0.021108  -0.009841  -0.012370
      6      -0.119811   0.002278  -0.031011  -0.273838  -0.119884  -0.055823
      7       0.175035  -0.049349   0.112453  -0.041142  -0.126429  -0.049243
      8      -0.015508  -0.001393  -0.003713  -0.016951  -0.008171   0.001261
      9       0.158667  -0.030776   0.003771   0.195952   0.020096   0.015125
     10      -0.053625   0.031376   0.007428   0.026642   0.027673   0.004306
     11      -0.035047   0.009253   0.007070  -0.024999  -0.002569   0.000626
     12       0.030350   0.002073   0.000888  -0.011855   0.370605   0.023241
     13      -0.000397   0.001538   0.000276  -0.002443   0.084620   0.021577
     14       0.035955  -0.009773  -0.000818   0.065451  -0.003152  -0.012832
     15      -0.009627   0.007493   0.002585   0.006077  -0.402600   0.065660
     16       0.011146   0.005133  -0.000456  -0.002922  -0.112883   0.014040
     17       0.049644   0.016166   0.003455  -0.068956   0.035766  -0.009899
     18      -0.186846  -0.096948   0.030474   0.361111  -0.040702   0.016775
     19       0.016046   0.038778  -0.026020  -0.091797   0.028868  -0.037216
     20      -0.046941  -0.016788  -0.017412   0.059083   0.020534   0.069388
     21      -0.315662  -0.171394   0.019609   0.339284  -0.026980   0.010115
     22      -0.093630  -0.042031  -0.008156   0.090189   0.000279   0.078326
     23       0.039733   0.051431  -0.037864   0.012640  -0.014142   0.057759
     24       0.315479   0.661001  -0.523853   0.221700  -0.192259  -0.101855
     25      -0.023257   0.295720  -0.423285   0.241024  -0.041912  -0.013724
     26       0.131512   0.044073  -0.003684  -0.050397  -0.010780   0.092041
     27      -0.550677   0.558294   0.557560   0.202331   0.235069   0.058981
     28      -0.085469   0.268263   0.441768   0.233538   0.069820   0.012689
     29       0.145597  -0.034889  -0.013986   0.056346   0.007963   0.008685
     30       0.221267  -0.063493  -0.033704   0.360363   0.057232   0.007846
     31      -0.030484   0.034632   0.027751  -0.080141  -0.007189   0.003988
     32      -0.059629   0.008006  -0.019631  -0.047851   0.061330   0.014102
     33       0.363739  -0.117394  -0.024833   0.343296   0.032129  -0.006153
     34       0.112008  -0.027897   0.007993   0.083090  -0.028320  -0.033434
     35       0.044601  -0.044250  -0.043595  -0.001815   0.034145   0.006274
     36      -0.151295  -0.040171   0.009550   0.052763  -0.355984  -0.227998
     37      -0.078720  -0.028716   0.003620   0.009461   0.093148  -0.534006
     38      -0.014707  -0.001568   0.015238  -0.030768  -0.162193   0.278604
     39      -0.143792  -0.053081  -0.020493   0.064087  -0.069434  -0.606091
     40      -0.074936  -0.019150   0.002260   0.041751  -0.278585   0.271160
     41      -0.059828  -0.021725  -0.004316   0.003916  -0.110106   0.281247
     42       0.076040  -0.005947  -0.027533   0.024774   0.501041  -0.063040
     43      -0.011830  -0.017039  -0.044143   0.073436   0.037102  -0.057545
     44       0.005183  -0.014102   0.001824   0.078622  -0.054698   0.012649
     45      -0.000072  -0.000091   0.000029   0.000042   0.003959  -0.000341
     46       0.000638   0.000210   0.000492  -0.001948   0.005460  -0.001251
     47      -0.000379   0.000338   0.000333  -0.000752   0.002504  -0.002087
                 36         37         38         39         40         41    
      0       0.080905  -0.071307   0.095122  -0.000822   0.002541   0.000292
      1       0.014185  -0.001974   0.000312   0.023803  -0.059580   0.021602
      2       0.010651  -0.016255   0.025777  -0.005028   0.012117  -0.004799
      3      -0.250165   0.026969  -0.028415  -0.001147  -0.000861   0.000041
      4      -0.192049  -0.005523   0.008140   0.002376  -0.009367   0.001686
      5      -0.023891  -0.009063   0.009112  -0.000840  -0.000584  -0.001230
      6       0.240513   0.033765   0.016108   0.002147   0.001125   0.002552
      7       0.196295  -0.007543  -0.005916  -0.008373  -0.001260   0.004549
      8      -0.014215   0.012937   0.007920  -0.001005  -0.000959  -0.001185
      9      -0.075854  -0.095793  -0.068105   0.001784  -0.001129  -0.002339
     10      -0.018555  -0.002387   0.000019  -0.052655  -0.003778   0.042373
     11       0.019468   0.023929   0.022661  -0.012066  -0.001771   0.008007
     12       0.158146   0.000454   0.006424  -0.001748  -0.005727  -0.002316
     13       0.048399   0.003798   0.003222   0.003102   0.004660   0.003139
     14      -0.017728  -0.004169  -0.007634  -0.000387  -0.002374   0.001175
     15      -0.117762  -0.006029   0.002826  -0.012566  -0.009818  -0.015479
     16      -0.032937   0.000395  -0.000975   0.035580   0.030188   0.044207
[...]
     43       0.007563   0.037722   0.104921  -0.217049  -0.002069   0.023061
     44      -0.040375   0.018737   0.176798  -0.159808   0.010918   0.052932
     45       0.000008   0.000110   0.000540  -0.000709  -0.000048   0.000224
     46      -0.000171  -0.000085  -0.000020  -0.000366   0.000177   0.000011
     47      -0.000084   0.000032   0.000387  -0.000895   0.000063   0.000161
                 36         37         38         39         40         41    
      0      -0.052603  -0.232261   0.044446  -0.000921   0.015145   0.052283
      1       0.017885   0.000583   0.003117   0.006824  -0.026153  -0.016448
      2       0.011544   0.128028  -0.025259   0.001003  -0.003398  -0.009825
      3      -0.032599   0.215380  -0.142928   0.019141  -0.024875   0.008476
      4      -0.043563   0.048035  -0.074619  -0.042725   0.050408  -0.019299
      5      -0.002486  -0.118120   0.037896  -0.009063   0.010988  -0.002621
      6       0.021807   0.037042   0.372941  -0.026296  -0.021632   0.006288
      7       0.043384  -0.034722   0.074317   0.055837   0.042195  -0.012765
      8      -0.003810   0.038561   0.139361  -0.005252  -0.003875   0.001088
      9       0.047615  -0.111080  -0.312571   0.001299   0.003385  -0.002563
     10      -0.014920   0.009517   0.013546  -0.005412  -0.009901   0.004764
     11       0.015057  -0.050141  -0.137341   0.000856   0.000575  -0.000652
     12       0.057761  -0.045953   0.077171   0.000014   0.000173  -0.001310
     13       0.040599  -0.031994   0.044336   0.000014   0.000097   0.000468
     14       0.014546  -0.004549  -0.017725   0.000086   0.000232  -0.000225
     15      -0.105034   0.067472  -0.081062  -0.000339  -0.001810  -0.013413
     16      -0.073192   0.036573  -0.045887  -0.000146  -0.002347  -0.009203
     17       0.017543   0.017112  -0.020346   0.000317   0.001117   0.008916
     18       0.321896   0.294931  -0.008012  -0.031054   0.005724  -0.316549
     19      -0.272970  -0.410111   0.042347  -0.036694  -0.013849  -0.444094
     20      -0.094308  -0.066514   0.006663   0.006203  -0.001805   0.055258
     21       0.319552   0.467444  -0.075733   0.035591  -0.174257  -0.299889
     22       0.189132   0.354926  -0.057894  -0.065037   0.350620   0.638265
     23      -0.045188  -0.129081   0.001964  -0.009163   0.029686   0.046377
     24       0.062004  -0.171540   0.214680  -0.250648   0.289266  -0.107617
     25       0.001037  -0.164260   0.094776   0.546731  -0.628167   0.235519
     26      -0.007879   0.028831  -0.002247   0.099382  -0.120911   0.043544
     27      -0.069654   0.051135  -0.280307   0.328083   0.242426  -0.071113
     28       0.001208  -0.035925  -0.250256  -0.705939  -0.516968   0.152718
     29       0.000138  -0.005011   0.009256   0.048945   0.040770  -0.011579
     30      -0.228841   0.159240   0.183467   0.027850   0.025494  -0.003400
     31       0.199353  -0.200267  -0.375472   0.034764   0.026930   0.000341
     32      -0.068474   0.023089   0.022800   0.009947   0.008576  -0.000179
     33      -0.214937   0.185511   0.358878  -0.028928  -0.053177   0.029253
     34      -0.133601   0.155794   0.353754   0.053130   0.107166  -0.061802
     35      -0.053640   0.070146   0.104139  -0.006987  -0.007877   0.003783
     36       0.105092  -0.034221   0.016838   0.005653   0.024845   0.183613
     37       0.454464  -0.089660   0.077694  -0.002766  -0.013125  -0.095065
     38      -0.116293  -0.050498   0.050860  -0.002596  -0.011285  -0.086981
     39       0.446518  -0.115872   0.091060  -0.000657  -0.004829  -0.023720
     40      -0.023388   0.015750  -0.025391   0.006179   0.040539   0.205544
     41      -0.170148  -0.006402   0.011112  -0.000609  -0.002700  -0.016140
     42       0.035295  -0.020186   0.020741  -0.001352  -0.003003   0.016744
     43      -0.059133   0.035663  -0.037945   0.000908   0.001602  -0.008518
     44      -0.051711  -0.001617   0.068648  -0.000121  -0.001007   0.004872
     45      -0.000323   0.000133  -0.000266   0.000001   0.000005  -0.000003
     46      -0.000012   0.000057   0.000024  -0.000035  -0.000022   0.000031
     47      -0.000212   0.000092   0.000073  -0.000017  -0.000008   0.000007
                 42         43         44         45         46         47    
      0      -0.012749   0.005008  -0.024719  -0.000328   0.001081  -0.000741
      1       0.018918   0.009172  -0.082754  -0.023508   0.001988   0.005756
      2       0.003432  -0.000973   0.005765  -0.000090  -0.000355   0.000742
      3      -0.002403   0.000740   0.007345   0.002473  -0.001443  -0.001255
      4       0.006383  -0.002569  -0.018051  -0.006259   0.002159   0.003546
      5       0.000756  -0.000400  -0.003989  -0.000890   0.000670   0.000847
      6      -0.000916   0.000610   0.002428   0.000698  -0.004089  -0.002830
      7       0.001860  -0.005300  -0.004533  -0.001298   0.010784   0.007023
      8      -0.000372  -0.001163   0.000563   0.000319  -0.001012  -0.000614
      9       0.002556   0.056012   0.007166   0.001314   0.019909   0.004210
     10      -0.000654  -0.022529   0.002525   0.005102   0.080487   0.042672
     11       0.000529   0.014142   0.002227   0.000766   0.010529   0.003623
     12      -0.003253  -0.006795   0.001092  -0.020819   0.032962  -0.062431
     13       0.000855   0.002892   0.000012   0.006775  -0.013865   0.027210
     14      -0.000611  -0.002001   0.000569  -0.006860   0.009102  -0.017330
     15      -0.022772   0.000901  -0.019012   0.057083   0.005332  -0.014732
     16      -0.053424   0.003660   0.008695  -0.059721  -0.007901   0.022653
     17       0.017982  -0.000686   0.008905  -0.022796  -0.001827   0.004709
     18       0.021147  -0.072421   0.503298   0.094272  -0.015053  -0.018303
     19       0.043323  -0.091661   0.629852   0.113046  -0.019166  -0.021101
     20      -0.003308   0.011975  -0.087598  -0.016635   0.001853   0.002396
     21       0.133710   0.013833  -0.216479  -0.091823   0.003507   0.025849
     22      -0.271244  -0.021407   0.380145   0.172655  -0.004798  -0.048422
     23      -0.023401  -0.001753   0.033243   0.015921  -0.000650  -0.004379
     24       0.032413  -0.013515  -0.082638  -0.030798   0.013204   0.018590
     25      -0.070983   0.030735   0.183808   0.066655  -0.033490  -0.043219
     26      -0.012216   0.005685   0.031959   0.011371  -0.006061  -0.008018
     27       0.010166  -0.027449  -0.027580  -0.008438   0.041193   0.029794
     28      -0.022365   0.061232   0.063577   0.019390  -0.093248  -0.066556
     29       0.001569  -0.002987  -0.005098  -0.001990   0.004698   0.003462
     30      -0.014806  -0.302956  -0.059678  -0.028058  -0.444743  -0.189171
     31      -0.022508  -0.458642  -0.084960  -0.036991  -0.589606  -0.245321
     32      -0.005185  -0.104722  -0.021652  -0.009956  -0.149327  -0.063555
     33      -0.014207  -0.340275  -0.023265   0.013866   0.216000   0.146014
     34       0.031315   0.731182   0.052820  -0.026439  -0.395842  -0.277504
     35      -0.001495  -0.043853  -0.003027   0.002690   0.030378   0.022491
     36       0.336679  -0.012890   0.232197  -0.665354  -0.066044   0.173098
     37      -0.193540   0.007206  -0.114970   0.313108   0.031337  -0.081057
     38      -0.159601   0.005770  -0.113358   0.325568   0.032144  -0.083898
     39      -0.082975   0.004555  -0.007815  -0.018681  -0.003863   0.011676
     40       0.837567  -0.046793   0.004806   0.430827   0.052994  -0.175438
     41      -0.068234   0.004128   0.001721  -0.048708  -0.005458   0.018803
     42       0.050641   0.078916  -0.012534   0.258438  -0.388789   0.735533
     43      -0.021863  -0.035588   0.005983  -0.121574   0.186125  -0.350691
     44       0.014173   0.020243  -0.003520   0.072833  -0.109557   0.207969
     45      -0.000021  -0.000010   0.000009  -0.000064   0.000052  -0.000079
     46       0.000011  -0.000018   0.000003   0.000121  -0.000150   0.000154
     47      -0.000013  -0.000010   0.000000   0.000013  -0.000024   0.000004


The first frequency considered to be a vibration is 7
The total number of vibrations considered is 41


--------------------------
THERMOCHEMISTRY AT 298.15K
--------------------------

Temperature         ...   298.15 K
Pressure            ...     1.00 atm
Total Mass          ...   161.04 AMU
Quasi RRHO          ...     True
Cut-Off Frequency   ...     1.00 cm^-1

Throughout the following assumptions are being made:
  (1) The electronic state is orbitally nondegenerate
  (2) There are no thermally accessible electronically excited states
  (3) Hindered rotations indicated by low frequency modes are not
      treated as such but are treated as vibrations and this may
      cause some error
  (4) All equations used are the standard statistical mechanics
      equations for an ideal gas
  (5) All vibrations are strictly harmonic

freq.      75.09  E(vib)   ...       0.49 
freq.     107.04  E(vib)   ...       0.45 
freq.     150.76  E(vib)   ...       0.40 
freq.     266.14  E(vib)   ...       0.29 
freq.     326.38  E(vib)   ...       0.24 
freq.     363.99  E(vib)   ...       0.22 
freq.     414.18  E(vib)   ...       0.19 
freq.     501.28  E(vib)   ...       0.14 
freq.     531.70  E(vib)   ...       0.13 
freq.     566.97  E(vib)   ...       0.11 
freq.     739.61  E(vib)   ...       0.06 
freq.     768.32  E(vib)   ...       0.06 
freq.     795.99  E(vib)   ...       0.05 
freq.     871.04  E(vib)   ...       0.04 
freq.     927.42  E(vib)   ...       0.03 
freq.     940.14  E(vib)   ...       0.03 
freq.     966.58  E(vib)   ...       0.03 
freq.     990.95  E(vib)   ...       0.02 
freq.    1017.79  E(vib)   ...       0.02 
freq.    1050.04  E(vib)   ...       0.02 
freq.    1072.07  E(vib)   ...       0.02 
freq.    1092.66  E(vib)   ...       0.02 
freq.    1202.98  E(vib)   ...       0.01 
freq.    1236.71  E(vib)   ...       0.01 
freq.    1256.59  E(vib)   ...       0.01 
freq.    1272.44  E(vib)   ...       0.01 
freq.    1299.07  E(vib)   ...       0.01 
freq.    1362.48  E(vib)   ...       0.01 
freq.    1421.19  E(vib)   ...       0.00 
freq.    1439.02  E(vib)   ...       0.00 
freq.    1517.94  E(vib)   ...       0.00 
freq.    1563.11  E(vib)   ...       0.00 
freq.    3046.94  E(vib)   ...       0.00 
freq.    3052.34  E(vib)   ...       0.00 
freq.    3061.05  E(vib)   ...       0.00 
freq.    3066.62  E(vib)   ...       0.00 
freq.    3080.83  E(vib)   ...       0.00 
freq.    3084.65  E(vib)   ...       0.00 
freq.    3097.16  E(vib)   ...       0.00 
freq.    3110.25  E(vib)   ...       0.00 
freq.    3114.46  E(vib)   ...       0.00 

------------
INNER ENERGY
------------

The inner energy is: U= E(el) + E(ZPE) + E(vib) + E(rot) + E(trans)
    E(el)   - is the total energy from the electronic structure calculation
              = E(kin-el) + E(nuc-el) + E(el-el) + E(nuc-nuc)
    E(ZPE)  - the the zero temperature vibrational energy from the frequency calculation
    E(vib)  - the the finite temperature correction to E(ZPE) due to population
              of excited vibrational states
    E(rot)  - is the rotational thermal energy
    E(trans)- is the translational thermal energy

Summary of contributions to the inner energy U:
Electronic energy                ...    -21.37527424 Eh
Zero point energy                ...      0.12717174 Eh      79.80 kcal/mol
Thermal vibrational correction   ...      0.00496236 Eh       3.11 kcal/mol
Thermal rotational correction    ...      0.00141627 Eh       0.89 kcal/mol
Thermal translational correction ...      0.00141627 Eh       0.89 kcal/mol
-----------------------------------------------------------------------
Total thermal energy                    -21.24030759 Eh


Summary of corrections to the electronic energy:
(perhaps to be used in another calculation)
Total thermal correction                  0.00779491 Eh       4.89 kcal/mol
Non-thermal (ZPE) correction              0.12717174 Eh      79.80 kcal/mol
-----------------------------------------------------------------------
Total correction                          0.13496665 Eh      84.69 kcal/mol


--------
ENTHALPY
--------

The enthalpy is H = U + kB*T
                kB is Boltzmann's constant
Total thermal energy              ...    -21.24030759 Eh 
Thermal Enthalpy correction       ...      0.00094421 Eh       0.59 kcal/mol
-----------------------------------------------------------------------
Total Enthalpy                    ...    -21.23936338 Eh


WARNING (ORCA/SYM): The number of Z matrix atoms does not agree with
the number of centers in the basis set. The point group will therefore
be determined without considering basis set information.


Note: Only C1 symmetry has been detected, increase convergence thresholds 
      if your molecule has a higher symmetry. Symmetry factor of 1.0 is   
      used for the rotational entropy correction. 
 

Note: Rotational entropy computed according to Herzberg 
Infrared and Raman Spectra, Chapter V,1, Van Nostrand Reinhold, 1945 
Point Group:  C1, Symmetry Number:   1  
Rotational constants in cm-1:     0.107717     0.036049     0.031445 

Vibrational entropy computed according to the QRRHO of S. Grimme
Chem.Eur.J. 2012 18 9955 using a reference frequency of 100.0 cm-1


-------
ENTROPY
-------

The entropy contributions are T*S = T*(S(el)+S(vib)+S(rot)+S(trans))
     S(el)   - electronic entropy
     S(vib)  - vibrational entropy
     S(rot)  - rotational entropy
     S(trans)- translational entropy
The entropies will be listed as multiplied by the temperature to get
units of energy

Electronic entropy                ...      0.00000000 Eh      0.00 kcal/mol
Vibrational entropy               ...      0.00836251 Eh      5.25 kcal/mol
Rotational entropy                ...      0.01376465 Eh      8.64 kcal/mol
Translational entropy             ...      0.01954605 Eh     12.27 kcal/mol
-----------------------------------------------------------------------
Final entropy term                ...      0.04167321 Eh     26.15 kcal/mol

In case the symmetry of your molecule has not been determined correctly
or in case you have a reason to use a different symmetry number we print 
out the resulting rotational entropy values for sn=1,12:

 non-linear molecules -----------------------------------
|  sn= 1 | S(rot)=       0.01376465 Eh      8.64 kcal/mol|
|  sn= 2 | S(rot)=       0.01311019 Eh      8.23 kcal/mol|
|  sn= 3 | S(rot)=       0.01272736 Eh      7.99 kcal/mol|
|  sn= 4 | S(rot)=       0.01245574 Eh      7.82 kcal/mol|
|  sn= 5 | S(rot)=       0.01224505 Eh      7.68 kcal/mol|
|  sn= 6 | S(rot)=       0.01207290 Eh      7.58 kcal/mol|
|  sn= 7 | S(rot)=       0.01192736 Eh      7.48 kcal/mol|
|  sn= 8 | S(rot)=       0.01180128 Eh      7.41 kcal/mol|
|  sn= 9 | S(rot)=       0.01169007 Eh      7.34 kcal/mol|
|  sn=10 | S(rot)=       0.01159059 Eh      7.27 kcal/mol|
|  sn=11 | S(rot)=       0.01150060 Eh      7.22 kcal/mol|
|  sn=12 | S(rot)=       0.01141845 Eh      7.17 kcal/mol|
 linear molecules ---------------------------------------
|  Dinfh | S(rot)=       0.00859222 Eh      5.39 kcal/mol|
|  Cinfv | S(rot)=       0.00924668 Eh      5.80 kcal/mol|
 --------------------------------------------------------


-------------------
GIBBS FREE ENERGY
-------------------

The Gibbs free energy is G = H - T*S

Total enthalpy                    ...    -21.23936338 Eh 
Total entropy correction          ...     -0.04167321 Eh    -26.15 kcal/mol
-----------------------------------------------------------------------
Final Gibbs free energy         ...    -21.28103659 Eh

For completeness - the Gibbs free energy minus the electronic energy
G-E(el)                           ...      0.09423765 Eh     59.13 kcal/mol


--------------------------------
SUGGESTED CITATIONS FOR THIS RUN
--------------------------------

Below you find a list of papers that are relevant to this ORCA run
We neither can nor want to force you to cite these papers, but we appreciate if you do
You receive ORCA, which is the product of decades of hard work by many enthusiastic individuals, for free
The only thing we kindly ask in return is that you cite our papers,
We deeply appreciate it, if you show your appreciation for ORCA by not just citing the generic ORCA reference.

Please note that relegating all ORCA citations to the supporting information does *not* help us.
SI sections are not indexed - citations you put there will not count into any citation statistics
But we need these citations in order to attract the funding resources that allow us to do what we are doing

Therefore, if you are a happy ORCA user, please consider citing a few of the papers listed below in the main body of your paper

In addition to the list printed below, the program has created the file da_br.bibtex that contains the list in bibtex format
You can import this file easily into all common literature databanks and citation aid programs


List of essential papers. We consider these as the minimum necessary citations

  1. Bannwarth, C.; Ehlert, S.; Grimme, S.
     GFN2-xTB—An Accurate and Broadly Parametrized Self-Consistent Tight-Binding Quantum Chemical Method with Multipole Electrostatics and Density-Dependent Dispersion Contributions
     J. Chem. Theory Comput. 2019 15(3), 1652-1671
     doi.org/10.1021/acs.jctc.8b01176
  2. Neese, F.
     Software update: the ORCA program system, version 6.0
     WIRES Comput. Molec. Sci. 2025 15(1), e70019
     doi.org/10.1002/wcms.7019

List of papers to cite with high priority. The work reported in these papers was absolutely
necessary for this run to complete.
Our perspective: the developers of density functionals and basis sets usually get cited in chemistry papers
Good! But without the algorithms to do something with them, the functionals or basis sets would not do anything.
Hence, in our opinion, the algorithm design and method developments papers are equally worthy of getting cited

  1. Bykov, D.; Petrenko, T.; Izsak, R.; Kossmann, S.; Becker, U.; Valeev, E.; Neese, F.
     Efficient implementation of the analytic second derivatives of Hartree-Fock and hybrid DFT energies: a detailed analysis of different approximations
     Molec. Phys. 2015 113 , 1961-1977
     doi.org/10.1080/00268976.2015.1025114
  2. Bannwarth, C.; Caldeweyher, E.; Ehlert, S.; Hansen, A.; Pracht, P.; Seibert, J.; Spicher, S.; Grimme, S.
     Extended tight-binding quantum chemistry methods
     WIRES Comput. Molec. Sci. 2020 11(2), e1493
     doi.org/10.1002/wcms.1493

List of suggested additional citations. These are papers that are important in the 'surrounding' of 
of this run, or papers that preceded the highly important papers. If you like your results we are grateful for a citation.

  1. Neese, F.
     The ORCA program system
     WIRES Comput. Molec. Sci. 2012 2(1), 73-78
     doi.org/10.1002/wcms.81
  2. Neese, F.
     Software update: the ORCA program system, version 4.0
     WIRES Comput. Molec. Sci. 2018 8(1), 1-6
     doi.org/10.1002/wcms.1327
  3. Neese, F.; Wennmohs, F.; Becker, U.; Riplinger, C.
     The ORCA quantum chemistry program package
     J. Chem. Phys. 2020 152(22), 224108
     doi.org/10.1063/5.0004608
  4. Neese, F.
     Software update: The ORCA program system—Version 5.0
     WIRES Comput. Molec. Sci. 2022 12(1), e1606
     doi.org/10.1002/wcms.1606

List of optional additional citations

  1. Neese, F.
     Approximate second-order SCF convergence for spin unrestricted wavefunctions
     Chem. Phys. Lett. 2000 325(1-3), 93-98
     doi.org/10.1016/s0009-2614(00)00662-x

Timings for individual modules:

Sum of individual times          ...       26.967 sec (=   0.449 min)
Geometry relaxation              ...        1.665 sec (=   0.028 min)   6.2 %
XTB module                       ...       25.302 sec (=   0.422 min)  93.8 %
                             ****ORCA TERMINATED NORMALLY****
TOTAL RUN TIME: 0 days 0 hours 0 minutes 46 seconds 806 msec
