
                                 *****************
                                 * O   R   C   A *
                                 *****************

                                            #,                                       
                                            ###                                      
                                            ####                                     
                                            #####                                    
                                            ######                                   
                                           ########,                                 
                                     ,,################,,,,,                         
                               ,,#################################,,                 
                          ,,##########################################,,             
                       ,#########################################, ''#####,          
                    ,#############################################,,   '####,        
                  ,##################################################,,,,####,       
                ,###########''''           ''''###############################       
              ,#####''   ,,,,##########,,,,          '''####'''          '####       
            ,##' ,,,,###########################,,,                        '##       
           ' ,,###''''                  '''############,,,                           
         ,,##''                                '''############,,,,        ,,,,,,###''
      ,#''                                            '''#######################'''  
     '                                                          ''''####''''         
             ,#######,   #######,   ,#######,      ##                                
            ,#'     '#,  ##    ##  ,#'     '#,    #''#        ,####,    ,#,          
            ##       ##  ##   ,#'  ##            #'  '#       #'       ,# #          
            ##       ##  #######   ##           ,######,      #####,      #          
            '#,     ,#'  ##    ##  '#,     ,#' ,#      #,     #,   #      #          
             '#######'   ##     ##  '#######'  #'      '#     '####' #    #          



                #########################################################
                #                        -***-                          #
                #          Department of theory and spectroscopy        #
                #                                                       #
                #                      Frank Neese                      #
                #                                                       #
                #     Directorship, Architecture, Infrastructure        #
                #                    SHARK, DRIVERS                     #
                #        Core code/Algorithms in most modules           #
                #                                                       #
                #        Max Planck Institute fuer Kohlenforschung      #
                #                Kaiser Wilhelm Platz 1                 #
                #                 D-45470 Muelheim/Ruhr                 #
                #                      Germany                          #
                #                                                       #
                #                  All rights reserved                  #
                #                        -***-                          #
                #########################################################


                         Program Version 6.1.0  -  RELEASE   -
                                (GIT: $679e74b$)
                          ($2025-06-10 18:02:51 +0200$)


 With contributions from (in alphabetic order):
[Max-Planck-Institut fuer Kohlenforschung]                               
  Daniel Aravena         : Magnetic Suceptibility                        
  Michael Atanasov       : Ab Initio Ligand Field Theory (pilot matlab implementation)
  Alexander A. Auer      : GIAO ZORA, VPT2 properties, NMR spectrum      
  Ute Becker             : All parallelization in ORCA, NUMFREQ, NUMCALC 
  Giovanni Bistoni       : ED, misc. LED, open-shell LED, HFLD           
  Dmytro Bykov           : pre 5.0 version of the SCF Hessian            
  Marcos Casanova-Páez   : Triplet and SCS-CIS(D). UHF-(DLPNO)-IP/EA/STEOM-CCSD. UHF-CVS-IP/STEOM-CCSD   
  Vijay G. Chilkuri      : MRCI spin determinant printing, contributions to CSF-ICE 
  Pauline Colinet        : FMM embedding                                 
  Dipayan Datta          : RHF DLPNO-CCSD density                        
  Achintya Kumar Dutta   : EOM-CC, STEOM-CC                              
  Nicolas Foglia         : Exact transition moments, OPA infrastructure, MCD improvements    
  Dmitry Ganyushin       : Spin-Orbit,Spin-Spin,Magnetic field MRCI      
  Miquel Garcia-Rates    : C-PCM and meta-GGA Hessian, CCSD/C-PCM, Gaussian charge scheme 
  Tiago L. C. Gouveia    : GS-ROHF, GS-ROCIS                             
  Yang Guo               : DLPNO-NEVPT2, F12-NEVPT2, CIM, IAO-localization        
  Andreas Hansen         : Spin unrestricted coupled pair/coupled cluster methods 
  Ingolf Harden          : AUTO-CI MPn and infrastructure                
  Benjamin Helmich-Paris : MC-RPA, TRAH-(SCF,CASSCF), AVAS, COSX integrals, SCF dyn. polar., MC-PDFT, srDFT 
  Lee Huntington         : MR-EOM, pCC                                   
  Robert Izsak           : Overlap fitted RIJCOSX, COSX-SCS-MP3, EOM     
  Riya Kayal             : Wick's Theorem for AUTO-CI, AUTO-CI UHF-CCSDT 
  Emily Kempfer          : AUTO-CI RHF CISDT and CCSDT, approximate NEVPT4
  Christian Kollmar      : KDIIS, OOCD, Brueckner-CCSD(T), CCSD density, CASPT2, CASPT2-K, improved NEVPT2 
  Axel Koslowski         : Symmetry handling                             
  Simone Kossmann        : meta-GGA functionals, TD-DFT gradient, OOMP2, (MP2 Hessian; deprecated post 5.0) 
  Lucas Lang             : DCDCAS, Hyperfine gauge corrections, ICE-SOC+SSC
  Marvin Lechner         : AUTO-CI (C++ implementation), FIC-MRCC        
  Spencer Leger          : CASSCF response                               
  Dagmar Lenk            : GEPOL surface, SMD, ORCA-2-JSON               
  Dimitrios Liakos       : Extrapolation schemes; Compound Job, Property file
  Dimitrios Manganas     : Further ROCIS development; embedding schemes. LFT, Crystal Embedding 
  Dimitrios Pantazis     : SARC Basis sets                               
  Anastasios Papadopoulos: AUTO-CI, single reference methods and gradients 
  Taras Petrenko         : pre 6.0 DFT Hessian and TD-DFT gradient,  ECA, NRVS 
  Petra Pikulova         : Analytic Raman intensities                    
  Peter Pinski           : DLPNO-MP2, DLPNO-MP2 Gradient                 
  Shashank Vittal Rao    : ES-AILFT, MagRelax                            
  Christoph Reimann      : Effective Core Potentials                     
  Marius Retegan         : Local ZFS, SOC                                
  Christoph Riplinger    : Optimizer, TS searches, QM/MM, DLPNO-CCSD(T), (RO)-DLPNO pert. Triples 
  Michael Roemelt        : Original ROCIS implementation, recursive CI coupling coefficients
  Masaaki Saitow         : Open-shell DLPNO-CCSD energy and density      
  Barbara Sandhoefer     : DKH picture change effects                    
  Yorick L. A. Schmerwitz: GMF and freeze-and-release deltaSCF, NEB S-IDPP initial path                    
  Kantharuban Sivalingam : CASSCF convergence/infrastructure, NEVPT2, NEVPT3, NEVPT4(SD), FIC-MRCI and CEPA variants
  Bernardo de Souza      : ESD, SOC TD-DFT                               
  Georgi L. Stoychev     : AutoAux, RI-MP2 NMR, DLPNO-MP2 response, X2C  
  Van Anh Tran           : RI-MP2 g-tensors                              
  Willem Van den Heuvel  : Paramagnetic NMR                              
  Zikuan Wang            : NOTCH, Electric field optimization            
  Frank Wennmohs         : Technical directorship and infrastructure     
  Hang Xu                : AUTO-CI-Response properties                   
                                                                         
[FACCTs GmbH]                                                            
  Markus Bursch, Nicolas Foglia, Miquel Garcia-Rates, Ingolf Harden, Hagen Neugebauer, Anastasios Papadopoulos, 
  Christoph Riplinger, Bernardo de Souza, Georgi L. Stoychev                                                    
                                                                 
  APM, various basis sets, CI-OPT, improved COSX, DLPNO-Multilevel,           
  DOCKER, DRACO, updates on ESD, Fragmentator, GOAT, IRC, LR-CPCM, L-BFGS, MBIS, meta-GGA TD-DFT gradient, ML-optimized integration grids, 
  MM, NACMEs, nearIR, NEB, NEB-TS, NL-DFT gradient (VV10), 2- and 3-layer-ONIOM, interface openCOSMO-RS, QMMM,   
  Crystal-QMMM, RESP, rigid body optimization, SF, symmetry and pop. for TD-DFT, various functionals, SOLVATOR                                   
                                                                         
[Other institutions]                                                     
  V. Asgeirsson          : NEB                                           
  Christoph Bannwarth    : sTDA-DFT, sTD-DFT, PBEh-3c, B97-3c, D3        
  Giovanni Bistoni       : ETS/NOCV, ADLD/ADEX, COVALED                  
  Martin Brehm           : Molecular dynamics                            
  Ronald Cardenas        : ETS/NOCV                                      
  Martina Colucci        : COVALED                                       
  Sebastian Ehlert       : rSCAN, r2SCAN, r2SCAN-3c, D4, dhf basis sets  
  Marvin Friede          : D4 for Fr, Ra, Ac-Lr                          
  Lars Goerigk           : TD-DFT with DH, B97 family of functionals     
  Stefan Grimme          : VdW corrections, initial TS optimization, DFT functionals, gCP, sTDA/sTD-DF 
  Waldemar Hujo          : DFT-NL                                        
  H. Jonsson             : NEB                                           
  Holger Kruse           : gCP                                           
  Marcel Mueller         : wB97X-3c, vDZP basis set                      
  Hagen Neugebauer       : wr2SCAN, Native XTB                           
  Gianluca Regni         : ADLD/ADEX                                     
  Tobias Risthaus        : pre 6.0 range-separated hybrid DFT and stability analysis
  Lukas Wittmann         : regularized MP2, r2SCAN double-hybrids, wr2SCAN        
                                                                         
We gratefully acknowledge several colleagues who have allowed us to      
interface, adapt or use parts of their codes:                            
  Ed Valeev, F. Pavosevic, A. Kumar             : LibInt (2-el integral package), F12 methods 
  Garnet Chan, S. Sharma, J. Yang, R. Olivares  : DMRG                   
  Ulf Ekstrom                                   : XCFun DFT Library      
  Mihaly Kallay                                 : mrcc  (arbitrary order and MRCC methods)
  Frank Weinhold                                : gennbo (NPA and NBO analysis)           
  Simon Mueller                                 : openCOSMO-RS                            
  Christopher J. Cramer and Donald G. Truhlar   : smd solvation model                     
  S Lehtola, MJT Oliveira, MAL Marques          : LibXC Library                           
  Liviu Ungur et al                             : ANISO software                          


 Your calculation uses the libint2 library for the computation of 2-el integrals
 For citations please refer to: http://libint.valeyev.net

 Your ORCA version has been built with support for libXC version: 7.0.0
 For citations please refer to: https://libxc.gitlab.io

 This ORCA versions uses:
   CBLAS   interface :  Fast vector & matrix operations
   LAPACKE interface :  Fast linear algebra routines
   SCALAPACK package :  Parallel linear algebra routines
   Shared memory     :  Shared parallel matrices
   BLAS/LAPACK       :  OpenBLAS 0.3.29  USE64BITINT DYNAMIC_ARCH NO_AFFINITY SkylakeX SINGLE_THREADED
        Core in use  :  SkylakeX
   Copyright (c) 2011-2014, The OpenBLAS Project


  ***********************************
  * Starting time: Thu Mar 12 13:20:45 2026
  * Host name:     midway3-login4.rcc.local
  * Process ID:    3044825
  * Working dir.:  /home/rzhu16/orca_TS_search/sn2_cl_br/DFT_test
  ***********************************

Your calculation utilizes the geometrical counterpoise correction gCP
Please cite in your paper:
H.Kruse, S. Grimme J.Chem.Phys., 136, (2012), 154101 
   

Your calculation utilizes the atom-pairwise dispersion correction
based on EEQ partial charges (D4)


================================================================================

----- Orbital basis set information -----
Your calculation utilizes the basis: def2-mTZVPP
   Stefan Grimme, Andreas Hansen, Sebastian Ehlert, and Jan-Michael Mewes 
   J. Chem. Phys. 154, 064103 (2021). DOI: 10.1063/5.0040021

----- AuxJ basis set information -----
Your calculation utilizes the basis: def2-mTZVPP/J
   Stefan Grimme, Andreas Hansen, Sebastian Ehlert, and Jan-Michael Mewes 
   J. Chem. Phys. 154, 000000 (2021). DOI: 10.1063/5.0040021

================================================================================
                                        WARNINGS
                       Please study these warnings very carefully!
================================================================================

WARNING: Old DensityContainer found on disk!
         Will remove this file - 
         If you want to keep old densities, please start your calculation with a different basename. 



WARNING: SCAN, rSCAN, or r2SCAN functional requested.
  ===> : libXC variant has now been activated.



WARNING: Geometry Optimization
  ===> : Switching off AutoStart
         For restart on a previous wavefunction, please use MOREAD

================================================================================
                                       INPUT FILE
================================================================================
NAME = product_optfreq.inp
|  1> ! r2SCAN-3c Opt Freq PAL8 TightSCF
|  2> 
|  3> %pal
|  4>    nprocs 8
|  5> end
|  6> 
|  7> %scf
|  8>    MaxIter 150
|  9> end
| 10> 
| 11> * xyz -1 1
| 12>   C       0.000122      0.000113     -0.330625
| 13>   H       0.000056      1.027249      0.006510
| 14>   H       0.889647     -0.513551      0.006513
| 15>   H      -0.889587     -0.513581      0.006535
| 16>   Cl     -0.000009     -0.000010      2.470793
| 17>   Br      0.000052      0.000050     -2.276396
| 18> *
| 19> 
| 20>                          ****END OF INPUT****
================================================================================

                       *****************************
                       * Geometry Optimization Run *
                       *****************************

Geometry optimization settings:
Update method            Update   .... BFGS
Choice of coordinates    CoordSys .... (2022) Redundant Internals
Initial Hessian          InHess   .... Almloef's Model
Max. no of cycles        MaxIter  .... 50

Convergence Tolerances:
Energy Change            TolE     ....  5.0000e-06 Eh
Max. Gradient            TolMAXG  ....  3.0000e-04 Eh/bohr
RMS Gradient             TolRMSG  ....  1.0000e-04 Eh/bohr
Max. Displacement        TolMAXD  ....  4.0000e-03 bohr
RMS Displacement         TolRMSD  ....  2.0000e-03 bohr
Strict Convergence                .... False

------------------------------------------------------------------------------
                        ORCA OPTIMIZATION COORDINATE SETUP
------------------------------------------------------------------------------

The optimization will be done in redundant internal coordinates (2022)
Making redundant internal coordinates   ...  (2022 redundants) done
Evaluating the initial hessian          ...  (Almloef) done
Evaluating the coordinates              ...  done
Calculating the B-matrix                .... done
Calculating the G-matrix                .... done
The number of degrees of freedom        ....   17

    -----------------------------------------------------------------
                    Redundant Internal Coordinates


    -----------------------------------------------------------------
         Definition                    Initial Value    Approx d2E/dq
    -----------------------------------------------------------------
      1. B(H   1,C   0)                  1.0810         0.372137   
      2. B(H   2,C   0)                  1.0811         0.372074   
      3. B(H   3,C   0)                  1.0813         0.371839   
      4. B(Cl  4,H   2)                  2.6698         0.010000   
      5. B(Cl  4,H   3)                  2.6698         0.010000   
      6. B(Cl  4,H   1)                  2.6698         0.010000   
      7. B(Cl  4,C   0)                  2.8014         0.010000   
      8. B(Br  5,C   0)                  1.9458         0.272606   
      9. A(H   1,C   0,H   3)          110.7382         0.293829   
     10. A(H   2,C   0,H   3)          110.7360         0.293821   
     11. A(H   1,C   0,Br  5)          108.1731         0.328514   
     12. A(H   2,C   0,Br  5)          108.1715         0.328505   
     13. A(H   3,C   0,Br  5)          108.1662         0.328471   
     14. A(H   1,C   0,Cl  4)           71.8312         0.193609   
     15. A(H   2,C   0,Cl  4)           71.8304         0.193605   
     16. A(H   3,C   0,Cl  4)           71.8275         0.193590   
     17. A(H   1,C   0,H   2)          110.7466         0.293858   
    -----------------------------------------------------------------

Number of atoms                         .... 6
Number of degrees of freedom            .... 17


         *************************************************************
         *                GEOMETRY OPTIMIZATION CYCLE   1            *
         *************************************************************
---------------------------------
CARTESIAN COORDINATES (ANGSTROEM)
---------------------------------
  C      0.000122    0.000113   -0.330625
  H      0.000056    1.027249    0.006510
  H      0.889647   -0.513551    0.006513
  H     -0.889587   -0.513581    0.006535
  Cl    -0.000009   -0.000010    2.470793
  Br     0.000052    0.000050   -2.276396

----------------------------
CARTESIAN COORDINATES (A.U.)
----------------------------
  NO LB      ZA    FRAG     MASS         X           Y           Z
   0 C     6.0000    0    12.011    0.000231    0.000214   -0.624791
   1 H     1.0000    0     1.008    0.000106    1.941219    0.012302
   2 H     1.0000    0     1.008    1.681189   -0.970471    0.012308
   3 H     1.0000    0     1.008   -1.681076   -0.970527    0.012349
   4 Cl   17.0000    0    35.453   -0.000017   -0.000019    4.669122
   5 Br   35.0000    0    79.900    0.000098    0.000094   -4.301765

--------------------------------
INTERNAL COORDINATES (ANGSTROEM)
--------------------------------
 C      0   0   0     0.000000000000     0.00000000     0.00000000
 H      1   0   0     1.081049663557     0.00000000     0.00000000
 H      1   2   0     1.081095491418   110.74655002     0.00000000
 H      1   2   3     1.081268003742   110.73815879   123.24823965
 Cl     4   1   2     2.669769967748    85.54093430   298.37295654
 Br     1   2   3     1.945771002279   108.17314947   241.61844917

---------------------------
INTERNAL COORDINATES (A.U.)
---------------------------
 C      0   0   0     0.000000000000     0.00000000     0.00000000
 H      1   0   0     2.042887801291     0.00000000     0.00000000
 H      1   2   0     2.042974403398   110.74655002     0.00000000
 H      1   2   3     2.043300404445   110.73815879   123.24823965
 Cl     4   1   2     5.045134079611    85.54093430   298.37295654
 Br     1   2   3     3.676974313633   108.17314947   241.61844917

---------------------
BASIS SET INFORMATION
---------------------
There are 4 groups of distinct atoms

 Group   1 Type C   : 11s6p1d contracted to 5s3p1d pattern {62111/411/1}
 Group   2 Type H   : 4s1p contracted to 2s1p pattern {31/1}
 Group   3 Type Cl  : 14s9p2d contracted to 5s4p2d pattern {73211/6111/11}
 Group   4 Type Br  : 17s13p7d contracted to 6s5p3d pattern {842111/64111/511}

Atom   0C    basis set group =>   1
Atom   1H    basis set group =>   2
Atom   2H    basis set group =>   2
Atom   3H    basis set group =>   2
Atom   4Cl   basis set group =>   3
Atom   5Br   basis set group =>   4
---------------------------------
AUXILIARY/J BASIS SET INFORMATION
---------------------------------
There are 4 groups of distinct atoms

 Group   1 Type C   : 8s3p3d contracted to 6s3p3d pattern {311111/111/111}
 Group   2 Type H   : 5s2p1d contracted to 3s1p1d pattern {311/2/1}
 Group   3 Type Cl  : 14s5p5d2f contracted to 8s4p3d1f pattern {71111111/2111/311/2}
 Group   4 Type Br  : 19s5p5d3f1g contracted to 8s4p3d2f1g pattern {121111111/2111/311/21/1}

Atom   0C    basis set group =>   1
Atom   1H    basis set group =>   2
Atom   2H    basis set group =>   2
Atom   3H    basis set group =>   2
Atom   4Cl   basis set group =>   3
Atom   5Br   basis set group =>   4


           ************************************************************
           *        Program running with 8 parallel MPI-processes     *
           *              working on a common directory               *
           ************************************************************
------------------------------------------------------------------------------
                             ORCA STARTUP CALCULATIONS
                           -- RI-GTO INTEGRALS CHOSEN --
------------------------------------------------------------------------------
------------------------------------------------------------------------------
                   ___                                                        
                  /   \      - P O W E R E D   B Y -                         
                 /     \                                                     
                 |  |  |   _    _      __       _____    __    __             
                 |  |  |  | |  | |    /  \     |  _  \  |  |  /  |          
                  \  \/   | |  | |   /    \    | | | |  |  | /  /          
                 / \  \   | |__| |  /  /\  \   | |_| |  |  |/  /          
                |  |  |   |  __  | /  /__\  \  |    /   |      \           
                |  |  |   | |  | | |   __   |  |    \   |  |\   \          
                \     /   | |  | | |  |  |  |  | |\  \  |  | \   \       
                 \___/    |_|  |_| |__|  |__|  |_| \__\ |__|  \__/        
                                                                              
                      - O R C A' S   B I G   F R I E N D -                    
                                      &                                       
                       - I N T E G R A L  F E E D E R -                       
                                                                              
 v1 FN, 2020, v2 2021, v3 2022-2024                                           
------------------------------------------------------------------------------


----------------------
SHARK INTEGRAL PACKAGE
----------------------

Number of atoms                             ...      6
Number of basis functions                   ...     97
Number of shells                            ...     43
Maximum angular momentum                    ...      2
Integral batch strategy                     ... SHARK/LIBINT Hybrid
RI-J (if used) integral strategy            ... SPLIT-RIJ (Revised 2003 algorithm where possible)
Printlevel                                  ...      1
Contraction scheme used                     ... SEGMENTED contraction
Prescreening option                         ... SCHWARTZ
   Thresh                                   ... 2.500e-11
   Tcut                                     ... 2.500e-12
   Tpresel                                  ... 2.500e-12 
Coulomb Range Separation                    ... NOT USED
Exchange Range Separation                   ... NOT USED
Multipole approximations                    ... NOT USED
Finite Nucleus Model                        ... NOT USED
CABS basis                                  ... NOT available
Auxiliary Coulomb fitting basis             ... AVAILABLE
   # of basis functions in Aux-J            ...    163
   # of shells in Aux-J                     ...     61
   Maximum angular momentum in Aux-J        ...      4
Auxiliary J/K fitting basis                 ... NOT available
Auxiliary Correlation fitting basis         ... NOT available
Auxiliary 'external' fitting basis          ... NOT available

Checking pre-screening integrals            ... done (  0.0 sec) Dimension = 43
   => SHARK Basis and OBASIS are compatible. Storing Pre-screening
Shell pair information
Shell pair cut-off parameter TPreSel        ...   2.5e-12
Total number of shell pairs                 ...       946
Shell pairs after pre-screening             ...       863
Total number of primitive shell pairs       ...      4697
Primitive shell pairs kept                  ...      3202
          la=0 lb=0:    223 shell pairs
          la=1 lb=0:    304 shell pairs
          la=1 lb=1:    113 shell pairs
          la=2 lb=0:    120 shell pairs
          la=2 lb=1:     84 shell pairs
          la=2 lb=2:     19 shell pairs

Checking whether 4 symmetric matrices of dimension 97 fit in memory
:Max Core in MB      =   4096.00
 MB in use           =      4.49
 MB left             =   4091.51
 MB needed           =      0.15
 Data fit in memory  = YES
Calculating RI/J V-Matrix + Cholesky decomp.... done (  0.0 sec)
Calculating Nuclear repulsion               ... done (  0.0 sec) ENN=    184.711950886054 Eh

Diagonalization of the overlap matrix:
Smallest eigenvalue                        ... 5.625e-03
Time for diagonalization                   ...    0.001 sec
Threshold for overlap eigenvalues          ... 1.000e-07
Number of eigenvalues below threshold      ... 0
Time for construction of square roots      ...    0.001 sec
Total time needed                          ...    0.002 sec

-------------------
DFT GRID GENERATION
-------------------

General Integration Accuracy     IntAcc      ... 4.388
Radial Grid Type                 RadialGrid  ... OptM3 with GC (2021)
Angular Grid (max. ang.)         AngularGrid ... 4 (Lebedev-302)
Angular grid pruning method      GridPruning ... 4 (adaptive)
Weight generation scheme         WeightScheme... mBecke (2022)
Basis function cutoff            BFCut       ... 1.0000e-11
Integration weight cutoff        WCut        ... 1.0000e-14
Partially contracted basis set               ... off
Rotationally invariant grid construction     ... off
Angular grids for H and He will be reduced by one unit
Core-polarized basis detected: some atoms will have their core
                               angular grid increased.

Total number of grid points                  ...    34579
Total number of batches                      ...      543
Average number of points per batch           ...       63
Average number of grid points per atom       ...     5763
Grids setup in   0.5 sec
Initializing property integral containers    ... done (  0.0 sec)

SHARK setup successfully completed in   0.7 seconds

Maximum memory used throughout the entire STARTUP-calculation: 13.4 MB


           ************************************************************
           *        Program running with 8 parallel MPI-processes     *
           *              working on a common directory               *
           ************************************************************
-------------------------------------------------------------------------------
                                 ORCA GUESS
                   Start orbitals & Density for SCF / CASSCF
-------------------------------------------------------------------------------

------------
SCF SETTINGS
------------
Hamiltonian:
 Density Functional     Method          .... DFT(GTOs)
  Functional kind                       .... Exchange
  Functional name                       .... Re-regularized SCAN exchange by Furness et al
  Functional family                     .... MGGA
  Functional refs                              
    [ 0] J. W. Furness, A. D. Kaplan, J. Ning, J. P. Perdew, and J. Sun.,  J. Phys. Chem. Lett. 11, 8208-8215 (2020), doi: 10.1021/acs.jpclett.0c02405
    [ 1] J. W. Furness, A. D. Kaplan, J. Ning, J. P. Perdew, and J. Sun.,  J. Phys. Chem. Lett. 11, 9248-9248 (2020), doi: 10.1021/acs.jpclett.0c03077
  Functional external parameters        .... 6
    Parameter  0 _c1        =  6.670000e-01 : c1 parameter        
    Parameter  1 _c2        =  8.000000e-01 : c2 parameter        
    Parameter  2 _d         =  1.240000e+00 : d parameter         
    Parameter  3 _k1        =  6.500000e-02 : k1 parameter        
    Parameter  4 _eta       =  1.000000e-03 : eta parameter       
    Parameter  5 _dp2       =  3.610000e-01 : dp2 parameter       
  Functional kind                       .... Correlation
  Functional name                       .... Re-regularized SCAN correlation by Furness et al
  Functional family                     .... MGGA
  Functional refs                              
    [ 0] J. W. Furness, A. D. Kaplan, J. Ning, J. P. Perdew, and J. Sun.,  J. Phys. Chem. Lett. 11, 8208-8215 (2020), doi: 10.1021/acs.jpclett.0c02405
    [ 1] J. W. Furness, A. D. Kaplan, J. Ning, J. P. Perdew, and J. Sun.,  J. Phys. Chem. Lett. 11, 9248-9248 (2020), doi: 10.1021/acs.jpclett.0c03077
  Functional external parameters        .... 1
    Parameter  0 _eta       =  1.000000e-03 : Regularization parameter
 Gradients option       PostSCFGGA      .... off
 RI-approximation to the Coulomb term is turned on
   Number of AuxJ basis functions       .... 163


General Settings:
 Integral files         IntName         .... product_optfreq
 Hartree-Fock type      HFTyp           .... RHF
 Total Charge           Charge          ....   -1
 Multiplicity           Mult            ....    1
 Number of Electrons    NEL             ....   62
 Basis Dimension        Dim             ....   97
 Nuclear Repulsion      ENuc            ....    184.7119508861 Eh

Convergence Acceleration:
 AO-DIIS                CNVDIIS         .... on
   Start iteration      DIISMaxIt       ....    12
   Startup error        DIISStart       ....  0.200000
   # of expansion vecs  DIISMaxEq       ....     5
   Bias factor          DIISBfac        ....   1.050
   Max. coefficient     DIISMaxC        ....  10.000
 MO-DIIS                CNVKDIIS        .... off
 Trust-Rad. Augm. Hess. CNVTRAH         .... auto
   Auto Start mean grad. ratio tolernc. ....  1.125000
   Auto Start start iteration           ....    50
   Auto Start num. interpolation iter.  ....    10
   Max. Number of Micro iterations      ....    24
   Max. Number of Macro iterations      .... Maxiter - #DIIS iter
   Number of Davidson start vectors     ....     2
   Converg. threshold    (grad. norm)   ....   1.000e-05
   Grad. Scal. Fac. for Micro threshold ....   0.100
   Minimum threshold for Micro iter.    ....   1.000e-02
   NR start threshold (gradient norm)   ....   1.000e-04
   Initial trust radius                 ....   0.400
   Minimum AH scaling param. (alpha)    ....   1.000
   Maximum AH scaling param. (alpha)    .... 1000.000
   Quad. conv. algorithm                .... NR
   White noise on init. David. guess    .... on
   Maximum white noise                  ....   0.010
   Pseudo random numbers                .... off
   Inactive MOs                         .... canonical
   Orbital update algorithm             .... Taylor
   Preconditioner                       .... Diag
   Full preconditioner red. dimension   ....   250
   COSX micro iterations for RIJONX calc.... off
 SOSCF                 CNVSOSCF           .... on
   Start iteration     SOSCFMaxIt         ....   150
   Startup grad/error  SOSCFStart         ....  0.003300
   Hessian update      SOSCFHessUp        .... L-BFGS
   Autom. constraints  SOSCFAutoConstrain .... off
 Level Shifting         CNVShift        .... on
   Level shift para.    LevelShift      ....    0.2500
   Turn off err/grad.   ShiftErr        ....    0.0010
 Zerner damping         CNVZerner       .... off
 Static damping         CNVDamp         .... on
   Fraction old density DampFac         ....    0.7000
   Max. Damping (<1)    DampMax         ....    0.9800
   Min. Damping (>=0)   DampMin         ....    0.0000
   Turn off err/grad.   DampErr         ....    0.1000

SCF Procedure:
 Maximum # iterations   MaxIter         ....   150
 SCF integral mode      SCFMode         .... Direct
   Integral package                     .... SHARK and LIBINT hybrid scheme
 Reset frequency        DirectResetFreq ....    20
 Integral Threshold     Thresh          ....  2.500e-11 Eh
 Primitive CutOff       TCut            ....  2.500e-12 Eh

Convergence Tolerance:
 Convergence Check Mode ConvCheckMode   .... Total+1el-Energy
 Convergence forced     ConvForced      .... 0
 Energy Change          TolE            ....  1.000e-08 Eh
 1-El. energy change                    ....  1.000e-05 Eh
 Orbital Gradient       TolG            ....  1.000e-05
 Orbital Rotation angle TolX            ....  1.000e-05
 DIIS Error             TolErr          ....  5.000e-07

------------------------------
INITIAL GUESS: MODEL POTENTIAL
------------------------------
Loading Hartree-Fock densities                     ... done
Calculating cut-offs                               ... done
Initializing the effective Hamiltonian             ... done
Setting up the integral package (SHARK)            ... done
Starting the Coulomb interaction                   ... done (   0.1 sec)
Making the grid                                    ... done (   0.3 sec)
Mapping shells                                     ... done
Starting the XC term evaluation                    ... done (   0.1 sec)
  promolecular density results
     # of electrons  =     60.997304643
     EX              =   -122.605254185
     EC              =     -2.650524598
     EX+EC           =   -125.255778783
Transforming the Hamiltonian                       ... done (   0.0 sec)
Diagonalizing the Hamiltonian                      ... done (   0.0 sec)
Back transforming the eigenvectors                 ... done (   0.0 sec)
Now organizing SCF variables                       ... done
                      ------------------
                      INITIAL GUESS DONE (   0.5 sec)
                      ------------------
             **** ENERGY FILE WAS UPDATED (product_optfreq.en.tmp) ****
Finished Guess after   1.0 sec
Maximum memory used throughout the entire GUESS-calculation: 7.2 MB


           ************************************************************
           *        Program running with 8 parallel MPI-processes     *
           *              working on a common directory               *
           ************************************************************

-------------------------------------------------------------------------------------------
                                      ORCA LEAN-SCF
                              memory conserving SCF solver
-------------------------------------------------------------------------------------------

----------------------------------------D-I-I-S--------------------------------------------
Iteration    Energy (Eh)           Delta-E    RMSDP     MaxDP     DIISErr   Damp  Time(sec)
-------------------------------------------------------------------------------------------
               ***  Starting incremental Fock matrix formation  ***
    1    -3074.1722612861731250     0.00e+00  1.08e-02  1.03e-01  1.99e-01  0.700   0.6
    2    -3074.2279038527658486    -5.56e-02  8.53e-03  6.36e-02  9.51e-02  0.700   0.6
                               ***Turning on AO-DIIS***
    3    -3074.2508167947494258    -2.29e-02  4.35e-03  2.43e-02  3.89e-02  0.700   0.7
    4    -3074.2636527072845638    -1.28e-02  7.63e-03  4.96e-02  2.05e-02  0.000   0.6
    5    -3074.2912989071492120    -2.76e-02  1.49e-03  9.21e-03  9.27e-03  0.000   0.5
                              *** Initializing SOSCF ***
---------------------------------------S-O-S-C-F--------------------------------------
Iteration    Energy (Eh)           Delta-E    RMSDP     MaxDP     MaxGrad    Time(sec)
--------------------------------------------------------------------------------------
    6    -3074.2916451739679360    -3.46e-04  4.74e-04  2.54e-03  2.60e-03     0.6
               *** Restarting incremental Fock matrix formation ***
    7    -3074.2916760329662793    -3.09e-05  6.13e-04  3.90e-03  9.01e-04     0.5
    8    -3074.2916773507895414    -1.32e-06  2.26e-04  1.69e-03  6.50e-04     0.6
    9    -3074.2916839890108349    -6.64e-06  7.09e-05  5.47e-04  7.85e-05     0.4
   10    -3074.2916841174483125    -1.28e-07  1.95e-05  1.86e-04  5.77e-05     0.5
   11    -3074.2916841529590783    -3.55e-08  9.06e-06  7.64e-05  2.10e-05     0.6
   12    -3074.2916841548917546    -1.93e-09  3.42e-06  2.12e-05  7.93e-06     0.2
                 **** Energy Check signals convergence ****

               *****************************************************
               *                     SUCCESS                       *
               *           SCF CONVERGED AFTER  12 CYCLES          *
               *****************************************************

             **** ENERGY FILE WAS UPDATED (product_optfreq.en.tmp) ****

----------------
TOTAL SCF ENERGY
----------------

Total Energy       :      -3074.29168415707500 Eh          -83655.72970 eV

Components:
Nuclear Repulsion  :        184.71195088605430 Eh            5026.26771 eV
Electronic Energy  :      -3259.00363504312918 Eh          -88681.99742 eV
One Electron Energy:      -4651.53311134944852 Eh         -126574.65089 eV
Two Electron Energy:       1392.52947630631957 Eh           37892.65348 eV

Virial components:
Potential Energy   :      -6144.04181447059818 Eh         -167187.87744 eV
Kinetic Energy     :       3069.75013031352319 Eh           83532.14774 eV
Virial Ratio       :          2.00147945391343

DFT components:
N(Alpha)           :       31.000006653009 electrons
N(Beta)            :       31.000006653009 electrons
N(Total)           :       62.000013306018 electrons
E(X)               :     -123.615136519921 Eh       
E(C)               :       -2.675414582362 Eh       
E(XC)              :     -126.290551102283 Eh       

---------------
SCF CONVERGENCE
---------------

  Last Energy change         ...    1.9327e-09  Tolerance :   1.0000e-08
  Last MAX-Density change    ...    2.1168e-05  Tolerance :   1.0000e-07
  Last RMS-Density change    ...    3.4206e-06  Tolerance :   5.0000e-09
  Last DIIS Error            ...    2.6039e-03  Tolerance :   5.0000e-07
  Last Orbital Gradient      ...    7.9319e-06  Tolerance :   1.0000e-05
  Last Orbital Rotation      ...    2.2234e-05  Tolerance :   1.0000e-05


----------------
ORBITAL ENERGIES
----------------

  NO   OCC          E(Eh)            E(eV) 
   0   2.0000    -482.072738    -13117.8661 
   1   2.0000    -100.899266     -2745.6086 
   2   2.0000     -62.144960     -1691.0503 
   3   2.0000     -55.925829     -1521.8192 
   4   2.0000     -55.922462     -1521.7276 
   5   2.0000     -55.922462     -1521.7276 
   6   2.0000      -9.917372      -269.8654 
   7   2.0000      -9.055854      -246.4223 
   8   2.0000      -8.477225      -230.6770 
   9   2.0000      -6.795872      -184.9251 
  10   2.0000      -6.795088      -184.9038 
  11   2.0000      -6.795088      -184.9037 
  12   2.0000      -6.283117      -170.9723 
  13   2.0000      -6.271838      -170.6654 
  14   2.0000      -6.271838      -170.6654 
  15   2.0000      -2.381190       -64.7955 
  16   2.0000      -2.378449       -64.7209 
  17   2.0000      -2.378448       -64.7209 
  18   2.0000      -2.369811       -64.4858 
  19   2.0000      -2.369805       -64.4857 
  20   2.0000      -0.621203       -16.9038 
  21   2.0000      -0.483750       -13.1635 
  22   2.0000      -0.449178       -12.2228 
  23   2.0000      -0.249719        -6.7952 
  24   2.0000      -0.249677        -6.7941 
  25   2.0000      -0.214857        -5.8466 
  26   2.0000      -0.114839        -3.1249 
  27   2.0000      -0.114832        -3.1247 
  28   2.0000      -0.014577        -0.3966 
  29   2.0000      -0.013760        -0.3744 
  30   2.0000      -0.013759        -0.3744 
  31   0.0000       0.138294         3.7632 
  32   0.0000       0.248728         6.7682 
  33   0.0000       0.316494         8.6123 
  34   0.0000       0.316555         8.6139 
  35   0.0000       0.352944         9.6041 
  36   0.0000       0.352949         9.6042 
  37   0.0000       0.356042         9.6884 
  38   0.0000       0.412441        11.2231 
  39   0.0000       0.416309        11.3283 
  40   0.0000       0.416315        11.3285 
  41   0.0000       0.513491        13.9728 
*Only the first 10 virtual orbitals were printed.

                    ********************************
                    * MULLIKEN POPULATION ANALYSIS *
                    ********************************

-----------------------
MULLIKEN ATOMIC CHARGES
-----------------------
   0 C :   -0.360468
   1 H :    0.189356
   2 H :    0.189369
   3 H :    0.189363
   4 Cl:   -0.868169
   5 Br:   -0.339451
Sum of atomic charges:   -1.0000000

--------------------------------
MULLIKEN REDUCED ORBITAL CHARGES
--------------------------------
  0 C s       :     3.294013  s :     3.294013
      pz      :     0.744125  p :     3.039056
      px      :     1.147466
      py      :     1.147466
      dz2     :     0.010568  d :     0.027399
      dxz     :     0.004162
      dyz     :     0.004162
      dx2y2   :     0.004253
      dxy     :     0.004254

  1 H s       :     0.791295  s :     0.791295
      pz      :     0.005234  p :     0.019349
      px      :     0.003543
      py      :     0.010573

  2 H s       :     0.791283  s :     0.791283
      pz      :     0.005233  p :     0.019347
      px      :     0.008813
      py      :     0.005300

  3 H s       :     0.791296  s :     0.791296
      pz      :     0.005232  p :     0.019340
      px      :     0.008811
      py      :     0.005298

  4 Cls       :     5.973150  s :     5.973150
      pz      :     3.907826  p :    11.892813
      px      :     3.992493
      py      :     3.992495
      dz2     :     0.001165  d :     0.002206
      dxz     :     0.000513
      dyz     :     0.000513
      dx2y2   :     0.000008
      dxy     :     0.000008

  5 Brs       :     7.950364  s :     7.950364
      pz      :     5.363486  p :    17.345731
      px      :     5.991124
      py      :     5.991121
      dz2     :     2.020663  d :    10.043356
      dxz     :     2.011266
      dyz     :     2.011264
      dx2y2   :     2.000082
      dxy     :     2.000082



                     *******************************
                     * LOEWDIN POPULATION ANALYSIS *
                     *******************************

----------------------
LOEWDIN ATOMIC CHARGES
----------------------
   0 C :   -0.577315
   1 H :    0.159983
   2 H :    0.159996
   3 H :    0.160029
   4 Cl:   -0.820721
   5 Br:   -0.081972

-------------------------------
LOEWDIN REDUCED ORBITAL CHARGES
-------------------------------
  0 C s       :     3.098412  s :     3.098412
      pz      :     0.985804  p :     3.415792
      px      :     1.214992
      py      :     1.214997
      dz2     :     0.023756  d :     0.063111
      dxz     :     0.009283
      dyz     :     0.009285
      dx2y2   :     0.010393
      dxy     :     0.010394

  1 H s       :     0.792273  s :     0.792273
      pz      :     0.011126  p :     0.047744
      px      :     0.008379
      py      :     0.028239

  2 H s       :     0.792264  s :     0.792264
      pz      :     0.011125  p :     0.047739
      px      :     0.023271
      py      :     0.013343

  3 H s       :     0.792251  s :     0.792251
      pz      :     0.011120  p :     0.047719
      px      :     0.023264
      py      :     0.013335

  4 Cls       :     5.951266  s :     5.951266
      pz      :     3.882249  p :    11.863164
      px      :     3.990457
      py      :     3.990458
      dz2     :     0.003239  d :     0.006292
      dxz     :     0.001499
      dyz     :     0.001498
      dx2y2   :     0.000028
      dxy     :     0.000028

  5 Brs       :     7.720333  s :     7.720333
      pz      :     5.364969  p :    17.297756
      px      :     5.966395
      py      :     5.966392
      dz2     :     2.036381  d :    10.063884
      dxz     :     2.013663
      dyz     :     2.013661
      dx2y2   :     2.000089
      dxy     :     2.000089



                      *****************************
                      * MAYER POPULATION ANALYSIS *
                      *****************************

  NA   - Mulliken gross atomic population
  ZA   - Total nuclear charge
  QA   - Mulliken gross atomic charge
  VA   - Mayer's total valence
  BVA  - Mayer's bonded valence
  FA   - Mayer's free valence

  ATOM       NA         ZA         QA         VA         BVA        FA
  0 C      6.3605     6.0000    -0.3605     3.8544     3.8544    -0.0000
  1 H      0.8106     1.0000     0.1894     0.9492     0.9492     0.0000
  2 H      0.8106     1.0000     0.1894     0.9492     0.9492     0.0000
  3 H      0.8106     1.0000     0.1894     0.9493     0.9493     0.0000
  4 Cl    17.8682    17.0000    -0.8682     0.2323     0.2323    -0.0000
  5 Br    35.3395    35.0000    -0.3395     0.8779     0.8779    -0.0000

  Mayer bond orders larger than 0.100000
B(  0-C ,  1-H ) :   0.9534 B(  0-C ,  2-H ) :   0.9534 B(  0-C ,  3-H ) :   0.9534 
B(  0-C ,  4-Cl) :   0.1794 B(  0-C ,  5-Br) :   0.8147 

-------
TIMINGS
-------

Total SCF time: 0 days 0 hours 0 min 7 sec 

Total time                  ....       7.308 sec
Sum of individual times     ....       7.000 sec  ( 95.8%)

SCF preparation             ....       0.510 sec  (  7.0%)
Fock matrix formation       ....       4.794 sec  ( 65.6%)
  Startup                   ....       0.021 sec  (  0.4% of F)
  Split-RI-J                ....       0.891 sec  ( 18.6% of F)
  XC integration            ....       3.693 sec  ( 77.0% of F)
    XC Preparation          ....       0.000 sec  (  0.0% of XC)
    Basis function eval.    ....       0.323 sec  (  8.8% of XC)
    Density eval.           ....       0.545 sec  ( 14.8% of XC)
    XC-Functional eval.     ....       0.571 sec  ( 15.5% of XC)
    XC-Potential eval.      ....       0.582 sec  ( 15.8% of XC)
Diagonalization             ....       0.000 sec  (  0.0%)
Density matrix formation    ....       0.325 sec  (  4.4%)
Total Energy calculation    ....       0.122 sec  (  1.7%)
Population analysis         ....       0.091 sec  (  1.2%)
Orbital Transformation      ....       0.093 sec  (  1.3%)
Orbital Orthonormalization  ....       0.000 sec  (  0.0%)
DIIS solution               ....       0.669 sec  (  9.2%)
SOSCF solution              ....       0.397 sec  (  5.4%)
Finished LeanSCF after   7.3 sec

Maximum memory used throughout the entire LEANSCF-calculation: 6.6 MB


           ************************************************************
           *        Program running with 8 parallel MPI-processes     *
           *              working on a common directory               *
           ************************************************************

------------------------------------------------------------------------------
                         ORCA PROPERTY INTEGRAL CALCULATIONS
------------------------------------------------------------------------------

GBWName                                   ... product_optfreq.gbw
Number of atoms                           ...      6
Number of basis functions                 ...     97
Max core memory                           ...   4096 MB

Dipole integrals                          ... YES
Quadrupole integrals                      ...  NO
Linear momentum integrals                 ...  NO
Angular momentum integrals                ...  NO
Higher moments length integrals           ...  NO
Higher moments velocity integrals         ...  NO
Kinetic energy integrals                  ...  NO
GIAO right hand sides                     ...  NO
GIAO dipole derivative integrals          ...  NO
SOC integrals                             ...  NO
EPR diamagnetic integrals (GIAO)          ...  NO
EPR gauge integrals                       ...  NO
Field gradient integrals                  ...  NO (   0 nuclei)
Spin-dipole/Fermi contact integrals       ...  NO (   0 nuclei)
Contact density integrals                 ...  NO (   0 nuclei)
Nucleus-orbit integrals                   ...  NO (   0 nuclei)
Geometric perturbations                   ...  NO (   6 nuclei)

Choice of electric origin   ... Center of mass
Position of electric origin ... (  0.0001,  0.0001, -1.4238) 
Choice of magnetic origin   ... GIAO
Position of magnetic origin ... (  0.0000,  0.0000,  0.0000) 

Calculating integrals                     ... Electric Dipole (Length)     done (  0.0 sec)

Property integrals calculated in   0.0 sec

Maximum memory used throughout the entire PROPINT-calculation: 7.1 MB


-------------------------------------------------------------------------------
                          DFT DISPERSION CORRECTION                            
                                                                               
                                DFTD4 V3.4.0                                   
-------------------------------------------------------------------------------
The R2SCAN3C composite method is recognized
Using three-body term ABC
Active option DFTDOPT                   ...         5   

-------------------------   ----------------
Dispersion correction           -0.001134033
-------------------------   ----------------

------------------   -----------------
gCP correction             0.004171788
------------------   -----------------

-------------------------   --------------------
FINAL SINGLE POINT ENERGY     -3074.288646402663
-------------------------   --------------------



           ************************************************************
           *        Program running with 8 parallel MPI-processes     *
           *              working on a common directory               *
           ************************************************************
------------------------------------------------------------------------------
                         ORCA SCF GRADIENT CALCULATION
------------------------------------------------------------------------------

Nuc. rep. gradient        (SHARK) ... done (  0.0 sec)
HCore & Overlap gradient  (SHARK) ... done (  0.0 sec)
Split-RIJ-J gradient      (SHARK) ... done (  0.9 sec)
XC gradient                       ... done (  0.5 sec)
Dispersion correction             ... done (  0.1 sec)

-------------------
DISPERSION GRADIENT
-------------------

   1   C   :   -0.000000005   -0.000000004   -0.000003069
   2   H   :    0.000000001   -0.000001117   -0.000005117
   3   H   :   -0.000000968    0.000000560   -0.000005117
   4   H   :    0.000000974    0.000000563   -0.000005118
   5   Cl  :   -0.000000002   -0.000000002    0.000080511
   6   Br  :    0.000000001    0.000000001   -0.000062090

Difference to translation invariance:
           :   -0.0000000000    0.0000000000   -0.0000000000

Difference to rotation invariance:
           :    0.0000000000   -0.0000000000   -0.0000000000

Norm of the Dispersion gradient    ...    0.0001021223
RMS gradient                       ...    0.0000240705
MAX gradient                       ...    0.0000805110
gCP correction                   ... done

------------------
CARTESIAN GRADIENT
------------------

   1   C   :    0.000109149    0.000080166   -0.020319227
   2   H   :   -0.000004779   -0.001719806    0.000065024
   3   H   :   -0.001492085    0.000857093    0.000084870
   4   H   :    0.001391366    0.000804449    0.000117679
   5   Cl  :   -0.000000301   -0.000019280   -0.010677589
   6   Br  :   -0.000003349   -0.000002621    0.030729243

Difference to translation invariance:
           :   -0.0000000000    0.0000000000   -0.0000000004

Difference to rotation invariance:
           :    0.0000579265    0.0000001847    0.0000000210

Norm of the Cartesian gradient     ...    0.0384670508
RMS gradient                       ...    0.0090667708
MAX gradient                       ...    0.0307292427

-------
TIMINGS
-------

Total SCF gradient time     ....        1.600 sec

Densities                   ....       0.000 sec  (  0.0%)
One electron gradient       ....       0.007 sec  (  0.4%)
RI-J Coulomb gradient       ....       0.880 sec  ( 55.0%)
XC gradient                 ....       0.510 sec  ( 31.9%)

Maximum memory used throughout the entire SCFGRAD-calculation: 26.8 MB
------------------------------------------------------------------------------
                         ORCA GEOMETRY RELAXATION STEP
------------------------------------------------------------------------------

Reading the OPT-File                    .... done
Getting information on internals        .... done
Copying old internal coords+grads       .... done
Making the new internal coordinates     .... (2022 redundants) done
Validating the new internal coordinates .... (2022 redundants) done
Calculating the B-matrix                .... done
Calculating the G,G- and P matrices     .... done
Transforming gradient to internals      .... done
Projecting the internal gradient        .... done
Number of atoms                         ....   6
Number of internal coordinates          ....  17
Current Energy                          .... -3074.288646403 Eh
Current gradient norm                   ....     0.038467051 Eh/bohr
Maximum allowed component of the step   ....  0.300
Current trust radius                    ....  0.300
Evaluating the initial hessian          ....  (Almloef) done
Projecting the Hessian                  .... done
Forming the augmented Hessian           .... done
Diagonalizing the augmented Hessian     .... done
Last element of RFO vector              ....  0.934413906
Lowest eigenvalues of augmented Hessian:
 -0.005543115  0.012035444  0.045635220  0.045644495  0.196330261
Length of the computed step             ....  0.381189820
Warning: the length of the step is outside the trust region - taking restricted step instead
The input lambda is                     ....     0.009000
   iter:   5  x=    0.002671  g=  517.920806 f(x)=     1.214132
   iter:  10  x=   -0.010286  g=    8.207386 f(x)=     0.003052
The output lambda is                    ....    -0.010296 (13 iterations)
The final length of the internal step   ....  0.300000000
Converting the step to Cartesian space:
 Initial RMS(Int)=    0.0727606875
Transforming coordinates:
 Iter   0:  RMS(Cart)=    0.0443645934 RMS(Int)=    0.0728579529
done
Storing new coordinates                 .... done

                                .--------------------.
          ----------------------|Geometry convergence|-------------------------
          Item                value                   Tolerance       Converged
          ---------------------------------------------------------------------
          RMS gradient        0.0076563514            0.0001000000      NO
          MAX gradient        0.0307292424            0.0003000000      NO
          RMS step            0.0727606875            0.0020000000      NO
          MAX step            0.1560367036            0.0040000000      NO
          -------------------------------------------------------------------------
          ........................................................
          Max(Bonds)      0.0826      Max(Angles)    0.31
          Max(Dihed)        0.00      Max(Improp)    0.00
          ---------------------------------------------------------------------

The optimization has not yet converged - more geometry cycles are needed


    ---------------------------------------------------------------------------
                         Redundant Internal Coordinates
                            (Angstroem and degrees)

        Definition                    Value    dE/dq     Step     New-Value
    ----------------------------------------------------------------------------
     1. B(H   1,C   0)                1.0810 -0.001447  0.0019    1.0830   
     2. B(H   2,C   0)                1.0811 -0.001438  0.0019    1.0830   
     3. B(H   3,C   0)                1.0813 -0.001320  0.0018    1.0830   
     4. B(Cl  4,H   2)                2.6698 -0.002184  0.0708    2.7406   
     5. B(Cl  4,H   3)                2.6698 -0.002183  0.0708    2.7406   
     6. B(Cl  4,H   1)                2.6698 -0.002156  0.0705    2.7404   
     7. B(Cl  4,C   0)                2.8014 -0.004657  0.0826    2.8840   
     8. B(Br  5,C   0)                1.9458 -0.030729  0.0575    2.0033   
     9. A(H   1,C   0,H   3)          110.74  0.001038   -0.28    110.45   
    10. A(H   2,C   0,H   3)          110.74  0.001040   -0.28    110.45   
    11. A(H   1,C   0,Br  5)          108.17 -0.001075    0.30    108.47   
    12. A(H   2,C   0,Br  5)          108.17 -0.001098    0.30    108.47   
    13. A(H   3,C   0,Br  5)          108.17 -0.001117    0.30    108.47   
    14. A(H   1,C   0,Cl  4)           71.83  0.001107   -0.31     71.52   
    15. A(H   2,C   0,Cl  4)           71.83  0.001093   -0.30     71.53   
    16. A(H   3,C   0,Cl  4)           71.83  0.001089   -0.29     71.53   
    17. A(H   1,C   0,H   2)          110.75  0.001049   -0.29    110.46   
    ----------------------------------------------------------------------------

Geometry step timings:
Preparation and reading OPT file:      0.000 s ( 2.326 %)
Internal coordinates            :      0.000 s ( 2.326 %)
B/P matrices and projection     :      0.000 s ( 8.766 %)
Hessian update/contruction      :      0.001 s (48.241 %)
Making the step                 :      0.000 s (11.270 %)
Converting the step to Cartesian:      0.000 s ( 2.564 %)
Storing new data                :      0.000 s ( 5.188 %)
Checking convergence            :      0.000 s ( 3.459 %)
Final printing                  :      0.000 s (15.564 %)
Total time                      :      0.002 s

Time for energy+gradient        :     13.394 s
Time for complete geometry iter :     14.095 s

         *************************************************************
         *                GEOMETRY OPTIMIZATION CYCLE   2            *
         *************************************************************
---------------------------------
CARTESIAN COORDINATES (ANGSTROEM)
---------------------------------
  C      0.000079    0.000017   -0.337793
  H      0.000031    1.027181    0.005431
  H      0.889649   -0.513681    0.005320
  H     -0.889527   -0.513646    0.005308
  Cl    -0.000004    0.000183    2.546108
  Br     0.000053    0.000216   -2.341044

----------------------------
CARTESIAN COORDINATES (A.U.)
----------------------------
  NO LB      ZA    FRAG     MASS         X           Y           Z
   0 C     6.0000    0    12.011    0.000150    0.000033   -0.638336
   1 H     1.0000    0     1.008    0.000058    1.941091    0.010263
   2 H     1.0000    0     1.008    1.681193   -0.970716    0.010053
   3 H     1.0000    0     1.008   -1.680963   -0.970651    0.010030
   4 Cl   17.0000    0    35.453   -0.000007    0.000346    4.811448
   5 Br   35.0000    0    79.900    0.000100    0.000408   -4.423932

--------------------------------
INTERNAL COORDINATES (ANGSTROEM)
--------------------------------
 C      0   0   0     0.000000000000     0.00000000     0.00000000
 H      1   0   0     1.082990174156     0.00000000     0.00000000
 H      1   2   0     1.083026416521   110.45671465     0.00000000
 H      1   2   3     1.083036474589   110.45039139   122.48292568
 Cl     2   1   3     2.740395549298    86.46725665   298.75916707
 Br     1   2   3     2.003250984712   108.47123091   241.23829247

---------------------------
INTERNAL COORDINATES (A.U.)
---------------------------
 C      0   0   0     0.000000000000     0.00000000     0.00000000
 H      1   0   0     2.046554834883     0.00000000     0.00000000
 H      1   2   0     2.046623323026   110.45671465     0.00000000
 H      1   2   3     2.046642330020   110.45039139   122.48292568
 Cl     2   1   3     5.178597086791    86.46725665   298.75916707
 Br     1   2   3     3.785595738614   108.47123091   241.23829247



           ************************************************************
           *        Program running with 8 parallel MPI-processes     *
           *              working on a common directory               *
           ************************************************************
------------------------------------------------------------------------------
                   ___                                                        
                  /   \      - P O W E R E D   B Y -                         
                 /     \                                                     
                 |  |  |   _    _      __       _____    __    __             
                 |  |  |  | |  | |    /  \     |  _  \  |  |  /  |          
                  \  \/   | |  | |   /    \    | | | |  |  | /  /          
                 / \  \   | |__| |  /  /\  \   | |_| |  |  |/  /          
                |  |  |   |  __  | /  /__\  \  |    /   |      \           
                |  |  |   | |  | | |   __   |  |    \   |  |\   \          
                \     /   | |  | | |  |  |  |  | |\  \  |  | \   \       
                 \___/    |_|  |_| |__|  |__|  |_| \__\ |__|  \__/        
                                                                              
                      - O R C A' S   B I G   F R I E N D -                    
                                      &                                       
                       - I N T E G R A L  F E E D E R -                       
                                                                              
 v1 FN, 2020, v2 2021, v3 2022-2024                                           
------------------------------------------------------------------------------


----------------------
SHARK INTEGRAL PACKAGE
----------------------

Number of atoms                             ...      6
Number of basis functions                   ...     97
Number of shells                            ...     43
Maximum angular momentum                    ...      2
Integral batch strategy                     ... SHARK/LIBINT Hybrid
RI-J (if used) integral strategy            ... SPLIT-RIJ (Revised 2003 algorithm where possible)
Printlevel                                  ...      1
Contraction scheme used                     ... SEGMENTED contraction
Prescreening option                         ... SCHWARTZ
   Thresh                                   ... 2.500e-11
   Tcut                                     ... 2.500e-12
   Tpresel                                  ... 2.500e-12 
Coulomb Range Separation                    ... NOT USED
Exchange Range Separation                   ... NOT USED
Multipole approximations                    ... NOT USED
Finite Nucleus Model                        ... NOT USED
CABS basis                                  ... NOT available
Auxiliary Coulomb fitting basis             ... AVAILABLE
   # of basis functions in Aux-J            ...    163
   # of shells in Aux-J                     ...     61
   Maximum angular momentum in Aux-J        ...      4
Auxiliary J/K fitting basis                 ... NOT available
Auxiliary Correlation fitting basis         ... NOT available
Auxiliary 'external' fitting basis          ... NOT available

Checking pre-screening integrals            ... done (  0.0 sec) Dimension = 43
   => SHARK Basis and OBASIS are compatible. Storing Pre-screening
Shell pair information
Shell pair cut-off parameter TPreSel        ...   2.5e-12
Total number of shell pairs                 ...       946
Shell pairs after pre-screening             ...       860
Total number of primitive shell pairs       ...      4697
Primitive shell pairs kept                  ...      3175
          la=0 lb=0:    223 shell pairs
          la=1 lb=0:    302 shell pairs
          la=1 lb=1:    113 shell pairs
          la=2 lb=0:    119 shell pairs
          la=2 lb=1:     84 shell pairs
          la=2 lb=2:     19 shell pairs

Checking whether 4 symmetric matrices of dimension 97 fit in memory
:Max Core in MB      =   4096.00
 MB in use           =      4.55
 MB left             =   4091.45
 MB needed           =      0.15
 Data fit in memory  = YES
Calculating RI/J V-Matrix + Cholesky decomp.... done (  0.1 sec)
Calculating Nuclear repulsion               ... done (  0.0 sec) ENN=    179.843613066556 Eh

Diagonalization of the overlap matrix:
Smallest eigenvalue                        ... 5.738e-03
Time for diagonalization                   ...    0.001 sec
Threshold for overlap eigenvalues          ... 1.000e-07
Number of eigenvalues below threshold      ... 0
Time for construction of square roots      ...    0.001 sec
Total time needed                          ...    0.003 sec

-------------------
DFT GRID GENERATION
-------------------

General Integration Accuracy     IntAcc      ... 4.388
Radial Grid Type                 RadialGrid  ... OptM3 with GC (2021)
Angular Grid (max. ang.)         AngularGrid ... 4 (Lebedev-302)
Angular grid pruning method      GridPruning ... 4 (adaptive)
Weight generation scheme         WeightScheme... mBecke (2022)
Basis function cutoff            BFCut       ... 1.0000e-11
Integration weight cutoff        WCut        ... 1.0000e-14
Partially contracted basis set               ... off
Rotationally invariant grid construction     ... off
Angular grids for H and He will be reduced by one unit
Core-polarized basis detected: some atoms will have their core
                               angular grid increased.

Total number of grid points                  ...    34587
Total number of batches                      ...      543
Average number of points per batch           ...       63
Average number of grid points per atom       ...     5764
Grids setup in   0.6 sec
Initializing property integral containers    ... done (  0.0 sec)

SHARK setup successfully completed in   0.8 seconds

Maximum memory used throughout the entire STARTUP-calculation: 13.5 MB


           ************************************************************
           *        Program running with 8 parallel MPI-processes     *
           *              working on a common directory               *
           ************************************************************
Occupation numbers will be reassigned to an Aufbau configuration
             **** ENERGY FILE WAS UPDATED (product_optfreq.en.tmp) ****
Finished Guess after   0.5 sec
Maximum memory used throughout the entire GUESS-calculation: 7.0 MB


           ************************************************************
           *        Program running with 8 parallel MPI-processes     *
           *              working on a common directory               *
           ************************************************************
----------------------------------------D-I-I-S--------------------------------------------
Iteration    Energy (Eh)           Delta-E    RMSDP     MaxDP     DIISErr   Damp  Time(sec)
-------------------------------------------------------------------------------------------
               ***  Starting incremental Fock matrix formation  ***
    1    -3074.2940486124402923     0.00e+00  4.24e-04  1.95e-03  1.07e-02  0.700   0.6
    2    -3074.2942108839251887    -1.62e-04  4.36e-04  2.58e-03  7.83e-03  0.700   0.4
                               ***Turning on AO-DIIS***
    3    -3074.2943308466719827    -1.20e-04  3.73e-04  2.31e-03  5.43e-03  0.700   0.5
    4    -3074.2944145579135693    -8.37e-05  9.61e-04  6.36e-03  4.07e-03  0.000   0.4
                              *** Initializing SOSCF ***
---------------------------------------S-O-S-C-F--------------------------------------
Iteration    Energy (Eh)           Delta-E    RMSDP     MaxDP     MaxGrad    Time(sec)
--------------------------------------------------------------------------------------
    5    -3074.2946112893337158    -1.97e-04  6.56e-05  4.81e-04  4.87e-04     0.5
               *** Restarting incremental Fock matrix formation ***
    6    -3074.2946118307863799    -5.41e-07  6.04e-05  4.49e-04  1.05e-04     0.3
    7    -3074.2946116511793662     1.80e-07  2.51e-05  1.20e-04  2.29e-04     0.3
    8    -3074.2946119721200375    -3.21e-07  4.66e-06  2.87e-05  6.87e-06     0.3
    9    -3074.2946119722801086    -1.60e-10  1.99e-06  1.84e-05  5.51e-06     0.2
                 **** Energy Check signals convergence ****

               *****************************************************
               *                     SUCCESS                       *
               *           SCF CONVERGED AFTER   9 CYCLES          *
               *****************************************************

             **** ENERGY FILE WAS UPDATED (product_optfreq.en.tmp) ****

----------------
TOTAL SCF ENERGY
----------------

Total Energy       :      -3074.29461197312867 Eh          -83655.80937 eV

Components:
Nuclear Repulsion  :        179.84361306655643 Eh            4893.79351 eV
Electronic Energy  :      -3254.13822503968504 Eh          -88549.60288 eV
One Electron Energy:      -4641.69445744257700 Eh         -126306.92751 eV
Two Electron Energy:       1387.55623240289196 Eh           37757.32463 eV

Virial components:
Potential Energy   :      -6143.94162421381134 Eh         -167185.15112 eV
Kinetic Energy     :       3069.64701224068267 Eh           83529.34175 eV
Virial Ratio       :          2.00151405021943

DFT components:
N(Alpha)           :       31.000004128465 electrons
N(Beta)            :       31.000004128465 electrons
N(Total)           :       62.000008256930 electrons
E(X)               :     -123.592364357356 Eh       
E(C)               :       -2.672366988315 Eh       
E(XC)              :     -126.264731345671 Eh       

---------------
SCF CONVERGENCE
---------------

  Last Energy change         ...    1.6007e-10  Tolerance :   1.0000e-08
  Last MAX-Density change    ...    1.8365e-05  Tolerance :   1.0000e-07
  Last RMS-Density change    ...    1.9928e-06  Tolerance :   5.0000e-09
  Last DIIS Error            ...    4.8691e-04  Tolerance :   5.0000e-07
  Last Orbital Gradient      ...    5.5097e-06  Tolerance :   1.0000e-05
  Last Orbital Rotation      ...    1.0927e-05  Tolerance :   1.0000e-05


Total SCF time: 0 days 0 hours 0 min 4 sec 
Finished LeanSCF after   4.4 sec

Maximum memory used throughout the entire LEANSCF-calculation: 6.6 MB


           ************************************************************
           *        Program running with 8 parallel MPI-processes     *
           *              working on a common directory               *
           ************************************************************

------------------------------------------------------------------------------
                         ORCA PROPERTY INTEGRAL CALCULATIONS
------------------------------------------------------------------------------

GBWName                                   ... product_optfreq.gbw
Number of atoms                           ...      6
Number of basis functions                 ...     97
Max core memory                           ...   4096 MB

Dipole integrals                          ... YES
Quadrupole integrals                      ...  NO
Linear momentum integrals                 ...  NO
Angular momentum integrals                ...  NO
Higher moments length integrals           ...  NO
Higher moments velocity integrals         ...  NO
Kinetic energy integrals                  ...  NO
GIAO right hand sides                     ...  NO
GIAO dipole derivative integrals          ...  NO
SOC integrals                             ...  NO
EPR diamagnetic integrals (GIAO)          ...  NO
EPR gauge integrals                       ...  NO
Field gradient integrals                  ...  NO (   0 nuclei)
Spin-dipole/Fermi contact integrals       ...  NO (   0 nuclei)
Contact density integrals                 ...  NO (   0 nuclei)
Nucleus-orbit integrals                   ...  NO (   0 nuclei)
Geometric perturbations                   ...  NO (   6 nuclei)

Choice of electric origin   ... Center of mass
Position of electric origin ... (  0.0001,  0.0003, -1.4612) 
Choice of magnetic origin   ... GIAO
Position of magnetic origin ... (  0.0000,  0.0000,  0.0000) 

Calculating integrals                     ... Electric Dipole (Length)     done (  0.1 sec)

Property integrals calculated in   0.1 sec

Maximum memory used throughout the entire PROPINT-calculation: 7.1 MB


-------------------------------------------------------------------------------
                          DFT DISPERSION CORRECTION                            
                                                                               
                                DFTD4 V3.4.0                                   
-------------------------------------------------------------------------------
-------------------------   ----------------
Dispersion correction           -0.001114932
-------------------------   ----------------

------------------   -----------------
gCP correction             0.003702150
------------------   -----------------

-------------------------   --------------------
FINAL SINGLE POINT ENERGY     -3074.292024755332
-------------------------   --------------------



           ************************************************************
           *        Program running with 8 parallel MPI-processes     *
           *              working on a common directory               *
           ************************************************************
------------------------------------------------------------------------------
                         ORCA SCF GRADIENT CALCULATION
------------------------------------------------------------------------------

Nuc. rep. gradient        (SHARK) ... done (  0.0 sec)
HCore & Overlap gradient  (SHARK) ... done (  0.0 sec)
Split-RIJ-J gradient      (SHARK) ... done (  0.6 sec)
XC gradient                       ... done (  0.2 sec)
Dispersion correction             ... done (  0.1 sec)

-------------------
DISPERSION GRADIENT
-------------------

   1   C   :   -0.000000000   -0.000000005   -0.000004236
   2   H   :    0.000000000   -0.000000835   -0.000005416
   3   H   :   -0.000000723    0.000000417   -0.000005418
   4   H   :    0.000000724    0.000000418   -0.000005418
   5   Cl  :   -0.000000002    0.000000003    0.000081138
   6   Br  :    0.000000000    0.000000002   -0.000060650

Difference to translation invariance:
           :    0.0000000000    0.0000000000    0.0000000000

Difference to rotation invariance:
           :   -0.0000000000   -0.0000000000    0.0000000000

Norm of the Dispersion gradient    ...    0.0001018321
RMS gradient                       ...    0.0000240021
MAX gradient                       ...    0.0000811376
gCP correction                   ... done

------------------
CARTESIAN GRADIENT
------------------

   1   C   :    0.000013899    0.000009502   -0.013321603
   2   H   :   -0.000005461   -0.001640881    0.002477260
   3   H   :   -0.001430303    0.000823423    0.002488478
   4   H   :    0.001423176    0.000825608    0.002490361
   5   Cl  :   -0.000000004   -0.000019269   -0.005052081
   6   Br  :   -0.000001306    0.000001617    0.010917584

Difference to translation invariance:
           :    0.0000000000    0.0000000000    0.0000000001

Difference to rotation invariance:
           :    0.0000841849    0.0000000408    0.0000000115

Norm of the Cartesian gradient     ...    0.0186771930
RMS gradient                       ...    0.0044022566
MAX gradient                       ...    0.0133216027

-------
TIMINGS
-------

Total SCF gradient time     ....        0.999 sec

Densities                   ....       0.000 sec  (  0.0%)
One electron gradient       ....       0.010 sec  (  1.0%)
RI-J Coulomb gradient       ....       0.599 sec  ( 60.0%)
XC gradient                 ....       0.209 sec  ( 20.9%)

Maximum memory used throughout the entire SCFGRAD-calculation: 26.8 MB
------------------------------------------------------------------------------
                         ORCA GEOMETRY RELAXATION STEP
------------------------------------------------------------------------------

Reading the OPT-File                    .... done
Getting information on internals        .... done
Copying old internal coords+grads       .... done
Making the new internal coordinates     .... (2022 redundants) done
Validating the new internal coordinates .... (2022 redundants) done
Calculating the B-matrix                .... done
Calculating the G,G- and P matrices     .... done
Transforming gradient to internals      .... done
Projecting the internal gradient        .... done
Number of atoms                         ....   6
Number of internal coordinates          ....  17
Current Energy                          .... -3074.292024755 Eh
Current gradient norm                   ....     0.018677193 Eh/bohr
Maximum allowed component of the step   ....  0.300
Current trust radius                    ....  0.300
Updating the Hessian (BFGS)             .... done
Forming the augmented Hessian           .... done
Diagonalizing the augmented Hessian     .... done
Last element of RFO vector              ....  0.972592447
Lowest eigenvalues of augmented Hessian:
 -0.001364268  0.011528460  0.045635184  0.045644334  0.175962078
Length of the computed step             ....  0.239068812
The final length of the internal step   ....  0.239068812
Converting the step to Cartesian space:
 Initial RMS(Int)=    0.0579827037
Transforming coordinates:
 Iter   0:  RMS(Cart)=    0.0305504852 RMS(Int)=    0.0580339909
done
Storing new coordinates                 .... done
The predicted energy change is          ....    -0.000721121
Previously predicted energy change      ....    -0.002963932
Actually observed energy change         ....    -0.003378353
Ratio of predicted to observed change   ....     1.139821303
New trust radius                        ....     0.450000000

                                .--------------------.
          ----------------------|Geometry convergence|-------------------------
          Item                value                   Tolerance       Converged
          ---------------------------------------------------------------------
          Energy change      -0.0033783527            0.0000050000      NO
          RMS gradient        0.0028205483            0.0001000000      NO
          MAX gradient        0.0109175844            0.0003000000      NO
          RMS step            0.0579827037            0.0020000000      NO
          MAX step            0.1163360806            0.0040000000      NO
          -------------------------------------------------------------------------
          ........................................................
          Max(Bonds)      0.0616      Max(Angles)    0.37
          Max(Dihed)        0.00      Max(Improp)    0.00
[...]
Magnitude (a.u.)       :      3.984267498
Magnitude (Debye)      :     10.127203158



--------------------
Rotational spectrum 
--------------------
 
Rotational constants in cm-1:             5.133550             0.026999             0.026999 
Rotational constants in MHz :        153899.953095           809.399168           809.398947 

Dipole components along the rotational axes: 
x,y,z [a.u.] :    -3.984267    -0.000003     0.001052 
x,y,z [Debye]:   -10.127203    -0.000007     0.002673 

 

Dipole moment calculation done in   0.1 sec 

-----------
SCF HESSIAN
-----------

Occupied/Occupied contributions to the Hessian:
   => Occupied/Occupied contributions              ... done (  0.0 sec)
Perturbed density contributions to the Hessian:
   => Perturbed density contributions              ... done (  0.0 sec)
Explicit contributions to the Hessian:
   => Nuclear repulsion Hessian                    ... done (  0.0 sec)
   => HCore and overlap Hessian                    ... done (  0.5 sec)
   => RI-J Hessian                                 ... done (  1.9 sec)
   => XC-Hessian                                   ... done (  2.5 sec)
   => Van der Waals-Hessian                        ... done (  0.9 sec)
   => GCP-Hessian                                  ... done (  0.1 sec)
   => Explicit contributions done
Dipole derivatives                                 ... done (  0.0 sec)
Mass weighting the Hessian           ... done
Calculating normal modes             ... done
Scaling frequencies                  ... done

-----------------------
VIBRATIONAL FREQUENCIES
-----------------------

Scaling factor for frequencies =  1.000000000  (already applied!)

     0:       0.00 cm**-1
     1:       0.00 cm**-1
     2:       0.00 cm**-1
     3:       0.00 cm**-1
     4:       0.00 cm**-1
     5:       0.00 cm**-1
     6:     109.88 cm**-1
     7:     110.36 cm**-1
     8:     122.39 cm**-1
     9:     372.26 cm**-1
    10:     890.20 cm**-1
    11:     891.02 cm**-1
    12:    1197.06 cm**-1
    13:    1433.23 cm**-1
    14:    1433.31 cm**-1
    15:    3125.55 cm**-1
    16:    3278.95 cm**-1
    17:    3279.78 cm**-1


------------
NORMAL MODES
------------

These modes are the Cartesian displacements weighted by the diagonal matrix
M(i,i)=1/sqrt(m[i]) where m[i] is the mass of the displaced atom
Thus, these vectors are normalized but *not* orthogonal

                  0          1          2          3          4          5    
      0       0.000000   0.000000   0.000000   0.000000   0.000000   0.000000
      1       0.000000   0.000000   0.000000   0.000000   0.000000   0.000000
      2       0.000000   0.000000   0.000000   0.000000   0.000000   0.000000
      3       0.000000   0.000000   0.000000   0.000000   0.000000   0.000000
      4       0.000000   0.000000   0.000000   0.000000   0.000000   0.000000
      5       0.000000   0.000000   0.000000   0.000000   0.000000   0.000000
      6       0.000000   0.000000   0.000000   0.000000   0.000000   0.000000
      7       0.000000   0.000000   0.000000   0.000000   0.000000   0.000000
      8       0.000000   0.000000   0.000000   0.000000   0.000000   0.000000
      9       0.000000   0.000000   0.000000   0.000000   0.000000   0.000000
     10       0.000000   0.000000   0.000000   0.000000   0.000000   0.000000
     11       0.000000   0.000000   0.000000   0.000000   0.000000   0.000000
     12       0.000000   0.000000   0.000000   0.000000   0.000000   0.000000
     13       0.000000   0.000000   0.000000   0.000000   0.000000   0.000000
     14       0.000000   0.000000   0.000000   0.000000   0.000000   0.000000
     15       0.000000   0.000000   0.000000   0.000000   0.000000   0.000000
     16       0.000000   0.000000   0.000000   0.000000   0.000000   0.000000
     17       0.000000   0.000000   0.000000   0.000000   0.000000   0.000000
                  6          7          8          9         10         11    
      0      -0.000008  -0.429893  -0.000001  -0.000008  -0.000017  -0.091223
      1      -0.429626   0.000008   0.001481  -0.001156  -0.091344   0.000017
      2      -0.000569  -0.000004   0.361473   0.725813  -0.000026  -0.000001
      3      -0.000012  -0.487275   0.000001  -0.000004   0.000044   0.184406
      4      -0.498909   0.000010   0.021878   0.082387   0.118020  -0.000022
      5       0.234908  -0.000010   0.255331   0.380216  -0.784214   0.000146
      6       0.006431  -0.493038   0.017430   0.071838   0.029211   0.133836
      7      -0.487143   0.009612  -0.008324  -0.042487   0.166735   0.029633
      8      -0.117694   0.203062   0.256730   0.380873   0.390625  -0.678312
      9      -0.006448  -0.493033  -0.017427  -0.071846  -0.029171   0.133830
     10      -0.487143  -0.009593  -0.008324  -0.042487   0.166724  -0.029694
     11      -0.117702  -0.203069   0.256735   0.380873   0.390873   0.678172
     12       0.000002   0.082122   0.000009  -0.000000  -0.000000  -0.000219
     13       0.082088  -0.000002  -0.000383   0.000108  -0.000195   0.000000
     14      -0.000342   0.000000  -0.770625   0.019064   0.000007   0.000000
     15       0.000001   0.046772  -0.000004   0.000002   0.000001   0.008107
     16       0.046745  -0.000001  -0.000119   0.000158   0.008122  -0.000001
     17       0.000243   0.000001   0.277902  -0.131974   0.000035   0.000000
                 12         13         14         15         16         17    
      0       0.000001  -0.076462  -0.000177  -0.000001  -0.000030  -0.098043
      1      -0.000114  -0.000177   0.076487  -0.000206  -0.098045   0.000030
      2      -0.078171  -0.000001  -0.000087   0.033660  -0.000164  -0.000001
      3      -0.000007   0.770713   0.001783   0.000002  -0.000008  -0.018414
      4      -0.151199  -0.000273   0.118411  -0.559913   0.787132  -0.000240
      5       0.554258   0.000548  -0.232853  -0.133627   0.205170  -0.000063
      6      -0.129799   0.104736  -0.385037  -0.486735  -0.347349   0.585257
      7       0.076022   0.386060  -0.547542   0.281145   0.182295  -0.348651
      8       0.556102   0.202768   0.117670  -0.133415  -0.101493   0.176397
      9       0.129785   0.102962   0.385514   0.486740   0.347710   0.585048
     10       0.076022  -0.383527  -0.549320   0.281146   0.182509   0.348539
     11       0.556106  -0.203306   0.116742  -0.133403  -0.101592  -0.176320
     12       0.000000  -0.000341  -0.000001  -0.000000   0.000000   0.000089
     13      -0.000014  -0.000001   0.000341   0.000001   0.000090  -0.000000
     14      -0.003335   0.000000  -0.000004   0.000225  -0.000004   0.000000
     15       0.000000  -0.000698  -0.000002   0.000000   0.000000   0.000167
     16       0.000013  -0.000002   0.000695   0.000001   0.000166  -0.000000
     17      -0.007793   0.000000  -0.000005  -0.000108   0.000000   0.000000


-----------
IR SPECTRUM
-----------

 Mode   freq       eps      Int      T**2         TX        TY        TZ
       cm**-1   L/(mol*cm) km/mol    a.u.
----------------------------------------------------------------------------
  6:    109.88   0.001435    7.25  0.004075  (-0.000001 -0.063837 -0.000434)
  7:    110.36   0.001434    7.25  0.004056  (-0.063688  0.000001  0.000001)
  8:    122.39   0.012595   63.65  0.032112  (-0.000002  0.000094  0.179199)
  9:    372.26   0.072308  365.41  0.060615  (-0.000003 -0.000064  0.246202)
 10:    890.20   0.000230    1.16  0.000081  ( 0.000002  0.008974  0.000017)
 11:    891.02   0.000233    1.18  0.000082  ( 0.009032 -0.000002  0.000000)
 12:   1197.06   0.009631   48.67  0.002511  ( 0.000001  0.000060 -0.050108)
 13:   1433.23   0.001864    9.42  0.000406  ( 0.020144  0.000047  0.000001)
 14:   1433.31   0.001880    9.50  0.000409  ( 0.000047 -0.020233 -0.000169)
 15:   3125.55   0.000089    0.45  0.000009  (-0.000000 -0.000115  0.002975)
 16:   3278.95   0.000169    0.86  0.000016  ( 0.000001  0.004013 -0.000063)
 17:   3279.78   0.000174    0.88  0.000017  ( 0.004068 -0.000001  0.000000)

* The epsilon (eps) is given for a Dirac delta lineshape.
** The dipole moment derivative (T) already includes vibrational overlap.

The first frequency considered to be a vibration is 6
The total number of vibrations considered is 12


--------------------------
THERMOCHEMISTRY AT 298.15K
--------------------------

Temperature         ...   298.15 K
Pressure            ...     1.00 atm
Total Mass          ...   130.39 AMU
Quasi RRHO          ...     True
Cut-Off Frequency   ...     1.00 cm^-1

Throughout the following assumptions are being made:
  (1) The electronic state is orbitally nondegenerate
  (2) There are no thermally accessible electronically excited states
  (3) Hindered rotations indicated by low frequency modes are not
      treated as such but are treated as vibrations and this may
      cause some error
  (4) All equations used are the standard statistical mechanics
      equations for an ideal gas
  (5) All vibrations are strictly harmonic

freq.     109.88  E(vib)   ...       0.45 
freq.     110.36  E(vib)   ...       0.45 
freq.     122.39  E(vib)   ...       0.43 
freq.     372.26  E(vib)   ...       0.21 
freq.     890.20  E(vib)   ...       0.04 
freq.     891.02  E(vib)   ...       0.04 
freq.    1197.06  E(vib)   ...       0.01 
freq.    1433.23  E(vib)   ...       0.00 
freq.    1433.31  E(vib)   ...       0.00 
freq.    3125.55  E(vib)   ...       0.00 
freq.    3278.95  E(vib)   ...       0.00 
freq.    3279.78  E(vib)   ...       0.00 

------------
INNER ENERGY
------------

The inner energy is: U= E(el) + E(ZPE) + E(vib) + E(rot) + E(trans)
    E(el)   - is the total energy from the electronic structure calculation
              = E(kin-el) + E(nuc-el) + E(el-el) + E(nuc-nuc)
    E(ZPE)  - the the zero temperature vibrational energy from the frequency calculation
    E(vib)  - the the finite temperature correction to E(ZPE) due to population
              of excited vibrational states
    E(rot)  - is the rotational thermal energy
    E(trans)- is the translational thermal energy

Summary of contributions to the inner energy U:
Electronic energy                ...  -3074.29339719 Eh
Zero point energy                ...      0.03700654 Eh      23.22 kcal/mol
Thermal vibrational correction   ...      0.00260275 Eh       1.63 kcal/mol
Thermal rotational correction    ...      0.00141627 Eh       0.89 kcal/mol
Thermal translational correction ...      0.00141627 Eh       0.89 kcal/mol
-----------------------------------------------------------------------
Total thermal energy                  -3074.25095535 Eh


Summary of corrections to the electronic energy:
(perhaps to be used in another calculation)
Total thermal correction                  0.00543530 Eh       3.41 kcal/mol
Non-thermal (ZPE) correction              0.03700654 Eh      23.22 kcal/mol
-----------------------------------------------------------------------
Total correction                          0.04244184 Eh      26.63 kcal/mol


--------
ENTHALPY
--------

The enthalpy is H = U + kB*T
                kB is Boltzmann's constant
Total thermal energy              ...  -3074.25095535 Eh 
Thermal Enthalpy correction       ...      0.00094421 Eh       0.59 kcal/mol
-----------------------------------------------------------------------
Total Enthalpy                    ...  -3074.25001114 Eh


Note: Rotational entropy computed according to Herzberg 
Infrared and Raman Spectra, Chapter V,1, Van Nostrand Reinhold, 1945 
Point Group:  Cs, Symmetry Number:   1  
Rotational constants in cm-1:     5.133554     0.026999     0.026999 

Vibrational entropy computed according to the QRRHO of S. Grimme
Chem.Eur.J. 2012 18 9955 using a reference frequency of 100.0 cm-1


-------
ENTROPY
-------

The entropy contributions are T*S = T*(S(el)+S(vib)+S(rot)+S(trans))
     S(el)   - electronic entropy
     S(vib)  - vibrational entropy
     S(rot)  - rotational entropy
     S(trans)- translational entropy
The entropies will be listed as multiplied by the temperature to get
units of energy

Electronic entropy                ...      0.00000000 Eh      0.00 kcal/mol
Vibrational entropy               ...      0.00498661 Eh      3.13 kcal/mol
Rotational entropy                ...      0.01214892 Eh      7.62 kcal/mol
Translational entropy             ...      0.01924704 Eh     12.08 kcal/mol
-----------------------------------------------------------------------
Final entropy term                ...      0.03638257 Eh     22.83 kcal/mol

In case the symmetry of your molecule has not been determined correctly
or in case you have a reason to use a different symmetry number we print 
out the resulting rotational entropy values for sn=1,12:

 non-linear molecules -----------------------------------
|  sn= 1 | S(rot)=       0.01214892 Eh      7.62 kcal/mol|
|  sn= 2 | S(rot)=       0.01149446 Eh      7.21 kcal/mol|
|  sn= 3 | S(rot)=       0.01111163 Eh      6.97 kcal/mol|
|  sn= 4 | S(rot)=       0.01084000 Eh      6.80 kcal/mol|
|  sn= 5 | S(rot)=       0.01062932 Eh      6.67 kcal/mol|
|  sn= 6 | S(rot)=       0.01045717 Eh      6.56 kcal/mol|
|  sn= 7 | S(rot)=       0.01031163 Eh      6.47 kcal/mol|
|  sn= 8 | S(rot)=       0.01018555 Eh      6.39 kcal/mol|
|  sn= 9 | S(rot)=       0.01007434 Eh      6.32 kcal/mol|
|  sn=10 | S(rot)=       0.00997486 Eh      6.26 kcal/mol|
|  sn=11 | S(rot)=       0.00988487 Eh      6.20 kcal/mol|
|  sn=12 | S(rot)=       0.00980271 Eh      6.15 kcal/mol|
 linear molecules ---------------------------------------
|  Dinfh | S(rot)=       0.00873616 Eh      5.48 kcal/mol|
|  Cinfv | S(rot)=       0.00939061 Eh      5.89 kcal/mol|
 --------------------------------------------------------


-------------------
GIBBS FREE ENERGY
-------------------

The Gibbs free energy is G = H - T*S

Total enthalpy                    ...  -3074.25001114 Eh 
Total entropy correction          ...     -0.03638257 Eh    -22.83 kcal/mol
-----------------------------------------------------------------------
Final Gibbs free energy         ...  -3074.28639371 Eh

For completeness - the Gibbs free energy minus the electronic energy
G-E(el)                           ...      0.00700348 Eh      4.39 kcal/mol


Maximum memory used throughout the entire PROP-calculation: 31.0 MB

--------------------------------
SUGGESTED CITATIONS FOR THIS RUN
--------------------------------

Below you find a list of papers that are relevant to this ORCA run
We neither can nor want to force you to cite these papers, but we appreciate if you do
You receive ORCA, which is the product of decades of hard work by many enthusiastic individuals, for free
The only thing we kindly ask in return is that you cite our papers,
We deeply appreciate it, if you show your appreciation for ORCA by not just citing the generic ORCA reference.

Please note that relegating all ORCA citations to the supporting information does *not* help us.
SI sections are not indexed - citations you put there will not count into any citation statistics
But we need these citations in order to attract the funding resources that allow us to do what we are doing

Therefore, if you are a happy ORCA user, please consider citing a few of the papers listed below in the main body of your paper

In addition to the list printed below, the program has created the file product_optfreq.bibtex that contains the list in bibtex format
You can import this file easily into all common literature databanks and citation aid programs


List of essential papers. We consider these as the minimum necessary citations

  1. Grimme, S.; Hansen, A.; Ehlert, S.; Mewes, J.
     r2SCAN-3c: A 'Swiss army knife' composite electronic-structure method
     J. Chem. Phys. 2021 154 , 064103
     doi.org/10.1063/5.0040021
  2. Neese, F.
     Software update: the ORCA program system, version 6.0
     WIRES Comput. Molec. Sci. 2025 15(1), e70019
     doi.org/10.1002/wcms.7019

List of papers to cite with high priority. The work reported in these papers was absolutely
necessary for this run to complete.
Our perspective: the developers of density functionals and basis sets usually get cited in chemistry papers
Good! But without the algorithms to do something with them, the functionals or basis sets would not do anything.
Hence, in our opinion, the algorithm design and method developments papers are equally worthy of getting cited

  1. Neese, F.
     An improvement of the resolution of the identity approximation for the formation of the Coulomb matrix
     J. Comp. Chem. 2003 24(14), 1740-1747
     doi.org/10.1002/jcc.10318
  2. Bykov, D.; Petrenko, T.; Izsak, R.; Kossmann, S.; Becker, U.; Valeev, E.; Neese, F.
     Efficient implementation of the analytic second derivatives of Hartree-Fock and hybrid DFT energies: a detailed analysis of different approximations
     Molec. Phys. 2015 113 , 1961-1977
     doi.org/10.1080/00268976.2015.1025114
  3. Caldeweyher, E.; Bannwarth, C.; Grimme, S.
     Extension of the D3 dispersion coefficient model
     J. Chem. Phys. 2017 147 , 034112
     doi.org/10.1063/1.4993215
  4. Lehtola, S.; Steigemann, C.; Oliveira, M.; Marques, M.
     Recent developments in Libxc - A comprehensive library of functionals for density functional theory
     Software X 2018 7 , 
     doi.org/10.1016/j.softx.2017.11.002
  5. Caldeweyher, E.; Ehlert, S.; Hansen, A.; Neugebauer, H.; Spicher, S.; Bannwarth, C.; Grimme, S.
     A generally applicable atomic-charge dependent London dispersion correction
     J. Chem. Phys. 2019 150 , 154122
     doi.org/10.1063/1.5090222
  6. Caldeweyher, E.; Mewes, J.; Ehlert, S.; Grimme, S.
     Extension and evaluation of the D4 London-dispersion model for periodic systems
     Phys. Chem. Chem. Phys. 2020 22(16), 8499-8512
     doi.org/10.1039/D0CP00502A
  7. Neese, F.
     The SHARK Integral Generation and Digestion System
     J. Comp. Chem. 2022 44(3), 381
     doi.org/10.1002/jcc.26942
  8. Wittmann, L.; Gordiy, I.; Friede, M.; Helmich-Paris, B.; Grimme, S.; Hansen, A.; Bursch, M.
     Extension of the D3 and D4 London Dispersion Corrections to the full Actinides Series
     Phys. Chem. Chem. Phys. 2024 26(32), 21379-21394
     doi.org/10.1039/D4CP01514B

List of suggested additional citations. These are papers that are important in the 'surrounding' of 
of this run, or papers that preceded the highly important papers. If you like your results we are grateful for a citation.

  1. Neese, F.
     The ORCA program system
     WIRES Comput. Molec. Sci. 2012 2(1), 73-78
     doi.org/10.1002/wcms.81
  2. Neese, F.
     Software update: the ORCA program system, version 4.0
     WIRES Comput. Molec. Sci. 2018 8(1), 1-6
     doi.org/10.1002/wcms.1327
  3. Neese, F.; Wennmohs, F.; Becker, U.; Riplinger, C.
     The ORCA quantum chemistry program package
     J. Chem. Phys. 2020 152(22), 224108
     doi.org/10.1063/5.0004608
  4. Neese, F.
     Software update: The ORCA program system—Version 5.0
     WIRES Comput. Molec. Sci. 2022 12(1), e1606
     doi.org/10.1002/wcms.1606

List of optional additional citations

  1. Neese, F.
     Approximate second-order SCF convergence for spin unrestricted wavefunctions
     Chem. Phys. Lett. 2000 325(1-3), 93-98
     doi.org/10.1016/s0009-2614(00)00662-x

Timings for individual modules:

Sum of individual times          ...      119.410 sec (=   1.990 min)
Startup calculation              ...       16.839 sec (=   0.281 min)  14.1 %
SCF iterations                   ...       52.867 sec (=   0.881 min)  44.3 %
Property integrals               ...       17.466 sec (=   0.291 min)  14.6 %
SCF Response                     ...        5.211 sec (=   0.087 min)   4.4 %
Property calculations            ...        6.851 sec (=   0.114 min)   5.7 %
SCF Gradient evaluation          ...       20.148 sec (=   0.336 min)  16.9 %
Geometry relaxation              ...        0.029 sec (=   0.000 min)   0.0 %
                             ****ORCA TERMINATED NORMALLY****
TOTAL RUN TIME: 0 days 0 hours 2 minutes 8 seconds 97 msec
