
                                 *****************
                                 * O   R   C   A *
                                 *****************

                                            #,                                       
                                            ###                                      
                                            ####                                     
                                            #####                                    
                                            ######                                   
                                           ########,                                 
                                     ,,################,,,,,                         
                               ,,#################################,,                 
                          ,,##########################################,,             
                       ,#########################################, ''#####,          
                    ,#############################################,,   '####,        
                  ,##################################################,,,,####,       
                ,###########''''           ''''###############################       
              ,#####''   ,,,,##########,,,,          '''####'''          '####       
            ,##' ,,,,###########################,,,                        '##       
           ' ,,###''''                  '''############,,,                           
         ,,##''                                '''############,,,,        ,,,,,,###''
      ,#''                                            '''#######################'''  
     '                                                          ''''####''''         
             ,#######,   #######,   ,#######,      ##                                
            ,#'     '#,  ##    ##  ,#'     '#,    #''#        ,####,    ,#,          
            ##       ##  ##   ,#'  ##            #'  '#       #'       ,# #          
            ##       ##  #######   ##           ,######,      #####,      #          
            '#,     ,#'  ##    ##  '#,     ,#' ,#      #,     #,   #      #          
             '#######'   ##     ##  '#######'  #'      '#     '####' #    #          



                #########################################################
                #                        -***-                          #
                #          Department of theory and spectroscopy        #
                #                                                       #
                #                      Frank Neese                      #
                #                                                       #
                #     Directorship, Architecture, Infrastructure        #
                #                    SHARK, DRIVERS                     #
                #        Core code/Algorithms in most modules           #
                #                                                       #
                #        Max Planck Institute fuer Kohlenforschung      #
                #                Kaiser Wilhelm Platz 1                 #
                #                 D-45470 Muelheim/Ruhr                 #
                #                      Germany                          #
                #                                                       #
                #                  All rights reserved                  #
                #                        -***-                          #
                #########################################################


                         Program Version 6.1.0  -  RELEASE   -
                                (GIT: $679e74b$)
                          ($2025-06-10 18:02:51 +0200$)


 With contributions from (in alphabetic order):
[Max-Planck-Institut fuer Kohlenforschung]                               
  Daniel Aravena         : Magnetic Suceptibility                        
  Michael Atanasov       : Ab Initio Ligand Field Theory (pilot matlab implementation)
  Alexander A. Auer      : GIAO ZORA, VPT2 properties, NMR spectrum      
  Ute Becker             : All parallelization in ORCA, NUMFREQ, NUMCALC 
  Giovanni Bistoni       : ED, misc. LED, open-shell LED, HFLD           
  Dmytro Bykov           : pre 5.0 version of the SCF Hessian            
  Marcos Casanova-Páez   : Triplet and SCS-CIS(D). UHF-(DLPNO)-IP/EA/STEOM-CCSD. UHF-CVS-IP/STEOM-CCSD   
  Vijay G. Chilkuri      : MRCI spin determinant printing, contributions to CSF-ICE 
  Pauline Colinet        : FMM embedding                                 
  Dipayan Datta          : RHF DLPNO-CCSD density                        
  Achintya Kumar Dutta   : EOM-CC, STEOM-CC                              
  Nicolas Foglia         : Exact transition moments, OPA infrastructure, MCD improvements    
  Dmitry Ganyushin       : Spin-Orbit,Spin-Spin,Magnetic field MRCI      
  Miquel Garcia-Rates    : C-PCM and meta-GGA Hessian, CCSD/C-PCM, Gaussian charge scheme 
  Tiago L. C. Gouveia    : GS-ROHF, GS-ROCIS                             
  Yang Guo               : DLPNO-NEVPT2, F12-NEVPT2, CIM, IAO-localization        
  Andreas Hansen         : Spin unrestricted coupled pair/coupled cluster methods 
  Ingolf Harden          : AUTO-CI MPn and infrastructure                
  Benjamin Helmich-Paris : MC-RPA, TRAH-(SCF,CASSCF), AVAS, COSX integrals, SCF dyn. polar., MC-PDFT, srDFT 
  Lee Huntington         : MR-EOM, pCC                                   
  Robert Izsak           : Overlap fitted RIJCOSX, COSX-SCS-MP3, EOM     
  Riya Kayal             : Wick's Theorem for AUTO-CI, AUTO-CI UHF-CCSDT 
  Emily Kempfer          : AUTO-CI RHF CISDT and CCSDT, approximate NEVPT4
  Christian Kollmar      : KDIIS, OOCD, Brueckner-CCSD(T), CCSD density, CASPT2, CASPT2-K, improved NEVPT2 
  Axel Koslowski         : Symmetry handling                             
  Simone Kossmann        : meta-GGA functionals, TD-DFT gradient, OOMP2, (MP2 Hessian; deprecated post 5.0) 
  Lucas Lang             : DCDCAS, Hyperfine gauge corrections, ICE-SOC+SSC
  Marvin Lechner         : AUTO-CI (C++ implementation), FIC-MRCC        
  Spencer Leger          : CASSCF response                               
  Dagmar Lenk            : GEPOL surface, SMD, ORCA-2-JSON               
  Dimitrios Liakos       : Extrapolation schemes; Compound Job, Property file
  Dimitrios Manganas     : Further ROCIS development; embedding schemes. LFT, Crystal Embedding 
  Dimitrios Pantazis     : SARC Basis sets                               
  Anastasios Papadopoulos: AUTO-CI, single reference methods and gradients 
  Taras Petrenko         : pre 6.0 DFT Hessian and TD-DFT gradient,  ECA, NRVS 
  Petra Pikulova         : Analytic Raman intensities                    
  Peter Pinski           : DLPNO-MP2, DLPNO-MP2 Gradient                 
  Shashank Vittal Rao    : ES-AILFT, MagRelax                            
  Christoph Reimann      : Effective Core Potentials                     
  Marius Retegan         : Local ZFS, SOC                                
  Christoph Riplinger    : Optimizer, TS searches, QM/MM, DLPNO-CCSD(T), (RO)-DLPNO pert. Triples 
  Michael Roemelt        : Original ROCIS implementation, recursive CI coupling coefficients
  Masaaki Saitow         : Open-shell DLPNO-CCSD energy and density      
  Barbara Sandhoefer     : DKH picture change effects                    
  Yorick L. A. Schmerwitz: GMF and freeze-and-release deltaSCF, NEB S-IDPP initial path                    
  Kantharuban Sivalingam : CASSCF convergence/infrastructure, NEVPT2, NEVPT3, NEVPT4(SD), FIC-MRCI and CEPA variants
  Bernardo de Souza      : ESD, SOC TD-DFT                               
  Georgi L. Stoychev     : AutoAux, RI-MP2 NMR, DLPNO-MP2 response, X2C  
  Van Anh Tran           : RI-MP2 g-tensors                              
  Willem Van den Heuvel  : Paramagnetic NMR                              
  Zikuan Wang            : NOTCH, Electric field optimization            
  Frank Wennmohs         : Technical directorship and infrastructure     
  Hang Xu                : AUTO-CI-Response properties                   
                                                                         
[FACCTs GmbH]                                                            
  Markus Bursch, Nicolas Foglia, Miquel Garcia-Rates, Ingolf Harden, Hagen Neugebauer, Anastasios Papadopoulos, 
  Christoph Riplinger, Bernardo de Souza, Georgi L. Stoychev                                                    
                                                                 
  APM, various basis sets, CI-OPT, improved COSX, DLPNO-Multilevel,           
  DOCKER, DRACO, updates on ESD, Fragmentator, GOAT, IRC, LR-CPCM, L-BFGS, MBIS, meta-GGA TD-DFT gradient, ML-optimized integration grids, 
  MM, NACMEs, nearIR, NEB, NEB-TS, NL-DFT gradient (VV10), 2- and 3-layer-ONIOM, interface openCOSMO-RS, QMMM,   
  Crystal-QMMM, RESP, rigid body optimization, SF, symmetry and pop. for TD-DFT, various functionals, SOLVATOR                                   
                                                                         
[Other institutions]                                                     
  V. Asgeirsson          : NEB                                           
  Christoph Bannwarth    : sTDA-DFT, sTD-DFT, PBEh-3c, B97-3c, D3        
  Giovanni Bistoni       : ETS/NOCV, ADLD/ADEX, COVALED                  
  Martin Brehm           : Molecular dynamics                            
  Ronald Cardenas        : ETS/NOCV                                      
  Martina Colucci        : COVALED                                       
  Sebastian Ehlert       : rSCAN, r2SCAN, r2SCAN-3c, D4, dhf basis sets  
  Marvin Friede          : D4 for Fr, Ra, Ac-Lr                          
  Lars Goerigk           : TD-DFT with DH, B97 family of functionals     
  Stefan Grimme          : VdW corrections, initial TS optimization, DFT functionals, gCP, sTDA/sTD-DF 
  Waldemar Hujo          : DFT-NL                                        
  H. Jonsson             : NEB                                           
  Holger Kruse           : gCP                                           
  Marcel Mueller         : wB97X-3c, vDZP basis set                      
  Hagen Neugebauer       : wr2SCAN, Native XTB                           
  Gianluca Regni         : ADLD/ADEX                                     
  Tobias Risthaus        : pre 6.0 range-separated hybrid DFT and stability analysis
  Lukas Wittmann         : regularized MP2, r2SCAN double-hybrids, wr2SCAN        
                                                                         
We gratefully acknowledge several colleagues who have allowed us to      
interface, adapt or use parts of their codes:                            
  Ed Valeev, F. Pavosevic, A. Kumar             : LibInt (2-el integral package), F12 methods 
  Garnet Chan, S. Sharma, J. Yang, R. Olivares  : DMRG                   
  Ulf Ekstrom                                   : XCFun DFT Library      
  Mihaly Kallay                                 : mrcc  (arbitrary order and MRCC methods)
  Frank Weinhold                                : gennbo (NPA and NBO analysis)           
  Simon Mueller                                 : openCOSMO-RS                            
  Christopher J. Cramer and Donald G. Truhlar   : smd solvation model                     
  S Lehtola, MJT Oliveira, MAL Marques          : LibXC Library                           
  Liviu Ungur et al                             : ANISO software                          


 Your calculation uses the libint2 library for the computation of 2-el integrals
 For citations please refer to: http://libint.valeyev.net

 Your ORCA version has been built with support for libXC version: 7.0.0
 For citations please refer to: https://libxc.gitlab.io

 This ORCA versions uses:
   CBLAS   interface :  Fast vector & matrix operations
   LAPACKE interface :  Fast linear algebra routines
   SCALAPACK package :  Parallel linear algebra routines
   Shared memory     :  Shared parallel matrices
   BLAS/LAPACK       :  OpenBLAS 0.3.29  USE64BITINT DYNAMIC_ARCH NO_AFFINITY SkylakeX SINGLE_THREADED
        Core in use  :  SkylakeX
   Copyright (c) 2011-2014, The OpenBLAS Project


  ***********************************
  * Starting time: Thu Mar 12 13:18:40 2026
  * Host name:     midway3-login4.rcc.local
  * Process ID:    3007410
  * Working dir.:  /home/rzhu16/orca_TS_search/sn2_cl_br/DFT_test
  ***********************************

Your calculation utilizes the geometrical counterpoise correction gCP
Please cite in your paper:
H.Kruse, S. Grimme J.Chem.Phys., 136, (2012), 154101 
   

Your calculation utilizes the atom-pairwise dispersion correction
based on EEQ partial charges (D4)


================================================================================

----- Orbital basis set information -----
Your calculation utilizes the basis: def2-mTZVPP
   Stefan Grimme, Andreas Hansen, Sebastian Ehlert, and Jan-Michael Mewes 
   J. Chem. Phys. 154, 064103 (2021). DOI: 10.1063/5.0040021

----- AuxJ basis set information -----
Your calculation utilizes the basis: def2-mTZVPP/J
   Stefan Grimme, Andreas Hansen, Sebastian Ehlert, and Jan-Michael Mewes 
   J. Chem. Phys. 154, 000000 (2021). DOI: 10.1063/5.0040021

================================================================================
                                        WARNINGS
                       Please study these warnings very carefully!
================================================================================

WARNING: Old DensityContainer found on disk!
         Will remove this file - 
         If you want to keep old densities, please start your calculation with a different basename. 



WARNING: SCAN, rSCAN, or r2SCAN functional requested.
  ===> : libXC variant has now been activated.



WARNING: Geometry Optimization
  ===> : Switching off AutoStart
         For restart on a previous wavefunction, please use MOREAD

================================================================================
                                       INPUT FILE
================================================================================
NAME = reactant_optfreq.inp
|  1> ! r2SCAN-3c Opt Freq PAL8 TightSCF
|  2> 
|  3> %pal
|  4>    nprocs 8
|  5> end
|  6> 
|  7> %scf
|  8>    MaxIter 150
|  9> end
| 10> 
| 11> * xyz -1 1
| 12>   C       0.000342      0.000078      0.397742
| 13>   H      -0.000077      1.027377      0.054730
| 14>   H       0.889638     -0.513738      0.054749
| 15>   H      -0.890123     -0.513927      0.054622
| 16>   Cl     -0.000068     -0.000067      2.177736
| 17>   Br      0.000008      0.000006     -2.665227
| 18> *
| 19> 
| 20>                          ****END OF INPUT****
================================================================================

                       *****************************
                       * Geometry Optimization Run *
                       *****************************

Geometry optimization settings:
Update method            Update   .... BFGS
Choice of coordinates    CoordSys .... (2022) Redundant Internals
Initial Hessian          InHess   .... Almloef's Model
Max. no of cycles        MaxIter  .... 50

Convergence Tolerances:
Energy Change            TolE     ....  5.0000e-06 Eh
Max. Gradient            TolMAXG  ....  3.0000e-04 Eh/bohr
RMS Gradient             TolRMSG  ....  1.0000e-04 Eh/bohr
Max. Displacement        TolMAXD  ....  4.0000e-03 bohr
RMS Displacement         TolRMSD  ....  2.0000e-03 bohr
Strict Convergence                .... False

------------------------------------------------------------------------------
                        ORCA OPTIMIZATION COORDINATE SETUP
------------------------------------------------------------------------------

The optimization will be done in redundant internal coordinates (2022)
Making redundant internal coordinates   ...  (2022 redundants) done
Evaluating the initial hessian          ...  (Almloef) done
Evaluating the coordinates              ...  done
Calculating the B-matrix                .... done
Calculating the G-matrix                .... done
The number of degrees of freedom        ....   17

    -----------------------------------------------------------------
                    Redundant Internal Coordinates


    -----------------------------------------------------------------
         Definition                    Initial Value    Approx d2E/dq
    -----------------------------------------------------------------
      1. B(H   1,C   0)                  1.0831         0.369410   
      2. B(H   2,C   0)                  1.0828         0.369725   
      3. B(H   3,C   0)                  1.0839         0.368247   
      4. B(Cl  4,C   0)                  1.7800         0.334598   
      5. B(Br  5,H   1)                  2.9075         0.010000   
      6. B(Br  5,H   3)                  2.9076         0.010000   
      7. B(Br  5,H   2)                  2.9075         0.010000   
      8. B(Br  5,C   0)                  3.0630         0.010000   
      9. A(H   1,C   0,H   3)          110.4401         0.293040   
     10. A(H   2,C   0,H   3)          110.4512         0.293079   
     11. A(H   1,C   0,Cl  4)          108.4687         0.333169   
     12. A(H   2,C   0,Cl  4)          108.4761         0.333217   
     13. A(H   3,C   0,Cl  4)          108.4411         0.332995   
     14. A(H   1,C   0,Br  5)           71.5373         0.183445   
     15. A(H   2,C   0,Br  5)           71.5377         0.183463   
     16. A(H   3,C   0,Br  5)           71.5390         0.183378   
     17. A(H   1,C   0,H   2)          110.4926         0.293225   
    -----------------------------------------------------------------

Number of atoms                         .... 6
Number of degrees of freedom            .... 17


         *************************************************************
         *                GEOMETRY OPTIMIZATION CYCLE   1            *
         *************************************************************
---------------------------------
CARTESIAN COORDINATES (ANGSTROEM)
---------------------------------
  C      0.000342    0.000078    0.397742
  H     -0.000077    1.027377    0.054730
  H      0.889638   -0.513738    0.054749
  H     -0.890123   -0.513927    0.054622
  Cl    -0.000068   -0.000067    2.177736
  Br     0.000008    0.000006   -2.665227

----------------------------
CARTESIAN COORDINATES (A.U.)
----------------------------
  NO LB      ZA    FRAG     MASS         X           Y           Z
   0 C     6.0000    0    12.011    0.000646    0.000147    0.751623
   1 H     1.0000    0     1.008   -0.000146    1.941461    0.103425
   2 H     1.0000    0     1.008    1.681172   -0.970824    0.103461
   3 H     1.0000    0     1.008   -1.682089   -0.971181    0.103221
   4 Cl   17.0000    0    35.453   -0.000129   -0.000127    4.115325
   5 Br   35.0000    0    79.900    0.000015    0.000011   -5.036549

--------------------------------
INTERNAL COORDINATES (ANGSTROEM)
--------------------------------
 C      0   0   0     0.000000000000     0.00000000     0.00000000
 H      1   0   0     1.083051542220     0.00000000     0.00000000
 H      1   2   0     1.082819678211   110.49264700     0.00000000
 H      1   2   3     1.083909770530   110.44011187   237.49524817
 Cl     1   2   3     1.779994053125   108.46866738   118.78432686
 Br     3   1   2     2.907515068751    87.77587466   298.76403939

---------------------------
INTERNAL COORDINATES (A.U.)
---------------------------
 C      0   0   0     0.000000000000     0.00000000     0.00000000
 H      1   0   0     2.046670803718     0.00000000     0.00000000
 H      1   2   0     2.046232644240   110.49264700     0.00000000
 H      1   2   3     2.048292620183   110.44011187   237.49524817
 Cl     1   2   3     3.363701280415   108.46866738   118.78432686
 Br     3   1   2     5.494407210188    87.77587466   298.76403939

---------------------
BASIS SET INFORMATION
---------------------
There are 4 groups of distinct atoms

 Group   1 Type C   : 11s6p1d contracted to 5s3p1d pattern {62111/411/1}
 Group   2 Type H   : 4s1p contracted to 2s1p pattern {31/1}
 Group   3 Type Cl  : 14s9p2d contracted to 5s4p2d pattern {73211/6111/11}
 Group   4 Type Br  : 17s13p7d contracted to 6s5p3d pattern {842111/64111/511}

Atom   0C    basis set group =>   1
Atom   1H    basis set group =>   2
Atom   2H    basis set group =>   2
Atom   3H    basis set group =>   2
Atom   4Cl   basis set group =>   3
Atom   5Br   basis set group =>   4
---------------------------------
AUXILIARY/J BASIS SET INFORMATION
---------------------------------
There are 4 groups of distinct atoms

 Group   1 Type C   : 8s3p3d contracted to 6s3p3d pattern {311111/111/111}
 Group   2 Type H   : 5s2p1d contracted to 3s1p1d pattern {311/2/1}
 Group   3 Type Cl  : 14s5p5d2f contracted to 8s4p3d1f pattern {71111111/2111/311/2}
 Group   4 Type Br  : 19s5p5d3f1g contracted to 8s4p3d2f1g pattern {121111111/2111/311/21/1}

Atom   0C    basis set group =>   1
Atom   1H    basis set group =>   2
Atom   2H    basis set group =>   2
Atom   3H    basis set group =>   2
Atom   4Cl   basis set group =>   3
Atom   5Br   basis set group =>   4


           ************************************************************
           *        Program running with 8 parallel MPI-processes     *
           *              working on a common directory               *
           ************************************************************
------------------------------------------------------------------------------
                             ORCA STARTUP CALCULATIONS
                           -- RI-GTO INTEGRALS CHOSEN --
------------------------------------------------------------------------------
------------------------------------------------------------------------------
                   ___                                                        
                  /   \      - P O W E R E D   B Y -                         
                 /     \                                                     
                 |  |  |   _    _      __       _____    __    __             
                 |  |  |  | |  | |    /  \     |  _  \  |  |  /  |          
                  \  \/   | |  | |   /    \    | | | |  |  | /  /          
                 / \  \   | |__| |  /  /\  \   | |_| |  |  |/  /          
                |  |  |   |  __  | /  /__\  \  |    /   |      \           
                |  |  |   | |  | | |   __   |  |    \   |  |\   \          
                \     /   | |  | | |  |  |  |  | |\  \  |  | \   \       
                 \___/    |_|  |_| |__|  |__|  |_| \__\ |__|  \__/        
                                                                              
                      - O R C A' S   B I G   F R I E N D -                    
                                      &                                       
                       - I N T E G R A L  F E E D E R -                       
                                                                              
 v1 FN, 2020, v2 2021, v3 2022-2024                                           
------------------------------------------------------------------------------


----------------------
SHARK INTEGRAL PACKAGE
----------------------

Number of atoms                             ...      6
Number of basis functions                   ...     97
Number of shells                            ...     43
Maximum angular momentum                    ...      2
Integral batch strategy                     ... SHARK/LIBINT Hybrid
RI-J (if used) integral strategy            ... SPLIT-RIJ (Revised 2003 algorithm where possible)
Printlevel                                  ...      1
Contraction scheme used                     ... SEGMENTED contraction
Prescreening option                         ... SCHWARTZ
   Thresh                                   ... 2.500e-11
   Tcut                                     ... 2.500e-12
   Tpresel                                  ... 2.500e-12 
Coulomb Range Separation                    ... NOT USED
Exchange Range Separation                   ... NOT USED
Multipole approximations                    ... NOT USED
Finite Nucleus Model                        ... NOT USED
CABS basis                                  ... NOT available
Auxiliary Coulomb fitting basis             ... AVAILABLE
   # of basis functions in Aux-J            ...    163
   # of shells in Aux-J                     ...     61
   Maximum angular momentum in Aux-J        ...      4
Auxiliary J/K fitting basis                 ... NOT available
Auxiliary Correlation fitting basis         ... NOT available
Auxiliary 'external' fitting basis          ... NOT available

Checking pre-screening integrals            ... done (  0.0 sec) Dimension = 43
   => SHARK Basis and OBASIS are compatible. Storing Pre-screening
Shell pair information
Shell pair cut-off parameter TPreSel        ...   2.5e-12
Total number of shell pairs                 ...       946
Shell pairs after pre-screening             ...       851
Total number of primitive shell pairs       ...      4697
Primitive shell pairs kept                  ...      3127
          la=0 lb=0:    223 shell pairs
          la=1 lb=0:    295 shell pairs
          la=1 lb=1:    113 shell pairs
          la=2 lb=0:    117 shell pairs
          la=2 lb=1:     84 shell pairs
          la=2 lb=2:     19 shell pairs

Checking whether 4 symmetric matrices of dimension 97 fit in memory
:Max Core in MB      =   4096.00
 MB in use           =      4.46
 MB left             =   4091.54
 MB needed           =      0.15
 Data fit in memory  = YES
Calculating RI/J V-Matrix + Cholesky decomp.... done (  0.0 sec)
Calculating Nuclear repulsion               ... done (  0.0 sec) ENN=    171.856250084910 Eh

Diagonalization of the overlap matrix:
Smallest eigenvalue                        ... 5.871e-03
Time for diagonalization                   ...    0.001 sec
Threshold for overlap eigenvalues          ... 1.000e-07
Number of eigenvalues below threshold      ... 0
Time for construction of square roots      ...    0.001 sec
Total time needed                          ...    0.003 sec

-------------------
DFT GRID GENERATION
-------------------

General Integration Accuracy     IntAcc      ... 4.388
Radial Grid Type                 RadialGrid  ... OptM3 with GC (2021)
Angular Grid (max. ang.)         AngularGrid ... 4 (Lebedev-302)
Angular grid pruning method      GridPruning ... 4 (adaptive)
Weight generation scheme         WeightScheme... mBecke (2022)
Basis function cutoff            BFCut       ... 1.0000e-11
Integration weight cutoff        WCut        ... 1.0000e-14
Partially contracted basis set               ... off
Rotationally invariant grid construction     ... off
Angular grids for H and He will be reduced by one unit
Core-polarized basis detected: some atoms will have their core
                               angular grid increased.

Total number of grid points                  ...    34591
Total number of batches                      ...      544
Average number of points per batch           ...       63
Average number of grid points per atom       ...     5765
Grids setup in   0.8 sec
Initializing property integral containers    ... done (  0.1 sec)

SHARK setup successfully completed in   1.2 seconds

Maximum memory used throughout the entire STARTUP-calculation: 13.4 MB


           ************************************************************
           *        Program running with 8 parallel MPI-processes     *
           *              working on a common directory               *
           ************************************************************
-------------------------------------------------------------------------------
                                 ORCA GUESS
                   Start orbitals & Density for SCF / CASSCF
-------------------------------------------------------------------------------

------------
SCF SETTINGS
------------
Hamiltonian:
 Density Functional     Method          .... DFT(GTOs)
  Functional kind                       .... Exchange
  Functional name                       .... Re-regularized SCAN exchange by Furness et al
  Functional family                     .... MGGA
  Functional refs                              
    [ 0] J. W. Furness, A. D. Kaplan, J. Ning, J. P. Perdew, and J. Sun.,  J. Phys. Chem. Lett. 11, 8208-8215 (2020), doi: 10.1021/acs.jpclett.0c02405
    [ 1] J. W. Furness, A. D. Kaplan, J. Ning, J. P. Perdew, and J. Sun.,  J. Phys. Chem. Lett. 11, 9248-9248 (2020), doi: 10.1021/acs.jpclett.0c03077
  Functional external parameters        .... 6
    Parameter  0 _c1        =  6.670000e-01 : c1 parameter        
    Parameter  1 _c2        =  8.000000e-01 : c2 parameter        
    Parameter  2 _d         =  1.240000e+00 : d parameter         
    Parameter  3 _k1        =  6.500000e-02 : k1 parameter        
    Parameter  4 _eta       =  1.000000e-03 : eta parameter       
    Parameter  5 _dp2       =  3.610000e-01 : dp2 parameter       
  Functional kind                       .... Correlation
  Functional name                       .... Re-regularized SCAN correlation by Furness et al
  Functional family                     .... MGGA
  Functional refs                              
    [ 0] J. W. Furness, A. D. Kaplan, J. Ning, J. P. Perdew, and J. Sun.,  J. Phys. Chem. Lett. 11, 8208-8215 (2020), doi: 10.1021/acs.jpclett.0c02405
    [ 1] J. W. Furness, A. D. Kaplan, J. Ning, J. P. Perdew, and J. Sun.,  J. Phys. Chem. Lett. 11, 9248-9248 (2020), doi: 10.1021/acs.jpclett.0c03077
  Functional external parameters        .... 1
    Parameter  0 _eta       =  1.000000e-03 : Regularization parameter
 Gradients option       PostSCFGGA      .... off
 RI-approximation to the Coulomb term is turned on
   Number of AuxJ basis functions       .... 163


General Settings:
 Integral files         IntName         .... reactant_optfreq
 Hartree-Fock type      HFTyp           .... RHF
 Total Charge           Charge          ....   -1
 Multiplicity           Mult            ....    1
 Number of Electrons    NEL             ....   62
 Basis Dimension        Dim             ....   97
 Nuclear Repulsion      ENuc            ....    171.8562500849 Eh

Convergence Acceleration:
 AO-DIIS                CNVDIIS         .... on
   Start iteration      DIISMaxIt       ....    12
   Startup error        DIISStart       ....  0.200000
   # of expansion vecs  DIISMaxEq       ....     5
   Bias factor          DIISBfac        ....   1.050
   Max. coefficient     DIISMaxC        ....  10.000
 MO-DIIS                CNVKDIIS        .... off
 Trust-Rad. Augm. Hess. CNVTRAH         .... auto
   Auto Start mean grad. ratio tolernc. ....  1.125000
   Auto Start start iteration           ....    50
   Auto Start num. interpolation iter.  ....    10
   Max. Number of Micro iterations      ....    24
   Max. Number of Macro iterations      .... Maxiter - #DIIS iter
   Number of Davidson start vectors     ....     2
   Converg. threshold    (grad. norm)   ....   1.000e-05
   Grad. Scal. Fac. for Micro threshold ....   0.100
   Minimum threshold for Micro iter.    ....   1.000e-02
   NR start threshold (gradient norm)   ....   1.000e-04
   Initial trust radius                 ....   0.400
   Minimum AH scaling param. (alpha)    ....   1.000
   Maximum AH scaling param. (alpha)    .... 1000.000
   Quad. conv. algorithm                .... NR
   White noise on init. David. guess    .... on
   Maximum white noise                  ....   0.010
   Pseudo random numbers                .... off
   Inactive MOs                         .... canonical
   Orbital update algorithm             .... Taylor
   Preconditioner                       .... Diag
   Full preconditioner red. dimension   ....   250
   COSX micro iterations for RIJONX calc.... off
 SOSCF                 CNVSOSCF           .... on
   Start iteration     SOSCFMaxIt         ....   150
   Startup grad/error  SOSCFStart         ....  0.003300
   Hessian update      SOSCFHessUp        .... L-BFGS
   Autom. constraints  SOSCFAutoConstrain .... off
 Level Shifting         CNVShift        .... on
   Level shift para.    LevelShift      ....    0.2500
   Turn off err/grad.   ShiftErr        ....    0.0010
 Zerner damping         CNVZerner       .... off
 Static damping         CNVDamp         .... on
   Fraction old density DampFac         ....    0.7000
   Max. Damping (<1)    DampMax         ....    0.9800
   Min. Damping (>=0)   DampMin         ....    0.0000
   Turn off err/grad.   DampErr         ....    0.1000

SCF Procedure:
 Maximum # iterations   MaxIter         ....   150
 SCF integral mode      SCFMode         .... Direct
   Integral package                     .... SHARK and LIBINT hybrid scheme
 Reset frequency        DirectResetFreq ....    20
 Integral Threshold     Thresh          ....  2.500e-11 Eh
 Primitive CutOff       TCut            ....  2.500e-12 Eh

Convergence Tolerance:
 Convergence Check Mode ConvCheckMode   .... Total+1el-Energy
 Convergence forced     ConvForced      .... 0
 Energy Change          TolE            ....  1.000e-08 Eh
 1-El. energy change                    ....  1.000e-05 Eh
 Orbital Gradient       TolG            ....  1.000e-05
 Orbital Rotation angle TolX            ....  1.000e-05
 DIIS Error             TolErr          ....  5.000e-07

------------------------------
INITIAL GUESS: MODEL POTENTIAL
------------------------------
Loading Hartree-Fock densities                     ... done
Calculating cut-offs                               ... done
Initializing the effective Hamiltonian             ... done
Setting up the integral package (SHARK)            ... done
Starting the Coulomb interaction                   ... done (   0.1 sec)
Making the grid                                    ... done (   0.1 sec)
Mapping shells                                     ... done
Starting the XC term evaluation                    ... done (   0.0 sec)
  promolecular density results
     # of electrons  =     60.997286435
     EX              =   -122.613093165
     EC              =     -2.650690180
     EX+EC           =   -125.263783345
Transforming the Hamiltonian                       ... done (   0.0 sec)
Diagonalizing the Hamiltonian                      ... done (   0.1 sec)
Back transforming the eigenvectors                 ... done (   0.0 sec)
Now organizing SCF variables                       ... done
                      ------------------
                      INITIAL GUESS DONE (   0.4 sec)
                      ------------------
             **** ENERGY FILE WAS UPDATED (reactant_optfreq.en.tmp) ****
Finished Guess after   0.8 sec
Maximum memory used throughout the entire GUESS-calculation: 7.3 MB


           ************************************************************
           *        Program running with 8 parallel MPI-processes     *
           *              working on a common directory               *
           ************************************************************

-------------------------------------------------------------------------------------------
                                      ORCA LEAN-SCF
                              memory conserving SCF solver
-------------------------------------------------------------------------------------------

----------------------------------------D-I-I-S--------------------------------------------
Iteration    Energy (Eh)           Delta-E    RMSDP     MaxDP     DIISErr   Damp  Time(sec)
-------------------------------------------------------------------------------------------
               ***  Starting incremental Fock matrix formation  ***
    1    -3074.2150462475983659     0.00e+00  9.58e-03  9.32e-02  1.59e-01  0.700   0.5
    2    -3074.2541230280503441    -3.91e-02  8.01e-03  6.29e-02  7.80e-02  0.700   0.5
                               ***Turning on AO-DIIS***
    3    -3074.2720919004959796    -1.80e-02  4.36e-03  3.08e-02  3.80e-02  0.700   0.4
    4    -3074.2823425397509709    -1.03e-02  7.46e-03  5.66e-02  1.88e-02  0.000   0.4
    5    -3074.3037383610108009    -2.14e-02  1.28e-03  9.67e-03  7.54e-03  0.000   0.2
                              *** Initializing SOSCF ***
---------------------------------------S-O-S-C-F--------------------------------------
Iteration    Energy (Eh)           Delta-E    RMSDP     MaxDP     MaxGrad    Time(sec)
--------------------------------------------------------------------------------------
    6    -3074.3039583513609614    -2.20e-04  3.32e-04  2.37e-03  1.45e-03     0.5
               *** Restarting incremental Fock matrix formation ***
    7    -3074.3039718075806377    -1.35e-05  2.58e-04  1.31e-03  3.46e-04     0.3
    8    -3074.3039728093649501    -1.00e-06  8.95e-05  9.58e-04  2.37e-04     0.2
    9    -3074.3039736046362123    -7.95e-07  3.20e-05  2.29e-04  7.50e-05     0.2
   10    -3074.3039736426353556    -3.80e-08  1.08e-05  9.37e-05  4.37e-05     0.3
   11    -3074.3039736570053719    -1.44e-08  4.67e-06  3.80e-05  1.52e-05     0.5
   12    -3074.3039736576415635    -6.36e-10  2.11e-06  1.02e-05  1.19e-05     0.5
                 **** Energy Check signals convergence ****

               *****************************************************
               *                     SUCCESS                       *
               *           SCF CONVERGED AFTER  12 CYCLES          *
               *****************************************************

             **** ENERGY FILE WAS UPDATED (reactant_optfreq.en.tmp) ****

----------------
TOTAL SCF ENERGY
----------------

Total Energy       :      -3074.30397365980480 Eh          -83656.06412 eV

Components:
Nuclear Repulsion  :        171.85625008490990 Eh            4676.44631 eV
Electronic Energy  :      -3246.16022374471459 Eh          -88332.51043 eV
One Electron Energy:      -4627.69739855298667 Eh         -125926.04817 eV
Two Electron Energy:       1381.53717480827208 Eh           37593.53775 eV

Virial components:
Potential Energy   :      -6144.06170111408301 Eh         -167188.41858 eV
Kinetic Energy     :       3069.75772745427821 Eh           83532.35447 eV
Virial Ratio       :          2.00148097882933

DFT components:
N(Alpha)           :       30.999997433314 electrons
N(Beta)            :       30.999997433314 electrons
N(Total)           :       61.999994866629 electrons
E(X)               :     -123.610313621697 Eh       
E(C)               :       -2.674330745919 Eh       
E(XC)              :     -126.284644367616 Eh       

---------------
SCF CONVERGENCE
---------------

  Last Energy change         ...    6.3619e-10  Tolerance :   1.0000e-08
  Last MAX-Density change    ...    1.0213e-05  Tolerance :   1.0000e-07
  Last RMS-Density change    ...    2.1078e-06  Tolerance :   5.0000e-09
  Last DIIS Error            ...    1.4529e-03  Tolerance :   5.0000e-07
  Last Orbital Gradient      ...    1.1866e-05  Tolerance :   1.0000e-05
  Last Orbital Rotation      ...    1.1582e-05  Tolerance :   1.0000e-05


----------------
ORBITAL ENERGIES
----------------

  NO   OCC          E(Eh)            E(eV) 
   0   2.0000    -481.935223    -13114.1241 
   1   2.0000    -101.065987     -2750.1453 
   2   2.0000     -62.008125     -1687.3269 
   3   2.0000     -55.786844     -1518.0372 
   4   2.0000     -55.786797     -1518.0359 
   5   2.0000     -55.786797     -1518.0359 
   6   2.0000      -9.928577      -270.1703 
   7   2.0000      -9.223076      -250.9726 
   8   2.0000      -8.339737      -226.9358 
   9   2.0000      -6.968828      -189.6315 
  10   2.0000      -6.959208      -189.3697 
  11   2.0000      -6.959208      -189.3697 
  12   2.0000      -6.138404      -167.0345 
  13   2.0000      -6.138020      -167.0240 
  14   2.0000      -6.138020      -167.0240 
  15   2.0000      -2.238197       -60.9044 
  16   2.0000      -2.238121       -60.9024 
  17   2.0000      -2.238121       -60.9024 
  18   2.0000      -2.237798       -60.8936 
  19   2.0000      -2.237798       -60.8936 
  20   2.0000      -0.676417       -18.4062 
  21   2.0000      -0.491274       -13.3682 
  22   2.0000      -0.433146       -11.7865 
  23   2.0000      -0.265489        -7.2243 
  24   2.0000      -0.265297        -7.2191 
  25   2.0000      -0.246950        -6.7199 
  26   2.0000      -0.134217        -3.6522 
  27   2.0000      -0.134164        -3.6508 
  28   2.0000      -0.015345        -0.4176 
  29   2.0000      -0.015051        -0.4096 
  30   2.0000      -0.015048        -0.4095 
  31   0.0000       0.164181         4.4676 
  32   0.0000       0.238524         6.4906 
  33   0.0000       0.314371         8.5545 
  34   0.0000       0.314722         8.5640 
  35   0.0000       0.341723         9.2988 
  36   0.0000       0.341778         9.3003 
  37   0.0000       0.377254        10.2656 
  38   0.0000       0.421089        11.4584 
  39   0.0000       0.473343        12.8803 
  40   0.0000       0.477800        13.0016 
  41   0.0000       0.477805        13.0017 
*Only the first 10 virtual orbitals were printed.

                    ********************************
                    * MULLIKEN POPULATION ANALYSIS *
                    ********************************

-----------------------
MULLIKEN ATOMIC CHARGES
-----------------------
   0 C :   -0.319266
   1 H :    0.179373
   2 H :    0.179383
   3 H :    0.179294
   4 Cl:   -0.302895
   5 Br:   -0.915888
Sum of atomic charges:   -1.0000000

--------------------------------
MULLIKEN REDUCED ORBITAL CHARGES
--------------------------------
  0 C s       :     3.291407  s :     3.291407
      pz      :     0.723291  p :     2.995359
      px      :     1.136018
      py      :     1.136050
      dz2     :     0.012464  d :     0.032500
      dxz     :     0.005723
      dyz     :     0.005724
      dx2y2   :     0.004294
      dxy     :     0.004295

  1 H s       :     0.801601  s :     0.801601
      pz      :     0.004771  p :     0.019026
      px      :     0.003580
      py      :     0.010675

  2 H s       :     0.801581  s :     0.801581
      pz      :     0.004773  p :     0.019036
      px      :     0.008903
      py      :     0.005360

  3 H s       :     0.801713  s :     0.801713
      pz      :     0.004762  p :     0.018993
      px      :     0.008889
      py      :     0.005342

  4 Cls       :     5.930856  s :     5.930856
      pz      :     3.354806  p :    11.321604
      px      :     3.983400
      py      :     3.983398
      dz2     :     0.020218  d :     0.050434
      dxz     :     0.014927
      dyz     :     0.014923
      dx2y2   :     0.000183
      dxy     :     0.000183

  5 Brs       :     7.982144  s :     7.982144
      pz      :     5.942220  p :    17.932207
      px      :     5.994994
      py      :     5.994993
      dz2     :     2.000840  d :    10.001538
      dxz     :     2.000345
      dyz     :     2.000345
      dx2y2   :     2.000004
      dxy     :     2.000004



                     *******************************
                     * LOEWDIN POPULATION ANALYSIS *
                     *******************************

----------------------
LOEWDIN ATOMIC CHARGES
----------------------
   0 C :   -0.497035
   1 H :    0.158230
   2 H :    0.158191
   3 H :    0.158365
   4 Cl:   -0.111092
   5 Br:   -0.866658

-------------------------------
LOEWDIN REDUCED ORBITAL CHARGES
-------------------------------
  0 C s       :     3.060709  s :     3.060709
      pz      :     0.968747  p :     3.359813
      px      :     1.195518
      py      :     1.195548
      dz2     :     0.028817  d :     0.076513
      dxz     :     0.013304
      dyz     :     0.013309
      dx2y2   :     0.010541
      dxy     :     0.010543

  1 H s       :     0.795769  s :     0.795769
      pz      :     0.009803  p :     0.046001
      px      :     0.008321
      py      :     0.027878

  2 H s       :     0.795781  s :     0.795781
      pz      :     0.009810  p :     0.046028
      px      :     0.022994
      py      :     0.013224

  3 H s       :     0.795734  s :     0.795734
      pz      :     0.009777  p :     0.045902
      px      :     0.022951
      py      :     0.013173

  4 Cls       :     5.700155  s :     5.700155
      pz      :     3.383551  p :    11.302315
      px      :     3.959384
      py      :     3.959380
      dz2     :     0.052721  d :     0.108622
      dxz     :     0.027706
      dyz     :     0.027698
      dx2y2   :     0.000249
      dxy     :     0.000248

  5 Brs       :     7.963723  s :     7.963723
      pz      :     5.914508  p :    17.901132
      px      :     5.993313
      py      :     5.993311
      dz2     :     2.000861  d :    10.001802
      dxz     :     2.000464
      dyz     :     2.000463
      dx2y2   :     2.000007
      dxy     :     2.000007



                      *****************************
                      * MAYER POPULATION ANALYSIS *
                      *****************************

  NA   - Mulliken gross atomic population
  ZA   - Total nuclear charge
  QA   - Mulliken gross atomic charge
  VA   - Mayer's total valence
  BVA  - Mayer's bonded valence
  FA   - Mayer's free valence

  ATOM       NA         ZA         QA         VA         BVA        FA
  0 C      6.3193     6.0000    -0.3193     3.8793     3.8793     0.0000
  1 H      0.8206     1.0000     0.1794     0.9498     0.9498     0.0000
  2 H      0.8206     1.0000     0.1794     0.9498     0.9498     0.0000
  3 H      0.8207     1.0000     0.1793     0.9499     0.9499     0.0000
  4 Cl    17.3029    17.0000    -0.3029     0.9207     0.9207    -0.0000
  5 Br    35.9159    35.0000    -0.9159     0.1510     0.1510     0.0000

  Mayer bond orders larger than 0.100000
B(  0-C ,  1-H ) :   0.9546 B(  0-C ,  2-H ) :   0.9546 B(  0-C ,  3-H ) :   0.9546 
B(  0-C ,  4-Cl) :   0.8839 B(  0-C ,  5-Br) :   0.1318 

-------
TIMINGS
-------

Total SCF time: 0 days 0 hours 0 min 5 sec 

Total time                  ....       5.500 sec
Sum of individual times     ....       4.980 sec  ( 90.5%)

SCF preparation             ....       0.505 sec  (  9.2%)
Fock matrix formation       ....       3.348 sec  ( 60.9%)
  Startup                   ....       0.034 sec  (  1.0% of F)
  Split-RI-J                ....       0.765 sec  ( 22.8% of F)
  XC integration            ....       2.398 sec  ( 71.6% of F)
    XC Preparation          ....       0.000 sec  (  0.0% of XC)
    Basis function eval.    ....       0.178 sec  (  7.4% of XC)
    Density eval.           ....       0.637 sec  ( 26.6% of XC)
    XC-Functional eval.     ....       0.435 sec  ( 18.2% of XC)
    XC-Potential eval.      ....       0.422 sec  ( 17.6% of XC)
Diagonalization             ....       0.000 sec  (  0.0%)
Density matrix formation    ....       0.148 sec  (  2.7%)
Total Energy calculation    ....       0.104 sec  (  1.9%)
Population analysis         ....       0.069 sec  (  1.3%)
Orbital Transformation      ....       0.087 sec  (  1.6%)
Orbital Orthonormalization  ....       0.000 sec  (  0.0%)
DIIS solution               ....       0.230 sec  (  4.2%)
SOSCF solution              ....       0.490 sec  (  8.9%)
Finished LeanSCF after   5.5 sec

Maximum memory used throughout the entire LEANSCF-calculation: 6.6 MB


           ************************************************************
           *        Program running with 8 parallel MPI-processes     *
           *              working on a common directory               *
           ************************************************************

------------------------------------------------------------------------------
                         ORCA PROPERTY INTEGRAL CALCULATIONS
------------------------------------------------------------------------------

GBWName                                   ... reactant_optfreq.gbw
Number of atoms                           ...      6
Number of basis functions                 ...     97
Max core memory                           ...   4096 MB

Dipole integrals                          ... YES
Quadrupole integrals                      ...  NO
Linear momentum integrals                 ...  NO
Angular momentum integrals                ...  NO
Higher moments length integrals           ...  NO
Higher moments velocity integrals         ...  NO
Kinetic energy integrals                  ...  NO
GIAO right hand sides                     ...  NO
GIAO dipole derivative integrals          ...  NO
SOC integrals                             ...  NO
EPR diamagnetic integrals (GIAO)          ...  NO
EPR gauge integrals                       ...  NO
Field gradient integrals                  ...  NO (   0 nuclei)
Spin-dipole/Fermi contact integrals       ...  NO (   0 nuclei)
Contact density integrals                 ...  NO (   0 nuclei)
Nucleus-orbit integrals                   ...  NO (   0 nuclei)
Geometric perturbations                   ...  NO (   6 nuclei)

Choice of electric origin   ... Center of mass
Position of electric origin ... (  0.0000, -0.0000, -1.8957) 
Choice of magnetic origin   ... GIAO
Position of magnetic origin ... (  0.0000,  0.0000,  0.0000) 

Calculating integrals                     ... Electric Dipole (Length)     done (  0.0 sec)

Property integrals calculated in   0.0 sec

Maximum memory used throughout the entire PROPINT-calculation: 7.1 MB


-------------------------------------------------------------------------------
                          DFT DISPERSION CORRECTION                            
                                                                               
                                DFTD4 V3.4.0                                   
-------------------------------------------------------------------------------
The R2SCAN3C composite method is recognized
Using three-body term ABC
Active option DFTDOPT                   ...         5   

-------------------------   ----------------
Dispersion correction           -0.001100975
-------------------------   ----------------

------------------   -----------------
gCP correction             0.005747194
------------------   -----------------

-------------------------   --------------------
FINAL SINGLE POINT ENERGY     -3074.299327441149
-------------------------   --------------------



           ************************************************************
           *        Program running with 8 parallel MPI-processes     *
           *              working on a common directory               *
           ************************************************************
------------------------------------------------------------------------------
                         ORCA SCF GRADIENT CALCULATION
------------------------------------------------------------------------------

Nuc. rep. gradient        (SHARK) ... done (  0.0 sec)
HCore & Overlap gradient  (SHARK) ... done (  0.0 sec)
Split-RIJ-J gradient      (SHARK) ... done (  0.9 sec)
XC gradient                       ... done (  0.3 sec)
Dispersion correction             ... done (  0.1 sec)

-------------------
DISPERSION GRADIENT
-------------------

   1   C   :   -0.000000045   -0.000000015    0.000010737
   2   H   :    0.000000003   -0.000001100    0.000005946
   3   H   :   -0.000000942    0.000000546    0.000005944
   4   H   :    0.000000985    0.000000568    0.000005957
   5   Cl  :   -0.000000001   -0.000000001    0.000058715
   6   Br  :   -0.000000000    0.000000001   -0.000087299

Difference to translation invariance:
           :   -0.0000000000    0.0000000000    0.0000000000

Difference to rotation invariance:
           :    0.0000000000    0.0000000000   -0.0000000000

Norm of the Dispersion gradient    ...    0.0001062718
RMS gradient                       ...    0.0000250485
MAX gradient                       ...    0.0000872987
gCP correction                   ... done

------------------
CARTESIAN GRADIENT
------------------

   1   C   :    0.000681529    0.000201897    0.017519209
   2   H   :   -0.000032184   -0.001461000    0.003028083
   3   H   :   -0.001423028    0.000801059    0.003072834
   4   H   :    0.000799787    0.000478391    0.002870821
   5   Cl  :   -0.000024420   -0.000007026   -0.033571378
   6   Br  :   -0.000001686   -0.000013322    0.007080431

Difference to translation invariance:
           :    0.0000000000   -0.0000000000    0.0000000001

Difference to rotation invariance:
           :   -0.0000565370   -0.0000000429   -0.0000000250

Norm of the Cartesian gradient     ...    0.0389502592
RMS gradient                       ...    0.0091806641
MAX gradient                       ...    0.0335713783

-------
TIMINGS
-------

Total SCF gradient time     ....        1.306 sec

Densities                   ....       0.000 sec  (  0.0%)
One electron gradient       ....       0.011 sec  (  0.8%)
RI-J Coulomb gradient       ....       0.887 sec  ( 67.9%)
XC gradient                 ....       0.314 sec  ( 24.1%)

Maximum memory used throughout the entire SCFGRAD-calculation: 26.8 MB
------------------------------------------------------------------------------
                         ORCA GEOMETRY RELAXATION STEP
------------------------------------------------------------------------------

Reading the OPT-File                    .... done
Getting information on internals        .... done
Copying old internal coords+grads       .... done
Making the new internal coordinates     .... (2022 redundants) done
Validating the new internal coordinates .... (2022 redundants) done
Calculating the B-matrix                .... done
Calculating the G,G- and P matrices     .... done
Transforming gradient to internals      .... done
Projecting the internal gradient        .... done
Number of atoms                         ....   6
Number of internal coordinates          ....  17
Current Energy                          .... -3074.299327441 Eh
Current gradient norm                   ....     0.038950259 Eh/bohr
Maximum allowed component of the step   ....  0.300
Current trust radius                    ....  0.300
Evaluating the initial hessian          ....  (Almloef) done
Projecting the Hessian                  .... done
Forming the augmented Hessian           .... done
Diagonalizing the augmented Hessian     .... done
Last element of RFO vector              ....  0.963914252
Lowest eigenvalues of augmented Hessian:
 -0.004584863  0.010937023  0.043428370  0.043471020  0.196176913
Length of the computed step             ....  0.276179040
The final length of the internal step   ....  0.276179040
Converting the step to Cartesian space:
 Initial RMS(Int)=    0.0669832561
Transforming coordinates:
 Iter   0:  RMS(Cart)=    0.0419115642 RMS(Int)=    0.0670467107
done
Storing new coordinates                 .... done

                                .--------------------.
          ----------------------|Geometry convergence|-------------------------
          Item                value                   Tolerance       Converged
          ---------------------------------------------------------------------
          RMS gradient        0.0084399515            0.0001000000      NO
          MAX gradient        0.0335713708            0.0003000000      NO
          RMS step            0.0669832561            0.0020000000      NO
          MAX step            0.1505306166            0.0040000000      NO
          -------------------------------------------------------------------------
          ........................................................
          Max(Bonds)      0.0797      Max(Angles)    0.62
          Max(Dihed)        0.00      Max(Improp)    0.00
          ---------------------------------------------------------------------

The optimization has not yet converged - more geometry cycles are needed


    ---------------------------------------------------------------------------
                         Redundant Internal Coordinates
                            (Angstroem and degrees)

        Definition                    Value    dE/dq     Step     New-Value
    ----------------------------------------------------------------------------
     1. B(H   1,C   0)                1.0831 -0.002321  0.0032    1.0863   
     2. B(H   2,C   0)                1.0828 -0.002497  0.0035    1.0863   
     3. B(H   3,C   0)                1.0839 -0.001767  0.0024    1.0864   
     4. B(Cl  4,C   0)                1.7800 -0.033571  0.0524    1.8324   
     5. B(Br  5,H   1)                2.9075 -0.000634  0.0630    2.9706   
     6. B(Br  5,H   3)                2.9076 -0.000649  0.0632    2.9708   
     7. B(Br  5,H   2)                2.9075 -0.000649  0.0632    2.9707   
     8. B(Br  5,C   0)                3.0630 -0.005273  0.0797    3.1426   
     9. A(H   1,C   0,H   3)          110.44  0.002020   -0.58    109.86   
    10. A(H   2,C   0,H   3)          110.45  0.002053   -0.58    109.87   
    11. A(H   1,C   0,Cl  4)          108.47 -0.002106    0.60    109.07   
    12. A(H   2,C   0,Cl  4)          108.48 -0.002093    0.60    109.08   
    13. A(H   3,C   0,Cl  4)          108.44 -0.002216    0.62    109.06   
    14. A(H   1,C   0,Br  5)           71.54  0.002146   -0.61     70.92   
    15. A(H   2,C   0,Br  5)           71.54  0.002142   -0.61     70.93   
    16. A(H   3,C   0,Br  5)           71.54  0.002126   -0.60     70.94   
    17. A(H   1,C   0,H   2)          110.49  0.002097   -0.59    109.90   
    ----------------------------------------------------------------------------

Geometry step timings:
Preparation and reading OPT file:      0.000 s ( 0.064 %)
Internal coordinates            :      0.000 s ( 0.069 %)
B/P matrices and projection     :      0.000 s ( 0.249 %)
Hessian update/contruction      :      0.053 s (94.094 %)
Making the step                 :      0.000 s ( 0.364 %)
Converting the step to Cartesian:      0.000 s ( 0.115 %)
Storing new data                :      0.000 s ( 0.627 %)
Checking convergence            :      0.000 s ( 0.165 %)
Final printing                  :      0.002 s ( 4.242 %)
Total time                      :      0.056 s

Time for energy+gradient        :     11.404 s
Time for complete geometry iter :     12.458 s

         *************************************************************
         *                GEOMETRY OPTIMIZATION CYCLE   2            *
         *************************************************************
---------------------------------
CARTESIAN COORDINATES (ANGSTROEM)
---------------------------------
  C      0.000076   -0.000039    0.408210
  H     -0.000220    1.026601    0.053245
  H      0.889065   -0.513614    0.053299
  H     -0.889146   -0.513405    0.053373
  Cl    -0.000083    0.000050    2.240580
  Br     0.000028    0.000135   -2.734354

----------------------------
CARTESIAN COORDINATES (A.U.)
----------------------------
  NO LB      ZA    FRAG     MASS         X           Y           Z
   0 C     6.0000    0    12.011    0.000143   -0.000074    0.771405
   1 H     1.0000    0     1.008   -0.000415    1.939995    0.100618
   2 H     1.0000    0     1.008    1.680089   -0.970590    0.100721
   3 H     1.0000    0     1.008   -1.680242   -0.970195    0.100860
   4 Cl   17.0000    0    35.453   -0.000157    0.000095    4.234083
   5 Br   35.0000    0    79.900    0.000053    0.000256   -5.167181

--------------------------------
INTERNAL COORDINATES (ANGSTROEM)
--------------------------------
 C      0   0   0     0.000000000000     0.00000000     0.00000000
 H      1   0   0     1.086273988173     0.00000000     0.00000000
 H      1   2   0     1.086288409858   109.89422452     0.00000000
 H      1   2   3     1.086355735916   109.85608363   239.01455666
 Cl     1   2   3     1.832370467762   109.07024420   119.52727171
 Br     2   1   3     2.970579063874    88.85802949    60.47890438

---------------------------
INTERNAL COORDINATES (A.U.)
---------------------------
 C      0   0   0     0.000000000000     0.00000000     0.00000000
 H      1   0   0     2.052760344049     0.00000000     0.00000000
 H      1   2   0     2.052787597084   109.89422452     0.00000000
 H      1   2   3     2.052914824896   109.85608363   239.01455666
 Cl     1   2   3     3.462678359956   109.07024420   119.52727171
 Br     2   1   3     5.613580889883    88.85802949    60.47890438



           ************************************************************
           *        Program running with 8 parallel MPI-processes     *
           *              working on a common directory               *
           ************************************************************
------------------------------------------------------------------------------
                   ___                                                        
                  /   \      - P O W E R E D   B Y -                         
                 /     \                                                     
                 |  |  |   _    _      __       _____    __    __             
                 |  |  |  | |  | |    /  \     |  _  \  |  |  /  |          
                  \  \/   | |  | |   /    \    | | | |  |  | /  /          
                 / \  \   | |__| |  /  /\  \   | |_| |  |  |/  /          
                |  |  |   |  __  | /  /__\  \  |    /   |      \           
                |  |  |   | |  | | |   __   |  |    \   |  |\   \          
                \     /   | |  | | |  |  |  |  | |\  \  |  | \   \       
                 \___/    |_|  |_| |__|  |__|  |_| \__\ |__|  \__/        
                                                                              
                      - O R C A' S   B I G   F R I E N D -                    
                                      &                                       
                       - I N T E G R A L  F E E D E R -                       
                                                                              
 v1 FN, 2020, v2 2021, v3 2022-2024                                           
------------------------------------------------------------------------------


----------------------
SHARK INTEGRAL PACKAGE
----------------------

Number of atoms                             ...      6
Number of basis functions                   ...     97
Number of shells                            ...     43
Maximum angular momentum                    ...      2
Integral batch strategy                     ... SHARK/LIBINT Hybrid
RI-J (if used) integral strategy            ... SPLIT-RIJ (Revised 2003 algorithm where possible)
Printlevel                                  ...      1
Contraction scheme used                     ... SEGMENTED contraction
Prescreening option                         ... SCHWARTZ
   Thresh                                   ... 2.500e-11
   Tcut                                     ... 2.500e-12
   Tpresel                                  ... 2.500e-12 
Coulomb Range Separation                    ... NOT USED
Exchange Range Separation                   ... NOT USED
Multipole approximations                    ... NOT USED
Finite Nucleus Model                        ... NOT USED
CABS basis                                  ... NOT available
Auxiliary Coulomb fitting basis             ... AVAILABLE
   # of basis functions in Aux-J            ...    163
   # of shells in Aux-J                     ...     61
   Maximum angular momentum in Aux-J        ...      4
Auxiliary J/K fitting basis                 ... NOT available
Auxiliary Correlation fitting basis         ... NOT available
Auxiliary 'external' fitting basis          ... NOT available

Checking pre-screening integrals            ... done (  0.0 sec) Dimension = 43
   => SHARK Basis and OBASIS are compatible. Storing Pre-screening
Shell pair information
Shell pair cut-off parameter TPreSel        ...   2.5e-12
Total number of shell pairs                 ...       946
Shell pairs after pre-screening             ...       846
Total number of primitive shell pairs       ...      4697
Primitive shell pairs kept                  ...      3093
          la=0 lb=0:    223 shell pairs
          la=1 lb=0:    295 shell pairs
          la=1 lb=1:    110 shell pairs
          la=2 lb=0:    116 shell pairs
          la=2 lb=1:     83 shell pairs
          la=2 lb=2:     19 shell pairs

Checking whether 4 symmetric matrices of dimension 97 fit in memory
:Max Core in MB      =   4096.00
 MB in use           =      4.53
 MB left             =   4091.47
 MB needed           =      0.15
 Data fit in memory  = YES
Calculating RI/J V-Matrix + Cholesky decomp.... done (  0.0 sec)
Calculating Nuclear repulsion               ... done (  0.0 sec) ENN=    167.642594056906 Eh

Diagonalization of the overlap matrix:
Smallest eigenvalue                        ... 6.032e-03
Time for diagonalization                   ...    0.001 sec
Threshold for overlap eigenvalues          ... 1.000e-07
Number of eigenvalues below threshold      ... 0
Time for construction of square roots      ...    0.001 sec
Total time needed                          ...    0.003 sec

-------------------
DFT GRID GENERATION
-------------------

General Integration Accuracy     IntAcc      ... 4.388
Radial Grid Type                 RadialGrid  ... OptM3 with GC (2021)
Angular Grid (max. ang.)         AngularGrid ... 4 (Lebedev-302)
Angular grid pruning method      GridPruning ... 4 (adaptive)
Weight generation scheme         WeightScheme... mBecke (2022)
Basis function cutoff            BFCut       ... 1.0000e-11
Integration weight cutoff        WCut        ... 1.0000e-14
Partially contracted basis set               ... off
Rotationally invariant grid construction     ... off
Angular grids for H and He will be reduced by one unit
Core-polarized basis detected: some atoms will have their core
                               angular grid increased.

Total number of grid points                  ...    34601
Total number of batches                      ...      545
Average number of points per batch           ...       63
Average number of grid points per atom       ...     5767
Grids setup in   0.3 sec
Initializing property integral containers    ... done (  0.0 sec)

SHARK setup successfully completed in   0.5 seconds

Maximum memory used throughout the entire STARTUP-calculation: 13.4 MB


           ************************************************************
           *        Program running with 8 parallel MPI-processes     *
           *              working on a common directory               *
           ************************************************************
Occupation numbers will be reassigned to an Aufbau configuration
             **** ENERGY FILE WAS UPDATED (reactant_optfreq.en.tmp) ****
Finished Guess after   0.2 sec
Maximum memory used throughout the entire GUESS-calculation: 7.0 MB


           ************************************************************
           *        Program running with 8 parallel MPI-processes     *
           *              working on a common directory               *
           ************************************************************
----------------------------------------D-I-I-S--------------------------------------------
Iteration    Energy (Eh)           Delta-E    RMSDP     MaxDP     DIISErr   Damp  Time(sec)
-------------------------------------------------------------------------------------------
               ***  Starting incremental Fock matrix formation  ***
    1    -3074.3057946528056164     0.00e+00  3.74e-04  2.17e-03  1.10e-02  0.700   0.6
    2    -3074.3059740885487372    -1.79e-04  3.58e-04  1.86e-03  7.97e-03  0.700   0.2
                               ***Turning on AO-DIIS***
    3    -3074.3061027733683659    -1.29e-04  2.99e-04  1.49e-03  5.49e-03  0.700   0.3
    4    -3074.3061920018417368    -8.92e-05  7.59e-04  3.79e-03  4.08e-03  0.000   0.3
                              *** Initializing SOSCF ***
---------------------------------------S-O-S-C-F--------------------------------------
Iteration    Energy (Eh)           Delta-E    RMSDP     MaxDP     MaxGrad    Time(sec)
--------------------------------------------------------------------------------------
    5    -3074.3064014331503131    -2.09e-04  5.50e-05  3.21e-04  6.10e-04     0.3
               *** Restarting incremental Fock matrix formation ***
    6    -3074.3064022364301309    -8.03e-07  4.86e-05  3.78e-04  8.12e-05     0.2
    7    -3074.3064021583340946     7.81e-08  1.77e-05  1.07e-04  1.66e-04     0.2
    8    -3074.3064023387323687    -1.80e-07  4.83e-06  3.43e-05  8.50e-06     0.3
    9    -3074.3064023381871266     5.45e-10  1.94e-06  1.78e-05  5.43e-06     0.4
                 **** Energy Check signals convergence ****

               *****************************************************
               *                     SUCCESS                       *
               *           SCF CONVERGED AFTER   9 CYCLES          *
               *****************************************************

             **** ENERGY FILE WAS UPDATED (reactant_optfreq.en.tmp) ****

----------------
TOTAL SCF ENERGY
----------------

Total Energy       :      -3074.30640234072325 Eh          -83656.13020 eV

Components:
Nuclear Repulsion  :        167.64259405690626 Eh            4561.78690 eV
Electronic Energy  :      -3241.94899639762934 Eh          -88217.91710 eV
One Electron Energy:      -4619.17407177642508 Eh         -125694.11666 eV
Two Electron Energy:       1377.22507537879596 Eh           37476.19955 eV

Virial components:
Potential Energy   :      -6143.95673241620807 Eh         -167185.56224 eV
Kinetic Energy     :       3069.65033007548482 Eh           83529.43204 eV
Virial Ratio       :          2.00151680868000

DFT components:
N(Alpha)           :       30.999995668815 electrons
N(Beta)            :       30.999995668815 electrons
N(Total)           :       61.999991337630 electrons
E(X)               :     -123.586180969986 Eh       
E(C)               :       -2.671568492122 Eh       
E(XC)              :     -126.257749462108 Eh       

---------------
SCF CONVERGENCE
---------------

  Last Energy change         ...   -5.4524e-10  Tolerance :   1.0000e-08
  Last MAX-Density change    ...    1.7782e-05  Tolerance :   1.0000e-07
  Last RMS-Density change    ...    1.9389e-06  Tolerance :   5.0000e-09
  Last DIIS Error            ...    6.1030e-04  Tolerance :   5.0000e-07
  Last Orbital Gradient      ...    5.4292e-06  Tolerance :   1.0000e-05
  Last Orbital Rotation      ...    1.2249e-05  Tolerance :   1.0000e-05


Total SCF time: 0 days 0 hours 0 min 3 sec 
Finished LeanSCF after   4.0 sec

Maximum memory used throughout the entire LEANSCF-calculation: 6.5 MB


           ************************************************************
           *        Program running with 8 parallel MPI-processes     *
           *              working on a common directory               *
           ************************************************************

------------------------------------------------------------------------------
                         ORCA PROPERTY INTEGRAL CALCULATIONS
------------------------------------------------------------------------------

GBWName                                   ... reactant_optfreq.gbw
Number of atoms                           ...      6
Number of basis functions                 ...     97
Max core memory                           ...   4096 MB

Dipole integrals                          ... YES
Quadrupole integrals                      ...  NO
Linear momentum integrals                 ...  NO
Angular momentum integrals                ...  NO
Higher moments length integrals           ...  NO
Higher moments velocity integrals         ...  NO
Kinetic energy integrals                  ...  NO
GIAO right hand sides                     ...  NO
GIAO dipole derivative integrals          ...  NO
SOC integrals                             ...  NO
EPR diamagnetic integrals (GIAO)          ...  NO
EPR gauge integrals                       ...  NO
Field gradient integrals                  ...  NO (   0 nuclei)
Spin-dipole/Fermi contact integrals       ...  NO (   0 nuclei)
Contact density integrals                 ...  NO (   0 nuclei)
Nucleus-orbit integrals                   ...  NO (   0 nuclei)
Geometric perturbations                   ...  NO (   6 nuclei)

Choice of electric origin   ... Center of mass
Position of electric origin ... ( -0.0000,  0.0002, -1.9417) 
Choice of magnetic origin   ... GIAO
Position of magnetic origin ... (  0.0000,  0.0000,  0.0000) 

Calculating integrals                     ... Electric Dipole (Length)     done (  0.0 sec)

Property integrals calculated in   0.0 sec

Maximum memory used throughout the entire PROPINT-calculation: 7.1 MB


-------------------------------------------------------------------------------
                          DFT DISPERSION CORRECTION                            
                                                                               
                                DFTD4 V3.4.0                                   
-------------------------------------------------------------------------------
-------------------------   ----------------
Dispersion correction           -0.001082516
-------------------------   ----------------

------------------   -----------------
gCP correction             0.005171257
------------------   -----------------

-------------------------   --------------------
FINAL SINGLE POINT ENERGY     -3074.302313599438
-------------------------   --------------------



           ************************************************************
           *        Program running with 8 parallel MPI-processes     *
           *              working on a common directory               *
           ************************************************************
------------------------------------------------------------------------------
                         ORCA SCF GRADIENT CALCULATION
------------------------------------------------------------------------------

Nuc. rep. gradient        (SHARK) ... done (  0.0 sec)
HCore & Overlap gradient  (SHARK) ... done (  0.0 sec)
Split-RIJ-J gradient      (SHARK) ... done (  1.2 sec)
XC gradient                       ... done (  0.2 sec)
Dispersion correction             ... done (  0.0 sec)

-------------------
DISPERSION GRADIENT
-------------------

   1   C   :   -0.000000006   -0.000000006    0.000012050
   2   H   :    0.000000002   -0.000000964    0.000006538
   3   H   :   -0.000000833    0.000000483    0.000006539
   4   H   :    0.000000837    0.000000483    0.000006543
   5   Cl  :   -0.000000002   -0.000000000    0.000056203
   6   Br  :    0.000000002    0.000000005   -0.000087873

Difference to translation invariance:
           :   -0.0000000000    0.0000000000   -0.0000000000

Difference to rotation invariance:
           :   -0.0000000000   -0.0000000000   -0.0000000000

Norm of the Dispersion gradient    ...    0.0001056259
RMS gradient                       ...    0.0000248963
MAX gradient                       ...    0.0000878733
gCP correction                   ... done

------------------
CARTESIAN GRADIENT
------------------

   1   C   :    0.000089386    0.000019235    0.010062501
   2   H   :   -0.000034724   -0.000714751   -0.000890700
   3   H   :   -0.000642926    0.000343057   -0.000908797
   4   H   :    0.000597398    0.000356871   -0.000918558
   5   Cl  :   -0.000009354   -0.000000291   -0.010682634
   6   Br  :    0.000000220   -0.000004122    0.003338189

Difference to translation invariance:
           :    0.0000000000   -0.0000000000    0.0000000008

Difference to rotation invariance:
           :    0.0000108560    0.0000000016   -0.0000000174

Norm of the Cartesian gradient     ...    0.0151827181
RMS gradient                       ...    0.0035786010
MAX gradient                       ...    0.0106826339

-------
TIMINGS
-------

Total SCF gradient time     ....        1.487 sec

Densities                   ....       0.000 sec  (  0.0%)
One electron gradient       ....       0.012 sec  (  0.8%)
RI-J Coulomb gradient       ....       1.177 sec  ( 79.1%)
XC gradient                 ....       0.204 sec  ( 13.7%)

Maximum memory used throughout the entire SCFGRAD-calculation: 26.8 MB
------------------------------------------------------------------------------
                         ORCA GEOMETRY RELAXATION STEP
------------------------------------------------------------------------------

Reading the OPT-File                    .... done
Getting information on internals        .... done
Copying old internal coords+grads       .... done
Making the new internal coordinates     .... (2022 redundants) done
Validating the new internal coordinates .... (2022 redundants) done
Calculating the B-matrix                .... done
Calculating the G,G- and P matrices     .... done
Transforming gradient to internals      .... done
Projecting the internal gradient        .... done
Number of atoms                         ....   6
Number of internal coordinates          ....  17
Current Energy                          .... -3074.302313599 Eh
Current gradient norm                   ....     0.015182718 Eh/bohr
Maximum allowed component of the step   ....  0.300
Current trust radius                    ....  0.300
Updating the Hessian (BFGS)             .... done
Forming the augmented Hessian           .... done
Diagonalizing the augmented Hessian     .... done
Last element of RFO vector              ....  0.981361459
Lowest eigenvalues of augmented Hessian:
 -0.000843734  0.009976353  0.043428350  0.043470979  0.203233373
Length of the computed step             ....  0.195820798
The final length of the internal step   ....  0.195820798
Converting the step to Cartesian space:
 Initial RMS(Int)=    0.0474935195
Transforming coordinates:
 Iter   0:  RMS(Cart)=    0.0253428652 RMS(Int)=    0.0475257721
done
Storing new coordinates                 .... done
The predicted energy change is          ....    -0.000438044
Previously predicted energy change      ....    -0.002467287
Actually observed energy change         ....    -0.002986158
Ratio of predicted to observed change   ....     1.210300572
New trust radius                        ....     0.450000000

                                .--------------------.
          ----------------------|Geometry convergence|-------------------------
          Item                value                   Tolerance       Converged
          ---------------------------------------------------------------------
          Energy change      -0.0029861583            0.0000050000      NO
          RMS gradient        0.0026316178            0.0001000000      NO
          MAX gradient        0.0106826331            0.0003000000      NO
          RMS step            0.0474935195            0.0020000000      NO
          MAX step            0.0983411690            0.0040000000      NO
          -------------------------------------------------------------------------
          ........................................................
          Max(Bonds)      0.0520      Max(Angles)    0.05
          Max(Dihed)        0.00      Max(Improp)    0.00
          ---------------------------------------------------------------------

The optimization has not yet converged - more geometry cycles are needed


    ---------------------------------------------------------------------------
                         Redundant Internal Coordinates
                            (Angstroem and degrees)

[...]
Magnitude (Debye)      :      3.783362223



--------------------
Rotational spectrum 
--------------------
 
Rotational constants in cm-1:             5.216828             0.024886             0.024886 
Rotational constants in MHz :        156396.575582           746.058682           746.058661 

Dipole components along the rotational axes: 
x,y,z [a.u.] :     1.488459    -0.000332     0.000324 
x,y,z [Debye]:     3.783362    -0.000845     0.000824 

 

Dipole moment calculation done in   0.1 sec 

-----------
SCF HESSIAN
-----------

Occupied/Occupied contributions to the Hessian:
   => Occupied/Occupied contributions              ... done (  0.0 sec)
Perturbed density contributions to the Hessian:
   => Perturbed density contributions              ... done (  0.0 sec)
Explicit contributions to the Hessian:
   => Nuclear repulsion Hessian                    ... done (  0.0 sec)
   => HCore and overlap Hessian                    ... done (  0.5 sec)
   => RI-J Hessian                                 ... done (  1.3 sec)
   => XC-Hessian                                   ... done (  2.9 sec)
   => Van der Waals-Hessian                        ... done (  1.0 sec)
   => GCP-Hessian                                  ... done (  0.1 sec)
   => Explicit contributions done
Dipole derivatives                                 ... done (  0.0 sec)
Mass weighting the Hessian           ... done
Calculating normal modes             ... done
Scaling frequencies                  ... done

-----------------------
VIBRATIONAL FREQUENCIES
-----------------------

Scaling factor for frequencies =  1.000000000  (already applied!)

     0:       0.00 cm**-1
     1:       0.00 cm**-1
     2:       0.00 cm**-1
     3:       0.00 cm**-1
     4:       0.00 cm**-1
     5:       0.00 cm**-1
     6:      89.67 cm**-1
     7:      90.51 cm**-1
     8:      92.86 cm**-1
     9:     540.52 cm**-1
    10:     973.41 cm**-1
    11:     973.99 cm**-1
    12:    1298.36 cm**-1
    13:    1451.35 cm**-1
    14:    1451.41 cm**-1
    15:    3095.60 cm**-1
    16:    3229.40 cm**-1
    17:    3230.27 cm**-1


------------
NORMAL MODES
------------

These modes are the Cartesian displacements weighted by the diagonal matrix
M(i,i)=1/sqrt(m[i]) where m[i] is the mass of the displaced atom
Thus, these vectors are normalized but *not* orthogonal

                  0          1          2          3          4          5    
      0       0.000000   0.000000   0.000000   0.000000   0.000000   0.000000
      1       0.000000   0.000000   0.000000   0.000000   0.000000   0.000000
      2       0.000000   0.000000   0.000000   0.000000   0.000000   0.000000
      3       0.000000   0.000000   0.000000   0.000000   0.000000   0.000000
      4       0.000000   0.000000   0.000000   0.000000   0.000000   0.000000
      5       0.000000   0.000000   0.000000   0.000000   0.000000   0.000000
      6       0.000000   0.000000   0.000000   0.000000   0.000000   0.000000
      7       0.000000   0.000000   0.000000   0.000000   0.000000   0.000000
      8       0.000000   0.000000   0.000000   0.000000   0.000000   0.000000
      9       0.000000   0.000000   0.000000   0.000000   0.000000   0.000000
     10       0.000000   0.000000   0.000000   0.000000   0.000000   0.000000
     11       0.000000   0.000000   0.000000   0.000000   0.000000   0.000000
     12       0.000000   0.000000   0.000000   0.000000   0.000000   0.000000
     13       0.000000   0.000000   0.000000   0.000000   0.000000   0.000000
     14       0.000000   0.000000   0.000000   0.000000   0.000000   0.000000
     15       0.000000   0.000000   0.000000   0.000000   0.000000   0.000000
     16       0.000000   0.000000   0.000000   0.000000   0.000000   0.000000
     17       0.000000   0.000000   0.000000   0.000000   0.000000   0.000000
                  6          7          8          9         10         11    
      0       0.398028   0.000467   0.000405   0.000005  -0.107173   0.000194
      1       0.000467  -0.398215   0.000656   0.000331   0.000194   0.107081
      2      -0.000101   0.000310   0.450269   0.702896  -0.000000  -0.000106
      3       0.478502   0.000621   0.000487   0.000004   0.223979  -0.000408
      4       0.000579  -0.492736  -0.003237  -0.091533  -0.000230  -0.128727
      5       0.000242  -0.287182   0.426731   0.366457  -0.001389  -0.768967
      6       0.487710   0.007462  -0.002929  -0.079331   0.152277  -0.041508
      7      -0.007773  -0.480762   0.002740   0.046090   0.041261  -0.200226
      8       0.249177   0.144542   0.426423   0.366367   0.667042   0.383948
      9       0.487723  -0.006377   0.003922   0.079338   0.152415   0.040955
     10       0.008897  -0.480639   0.002757   0.046089  -0.041986  -0.200071
     11      -0.249703   0.143957   0.425913   0.366365  -0.665636   0.386359
     12      -0.106474  -0.000125  -0.000117  -0.000001   0.021101  -0.000038
     13      -0.000125   0.106521  -0.000225  -0.000122  -0.000038  -0.021075
     14      -0.000091   0.000069   0.422281  -0.279223  -0.000000  -0.000008
     15      -0.030932  -0.000036  -0.000028  -0.000000   0.000078  -0.000000
     16      -0.000036   0.030942  -0.000027  -0.000004  -0.000000  -0.000072
     17       0.000059  -0.000094  -0.271197   0.004366  -0.000000   0.000003
                 12         13         14         15         16         17    
      0      -0.000001   0.070244   0.004029   0.000003  -0.000587   0.096876
      1       0.000108   0.004028  -0.070233   0.000225  -0.096885  -0.000588
      2       0.085601  -0.000002   0.000040   0.038615   0.000145  -0.000001
      3       0.000007  -0.754287  -0.043267  -0.000002  -0.000126   0.019875
      4      -0.177062   0.007554  -0.131781   0.553941   0.779797   0.004714
      5      -0.547735   0.015711  -0.273883  -0.154997  -0.232461  -0.001405
      6      -0.153047  -0.111873   0.378502   0.481841  -0.341144  -0.581123
      7       0.087812  -0.414029   0.510793  -0.278289   0.177147   0.346972
      8      -0.547152   0.229418   0.150160  -0.155500   0.114157   0.201199
      9       0.153047  -0.067859  -0.388807  -0.481874   0.348171  -0.576918
     10       0.087803   0.352911   0.554786  -0.278305   0.181340  -0.344778
     11      -0.547162  -0.245094   0.122949  -0.155506   0.116587  -0.199785
     12       0.000000   0.002379   0.000136  -0.000000   0.000002  -0.000402
     13       0.000000   0.000136  -0.002378   0.000000   0.000401   0.000002
     14       0.016704  -0.000000   0.000006  -0.000011   0.000001   0.000000
     15      -0.000000   0.000168   0.000010  -0.000000   0.000000  -0.000026
     16       0.000002   0.000010  -0.000167  -0.000000   0.000026   0.000000
     17       0.000436  -0.000000   0.000001   0.000079  -0.000000  -0.000000


-----------
IR SPECTRUM
-----------

 Mode   freq       eps      Int      T**2         TX        TY        TZ
       cm**-1   L/(mol*cm) km/mol    a.u.
----------------------------------------------------------------------------
  6:     89.67   0.001091    5.51  0.003796  ( 0.061610  0.000072 -0.000053)
  7:     90.51   0.001088    5.50  0.003752  ( 0.000072 -0.061257  0.000212)
  8:     92.86   0.002871   14.51  0.009648  ( 0.000027  0.000059  0.098222)
  9:    540.52   0.055844  282.21  0.032241  (-0.000002  0.000074  0.179557)
 10:    973.41   0.000090    0.45  0.000029  ( 0.005372 -0.000010  0.000002)
 11:    973.99   0.000089    0.45  0.000028  (-0.000010 -0.005328  0.000088)
 12:   1298.36   0.002265   11.44  0.000544  ( 0.000000  0.000023  0.023331)
 13:   1451.35   0.002104   10.63  0.000452  (-0.021235 -0.001223  0.000005)
 14:   1451.41   0.002121   10.72  0.000456  (-0.001218  0.021319 -0.000074)
 15:   3095.60   0.001112    5.62  0.000112  ( 0.000000  0.000115  0.010586)
 16:   3229.40   0.000002    0.01  0.000000  ( 0.000003  0.000412  0.000049)
 17:   3230.27   0.000003    0.01  0.000000  (-0.000501  0.000003  0.000001)

* The epsilon (eps) is given for a Dirac delta lineshape.
** The dipole moment derivative (T) already includes vibrational overlap.

The first frequency considered to be a vibration is 6
The total number of vibrations considered is 12


--------------------------
THERMOCHEMISTRY AT 298.15K
--------------------------

Temperature         ...   298.15 K
Pressure            ...     1.00 atm
Total Mass          ...   130.39 AMU
Quasi RRHO          ...     True
Cut-Off Frequency   ...     1.00 cm^-1

Throughout the following assumptions are being made:
  (1) The electronic state is orbitally nondegenerate
  (2) There are no thermally accessible electronically excited states
  (3) Hindered rotations indicated by low frequency modes are not
      treated as such but are treated as vibrations and this may
      cause some error
  (4) All equations used are the standard statistical mechanics
      equations for an ideal gas
  (5) All vibrations are strictly harmonic

freq.      89.67  E(vib)   ...       0.47 
freq.      90.51  E(vib)   ...       0.47 
freq.      92.86  E(vib)   ...       0.47 
freq.     540.52  E(vib)   ...       0.12 
freq.     973.41  E(vib)   ...       0.03 
freq.     973.99  E(vib)   ...       0.03 
freq.    1298.36  E(vib)   ...       0.01 
freq.    1451.35  E(vib)   ...       0.00 
freq.    1451.41  E(vib)   ...       0.00 
freq.    3095.60  E(vib)   ...       0.00 
freq.    3229.40  E(vib)   ...       0.00 
freq.    3230.27  E(vib)   ...       0.00 

------------
INNER ENERGY
------------

The inner energy is: U= E(el) + E(ZPE) + E(vib) + E(rot) + E(trans)
    E(el)   - is the total energy from the electronic structure calculation
              = E(kin-el) + E(nuc-el) + E(el-el) + E(nuc-nuc)
    E(ZPE)  - the the zero temperature vibrational energy from the frequency calculation
    E(vib)  - the the finite temperature correction to E(ZPE) due to population
              of excited vibrational states
    E(rot)  - is the rotational thermal energy
    E(trans)- is the translational thermal energy

Summary of contributions to the inner energy U:
Electronic energy                ...  -3074.30305945 Eh
Zero point energy                ...      0.03762925 Eh      23.61 kcal/mol
Thermal vibrational correction   ...      0.00255670 Eh       1.60 kcal/mol
Thermal rotational correction    ...      0.00141627 Eh       0.89 kcal/mol
Thermal translational correction ...      0.00141627 Eh       0.89 kcal/mol
-----------------------------------------------------------------------
Total thermal energy                  -3074.26004096 Eh


Summary of corrections to the electronic energy:
(perhaps to be used in another calculation)
Total thermal correction                  0.00538924 Eh       3.38 kcal/mol
Non-thermal (ZPE) correction              0.03762925 Eh      23.61 kcal/mol
-----------------------------------------------------------------------
Total correction                          0.04301849 Eh      26.99 kcal/mol


--------
ENTHALPY
--------

The enthalpy is H = U + kB*T
                kB is Boltzmann's constant
Total thermal energy              ...  -3074.26004096 Eh 
Thermal Enthalpy correction       ...      0.00094421 Eh       0.59 kcal/mol
-----------------------------------------------------------------------
Total Enthalpy                    ...  -3074.25909675 Eh


Note: Rotational entropy computed according to Herzberg 
Infrared and Raman Spectra, Chapter V,1, Van Nostrand Reinhold, 1945 
Point Group:  Cs, Symmetry Number:   1  
Rotational constants in cm-1:     5.216833     0.024886     0.024886 

Vibrational entropy computed according to the QRRHO of S. Grimme
Chem.Eur.J. 2012 18 9955 using a reference frequency of 100.0 cm-1


-------
ENTROPY
-------

The entropy contributions are T*S = T*(S(el)+S(vib)+S(rot)+S(trans))
     S(el)   - electronic entropy
     S(vib)  - vibrational entropy
     S(rot)  - rotational entropy
     S(trans)- translational entropy
The entropies will be listed as multiplied by the temperature to get
units of energy

Electronic entropy                ...      0.00000000 Eh      0.00 kcal/mol
Vibrational entropy               ...      0.00499675 Eh      3.14 kcal/mol
Rotational entropy                ...      0.01221826 Eh      7.67 kcal/mol
Translational entropy             ...      0.01924704 Eh     12.08 kcal/mol
-----------------------------------------------------------------------
Final entropy term                ...      0.03646205 Eh     22.88 kcal/mol

In case the symmetry of your molecule has not been determined correctly
or in case you have a reason to use a different symmetry number we print 
out the resulting rotational entropy values for sn=1,12:

 non-linear molecules -----------------------------------
|  sn= 1 | S(rot)=       0.01221826 Eh      7.67 kcal/mol|
|  sn= 2 | S(rot)=       0.01156380 Eh      7.26 kcal/mol|
|  sn= 3 | S(rot)=       0.01118097 Eh      7.02 kcal/mol|
|  sn= 4 | S(rot)=       0.01090935 Eh      6.85 kcal/mol|
|  sn= 5 | S(rot)=       0.01069866 Eh      6.71 kcal/mol|
|  sn= 6 | S(rot)=       0.01052651 Eh      6.61 kcal/mol|
|  sn= 7 | S(rot)=       0.01038097 Eh      6.51 kcal/mol|
|  sn= 8 | S(rot)=       0.01025489 Eh      6.44 kcal/mol|
|  sn= 9 | S(rot)=       0.01014368 Eh      6.37 kcal/mol|
|  sn=10 | S(rot)=       0.01004420 Eh      6.30 kcal/mol|
|  sn=11 | S(rot)=       0.00995421 Eh      6.25 kcal/mol|
|  sn=12 | S(rot)=       0.00987206 Eh      6.19 kcal/mol|
 linear molecules ---------------------------------------
|  Dinfh | S(rot)=       0.00881310 Eh      5.53 kcal/mol|
|  Cinfv | S(rot)=       0.00946755 Eh      5.94 kcal/mol|
 --------------------------------------------------------


-------------------
GIBBS FREE ENERGY
-------------------

The Gibbs free energy is G = H - T*S

Total enthalpy                    ...  -3074.25909675 Eh 
Total entropy correction          ...     -0.03646205 Eh    -22.88 kcal/mol
-----------------------------------------------------------------------
Final Gibbs free energy         ...  -3074.29555880 Eh

For completeness - the Gibbs free energy minus the electronic energy
G-E(el)                           ...      0.00750064 Eh      4.71 kcal/mol


Maximum memory used throughout the entire PROP-calculation: 31.0 MB

--------------------------------
SUGGESTED CITATIONS FOR THIS RUN
--------------------------------

Below you find a list of papers that are relevant to this ORCA run
We neither can nor want to force you to cite these papers, but we appreciate if you do
You receive ORCA, which is the product of decades of hard work by many enthusiastic individuals, for free
The only thing we kindly ask in return is that you cite our papers,
We deeply appreciate it, if you show your appreciation for ORCA by not just citing the generic ORCA reference.

Please note that relegating all ORCA citations to the supporting information does *not* help us.
SI sections are not indexed - citations you put there will not count into any citation statistics
But we need these citations in order to attract the funding resources that allow us to do what we are doing

Therefore, if you are a happy ORCA user, please consider citing a few of the papers listed below in the main body of your paper

In addition to the list printed below, the program has created the file reactant_optfreq.bibtex that contains the list in bibtex format
You can import this file easily into all common literature databanks and citation aid programs


List of essential papers. We consider these as the minimum necessary citations

  1. Grimme, S.; Hansen, A.; Ehlert, S.; Mewes, J.
     r2SCAN-3c: A 'Swiss army knife' composite electronic-structure method
     J. Chem. Phys. 2021 154 , 064103
     doi.org/10.1063/5.0040021
  2. Neese, F.
     Software update: the ORCA program system, version 6.0
     WIRES Comput. Molec. Sci. 2025 15(1), e70019
     doi.org/10.1002/wcms.7019

List of papers to cite with high priority. The work reported in these papers was absolutely
necessary for this run to complete.
Our perspective: the developers of density functionals and basis sets usually get cited in chemistry papers
Good! But without the algorithms to do something with them, the functionals or basis sets would not do anything.
Hence, in our opinion, the algorithm design and method developments papers are equally worthy of getting cited

  1. Neese, F.
     An improvement of the resolution of the identity approximation for the formation of the Coulomb matrix
     J. Comp. Chem. 2003 24(14), 1740-1747
     doi.org/10.1002/jcc.10318
  2. Bykov, D.; Petrenko, T.; Izsak, R.; Kossmann, S.; Becker, U.; Valeev, E.; Neese, F.
     Efficient implementation of the analytic second derivatives of Hartree-Fock and hybrid DFT energies: a detailed analysis of different approximations
     Molec. Phys. 2015 113 , 1961-1977
     doi.org/10.1080/00268976.2015.1025114
  3. Caldeweyher, E.; Bannwarth, C.; Grimme, S.
     Extension of the D3 dispersion coefficient model
     J. Chem. Phys. 2017 147 , 034112
     doi.org/10.1063/1.4993215
  4. Lehtola, S.; Steigemann, C.; Oliveira, M.; Marques, M.
     Recent developments in Libxc - A comprehensive library of functionals for density functional theory
     Software X 2018 7 , 
     doi.org/10.1016/j.softx.2017.11.002
  5. Caldeweyher, E.; Ehlert, S.; Hansen, A.; Neugebauer, H.; Spicher, S.; Bannwarth, C.; Grimme, S.
     A generally applicable atomic-charge dependent London dispersion correction
     J. Chem. Phys. 2019 150 , 154122
     doi.org/10.1063/1.5090222
  6. Caldeweyher, E.; Mewes, J.; Ehlert, S.; Grimme, S.
     Extension and evaluation of the D4 London-dispersion model for periodic systems
     Phys. Chem. Chem. Phys. 2020 22(16), 8499-8512
     doi.org/10.1039/D0CP00502A
  7. Neese, F.
     The SHARK Integral Generation and Digestion System
     J. Comp. Chem. 2022 44(3), 381
     doi.org/10.1002/jcc.26942
  8. Wittmann, L.; Gordiy, I.; Friede, M.; Helmich-Paris, B.; Grimme, S.; Hansen, A.; Bursch, M.
     Extension of the D3 and D4 London Dispersion Corrections to the full Actinides Series
     Phys. Chem. Chem. Phys. 2024 26(32), 21379-21394
     doi.org/10.1039/D4CP01514B

List of suggested additional citations. These are papers that are important in the 'surrounding' of 
of this run, or papers that preceded the highly important papers. If you like your results we are grateful for a citation.

  1. Neese, F.
     The ORCA program system
     WIRES Comput. Molec. Sci. 2012 2(1), 73-78
     doi.org/10.1002/wcms.81
  2. Neese, F.
     Software update: the ORCA program system, version 4.0
     WIRES Comput. Molec. Sci. 2018 8(1), 1-6
     doi.org/10.1002/wcms.1327
  3. Neese, F.; Wennmohs, F.; Becker, U.; Riplinger, C.
     The ORCA quantum chemistry program package
     J. Chem. Phys. 2020 152(22), 224108
     doi.org/10.1063/5.0004608
  4. Neese, F.
     Software update: The ORCA program system—Version 5.0
     WIRES Comput. Molec. Sci. 2022 12(1), e1606
     doi.org/10.1002/wcms.1606

List of optional additional citations

  1. Neese, F.
     Approximate second-order SCF convergence for spin unrestricted wavefunctions
     Chem. Phys. Lett. 2000 325(1-3), 93-98
     doi.org/10.1016/s0009-2614(00)00662-x

Timings for individual modules:

Sum of individual times          ...      116.052 sec (=   1.934 min)
Startup calculation              ...       16.452 sec (=   0.274 min)  14.2 %
SCF iterations                   ...       45.546 sec (=   0.759 min)  39.2 %
Property integrals               ...       17.045 sec (=   0.284 min)  14.7 %
SCF Response                     ...        6.701 sec (=   0.112 min)   5.8 %
Property calculations            ...        6.998 sec (=   0.117 min)   6.0 %
SCF Gradient evaluation          ...       23.171 sec (=   0.386 min)  20.0 %
Geometry relaxation              ...        0.138 sec (=   0.002 min)   0.1 %
                             ****ORCA TERMINATED NORMALLY****
TOTAL RUN TIME: 0 days 0 hours 2 minutes 4 seconds 852 msec
