
                                 *****************
                                 * O   R   C   A *
                                 *****************

                                            #,                                       
                                            ###                                      
                                            ####                                     
                                            #####                                    
                                            ######                                   
                                           ########,                                 
                                     ,,################,,,,,                         
                               ,,#################################,,                 
                          ,,##########################################,,             
                       ,#########################################, ''#####,          
                    ,#############################################,,   '####,        
                  ,##################################################,,,,####,       
                ,###########''''           ''''###############################       
              ,#####''   ,,,,##########,,,,          '''####'''          '####       
            ,##' ,,,,###########################,,,                        '##       
           ' ,,###''''                  '''############,,,                           
         ,,##''                                '''############,,,,        ,,,,,,###''
      ,#''                                            '''#######################'''  
     '                                                          ''''####''''         
             ,#######,   #######,   ,#######,      ##                                
            ,#'     '#,  ##    ##  ,#'     '#,    #''#        ,####,    ,#,          
            ##       ##  ##   ,#'  ##            #'  '#       #'       ,# #          
            ##       ##  #######   ##           ,######,      #####,      #          
            '#,     ,#'  ##    ##  '#,     ,#' ,#      #,     #,   #      #          
             '#######'   ##     ##  '#######'  #'      '#     '####' #    #          



                #########################################################
                #                        -***-                          #
                #          Department of theory and spectroscopy        #
                #                                                       #
                #                      Frank Neese                      #
                #                                                       #
                #     Directorship, Architecture, Infrastructure        #
                #                    SHARK, DRIVERS                     #
                #        Core code/Algorithms in most modules           #
                #                                                       #
                #        Max Planck Institute fuer Kohlenforschung      #
                #                Kaiser Wilhelm Platz 1                 #
                #                 D-45470 Muelheim/Ruhr                 #
                #                      Germany                          #
                #                                                       #
                #                  All rights reserved                  #
                #                        -***-                          #
                #########################################################


                         Program Version 6.1.0  -  RELEASE   -
                                (GIT: $679e74b$)
                          ($2025-06-10 18:02:51 +0200$)


 With contributions from (in alphabetic order):
[Max-Planck-Institut fuer Kohlenforschung]                               
  Daniel Aravena         : Magnetic Suceptibility                        
  Michael Atanasov       : Ab Initio Ligand Field Theory (pilot matlab implementation)
  Alexander A. Auer      : GIAO ZORA, VPT2 properties, NMR spectrum      
  Ute Becker             : All parallelization in ORCA, NUMFREQ, NUMCALC 
  Giovanni Bistoni       : ED, misc. LED, open-shell LED, HFLD           
  Dmytro Bykov           : pre 5.0 version of the SCF Hessian            
  Marcos Casanova-Páez   : Triplet and SCS-CIS(D). UHF-(DLPNO)-IP/EA/STEOM-CCSD. UHF-CVS-IP/STEOM-CCSD   
  Vijay G. Chilkuri      : MRCI spin determinant printing, contributions to CSF-ICE 
  Pauline Colinet        : FMM embedding                                 
  Dipayan Datta          : RHF DLPNO-CCSD density                        
  Achintya Kumar Dutta   : EOM-CC, STEOM-CC                              
  Nicolas Foglia         : Exact transition moments, OPA infrastructure, MCD improvements    
  Dmitry Ganyushin       : Spin-Orbit,Spin-Spin,Magnetic field MRCI      
  Miquel Garcia-Rates    : C-PCM and meta-GGA Hessian, CCSD/C-PCM, Gaussian charge scheme 
  Tiago L. C. Gouveia    : GS-ROHF, GS-ROCIS                             
  Yang Guo               : DLPNO-NEVPT2, F12-NEVPT2, CIM, IAO-localization        
  Andreas Hansen         : Spin unrestricted coupled pair/coupled cluster methods 
  Ingolf Harden          : AUTO-CI MPn and infrastructure                
  Benjamin Helmich-Paris : MC-RPA, TRAH-(SCF,CASSCF), AVAS, COSX integrals, SCF dyn. polar., MC-PDFT, srDFT 
  Lee Huntington         : MR-EOM, pCC                                   
  Robert Izsak           : Overlap fitted RIJCOSX, COSX-SCS-MP3, EOM     
  Riya Kayal             : Wick's Theorem for AUTO-CI, AUTO-CI UHF-CCSDT 
  Emily Kempfer          : AUTO-CI RHF CISDT and CCSDT, approximate NEVPT4
  Christian Kollmar      : KDIIS, OOCD, Brueckner-CCSD(T), CCSD density, CASPT2, CASPT2-K, improved NEVPT2 
  Axel Koslowski         : Symmetry handling                             
  Simone Kossmann        : meta-GGA functionals, TD-DFT gradient, OOMP2, (MP2 Hessian; deprecated post 5.0) 
  Lucas Lang             : DCDCAS, Hyperfine gauge corrections, ICE-SOC+SSC
  Marvin Lechner         : AUTO-CI (C++ implementation), FIC-MRCC        
  Spencer Leger          : CASSCF response                               
  Dagmar Lenk            : GEPOL surface, SMD, ORCA-2-JSON               
  Dimitrios Liakos       : Extrapolation schemes; Compound Job, Property file
  Dimitrios Manganas     : Further ROCIS development; embedding schemes. LFT, Crystal Embedding 
  Dimitrios Pantazis     : SARC Basis sets                               
  Anastasios Papadopoulos: AUTO-CI, single reference methods and gradients 
  Taras Petrenko         : pre 6.0 DFT Hessian and TD-DFT gradient,  ECA, NRVS 
  Petra Pikulova         : Analytic Raman intensities                    
  Peter Pinski           : DLPNO-MP2, DLPNO-MP2 Gradient                 
  Shashank Vittal Rao    : ES-AILFT, MagRelax                            
  Christoph Reimann      : Effective Core Potentials                     
  Marius Retegan         : Local ZFS, SOC                                
  Christoph Riplinger    : Optimizer, TS searches, QM/MM, DLPNO-CCSD(T), (RO)-DLPNO pert. Triples 
  Michael Roemelt        : Original ROCIS implementation, recursive CI coupling coefficients
  Masaaki Saitow         : Open-shell DLPNO-CCSD energy and density      
  Barbara Sandhoefer     : DKH picture change effects                    
  Yorick L. A. Schmerwitz: GMF and freeze-and-release deltaSCF, NEB S-IDPP initial path                    
  Kantharuban Sivalingam : CASSCF convergence/infrastructure, NEVPT2, NEVPT3, NEVPT4(SD), FIC-MRCI and CEPA variants
  Bernardo de Souza      : ESD, SOC TD-DFT                               
  Georgi L. Stoychev     : AutoAux, RI-MP2 NMR, DLPNO-MP2 response, X2C  
  Van Anh Tran           : RI-MP2 g-tensors                              
  Willem Van den Heuvel  : Paramagnetic NMR                              
  Zikuan Wang            : NOTCH, Electric field optimization            
  Frank Wennmohs         : Technical directorship and infrastructure     
  Hang Xu                : AUTO-CI-Response properties                   
                                                                         
[FACCTs GmbH]                                                            
  Markus Bursch, Nicolas Foglia, Miquel Garcia-Rates, Ingolf Harden, Hagen Neugebauer, Anastasios Papadopoulos, 
  Christoph Riplinger, Bernardo de Souza, Georgi L. Stoychev                                                    
                                                                 
  APM, various basis sets, CI-OPT, improved COSX, DLPNO-Multilevel,           
  DOCKER, DRACO, updates on ESD, Fragmentator, GOAT, IRC, LR-CPCM, L-BFGS, MBIS, meta-GGA TD-DFT gradient, ML-optimized integration grids, 
  MM, NACMEs, nearIR, NEB, NEB-TS, NL-DFT gradient (VV10), 2- and 3-layer-ONIOM, interface openCOSMO-RS, QMMM,   
  Crystal-QMMM, RESP, rigid body optimization, SF, symmetry and pop. for TD-DFT, various functionals, SOLVATOR                                   
                                                                         
[Other institutions]                                                     
  V. Asgeirsson          : NEB                                           
  Christoph Bannwarth    : sTDA-DFT, sTD-DFT, PBEh-3c, B97-3c, D3        
  Giovanni Bistoni       : ETS/NOCV, ADLD/ADEX, COVALED                  
  Martin Brehm           : Molecular dynamics                            
  Ronald Cardenas        : ETS/NOCV                                      
  Martina Colucci        : COVALED                                       
  Sebastian Ehlert       : rSCAN, r2SCAN, r2SCAN-3c, D4, dhf basis sets  
  Marvin Friede          : D4 for Fr, Ra, Ac-Lr                          
  Lars Goerigk           : TD-DFT with DH, B97 family of functionals     
  Stefan Grimme          : VdW corrections, initial TS optimization, DFT functionals, gCP, sTDA/sTD-DF 
  Waldemar Hujo          : DFT-NL                                        
  H. Jonsson             : NEB                                           
  Holger Kruse           : gCP                                           
  Marcel Mueller         : wB97X-3c, vDZP basis set                      
  Hagen Neugebauer       : wr2SCAN, Native XTB                           
  Gianluca Regni         : ADLD/ADEX                                     
  Tobias Risthaus        : pre 6.0 range-separated hybrid DFT and stability analysis
  Lukas Wittmann         : regularized MP2, r2SCAN double-hybrids, wr2SCAN        
                                                                         
We gratefully acknowledge several colleagues who have allowed us to      
interface, adapt or use parts of their codes:                            
  Ed Valeev, F. Pavosevic, A. Kumar             : LibInt (2-el integral package), F12 methods 
  Garnet Chan, S. Sharma, J. Yang, R. Olivares  : DMRG                   
  Ulf Ekstrom                                   : XCFun DFT Library      
  Mihaly Kallay                                 : mrcc  (arbitrary order and MRCC methods)
  Frank Weinhold                                : gennbo (NPA and NBO analysis)           
  Simon Mueller                                 : openCOSMO-RS                            
  Christopher J. Cramer and Donald G. Truhlar   : smd solvation model                     
  S Lehtola, MJT Oliveira, MAL Marques          : LibXC Library                           
  Liviu Ungur et al                             : ANISO software                          


 Your calculation uses the libint2 library for the computation of 2-el integrals
 For citations please refer to: http://libint.valeyev.net

 Your ORCA version has been built with support for libXC version: 7.0.0
 For citations please refer to: https://libxc.gitlab.io

 This ORCA versions uses:
   CBLAS   interface :  Fast vector & matrix operations
   LAPACKE interface :  Fast linear algebra routines
   SCALAPACK package :  Parallel linear algebra routines
   Shared memory     :  Shared parallel matrices
   BLAS/LAPACK       :  OpenBLAS 0.3.29  USE64BITINT DYNAMIC_ARCH NO_AFFINITY SkylakeX SINGLE_THREADED
        Core in use  :  SkylakeX
   Copyright (c) 2011-2014, The OpenBLAS Project


  ***********************************
  * Starting time: Thu Mar 12 12:41:52 2026
  * Host name:     midway3-login4.rcc.local
  * Process ID:    2757425
  * Working dir.:  /home/rzhu16/orca_TS_search/sn2_i_br/geo_opt_reactant_product
  ***********************************

Your calculation utilizes the semiempirical GFN2-xTB method
Please cite in your paper:
Bannwarth, C.; Ehlert S.; Grimme, S. J. Chem. Theory Comput. 2019, 15, 1652.
   

================================================================================

cite the ECPs for I  [Def2-ECP] as follows:
Ce-Yb(ecp-28): M. Dolg, H. Stoll, H.Preuss, J. Chem. Phys., 1989, 90, 1730-1734.
Y-Cd(ecp-28), Hf-Hg(ecp-46): D. Andrae,U. Haeussermann, M. Dolg, H. Stoll, H. Preuss, Theor. Chim. Acta, 1990, 77, 123-141.
In-Sb(ecp-28), Tl-Bi(ecp-46): B. Metz, H. Stoll, M. Dolg, J. Chem. Phys., 2000, 113, 2563-2569.
Te-Xe(ecp-28), Po-Rn(ecp-46): K. A. Peterson, D. Figgen, E. Goll, H. Stoll, M. Dolg, J. Chem. Phys., 2003, 119, 11113-11123.
Rb(ecp-28), Cs(ecp-46): T. Leininger, A. Nicklass, W. Kuechle, H. Stoll, M. Dolg, A. Bergner, Chem. Phys. Lett., 1996, 255, 274-280.
Sr(ecp-28), Ba(ecp-46): M. Kaupp, P. V. Schleyer, H. Stoll and H. Preuss, J. Chem. Phys., 1991, 94, 1360-1366.
La(ecp-46): M. Dolg, H. Stoll, A. Savin, H. Preuss, Theor. Chim. Acta, 1989, 75, 173-194.
Lu(ecp-28): X. Cao, M. Dolg, J. Chem. Phys., 2001, 115, 7348-7355.

ECP parameters for I  [Def2-ECP] have been obtained from:
TURBOMOLE (7.0.2)

================================================================================
                                        WARNINGS
                       Please study these warnings very carefully!
================================================================================


WARNING: Analytical Hessian for XTB is limited in the analysis of the data.
       : If you want to obtain extensive IR and deltaG analysis, please use ! XTB NumFreq. 


WARNING: Geometry Optimization
  ===> : Switching off AutoStart
         For restart on a previous wavefunction, please use MOREAD

WARNING: Found dipole moment calculation with XTB calculation
  ===> : Switching off dipole moment calculation


WARNING: Found frequency calculation in combination with XTB calculation
  ===> : Need to redirect dipole moment calculation to properties.out


================================================================================
                                       INPUT FILE
================================================================================
NAME = product_optfreq.inp
|  1> ! XTB2 Opt Freq PAL8
|  2> 
|  3> * xyz -1 1
|  4>   C      -0.000060     -0.000072     -0.377855
|  5>   H       0.000039      1.030651     -0.054190
|  6>   H       0.892534     -0.515242     -0.054197
|  7>   H      -0.892369     -0.515192     -0.054210
|  8>   I       0.000005      0.000005      2.770083
|  9>   Br      0.000018      0.000018     -2.349070
| 10> *
| 11> 
| 12>                          ****END OF INPUT****
================================================================================

                       *****************************
                       * Geometry Optimization Run *
                       *****************************

Geometry optimization settings:
Update method            Update   .... BFGS
Choice of coordinates    CoordSys .... (2022) Redundant Internals
Initial Hessian          InHess   .... Almloef's Model
Max. no of cycles        MaxIter  .... 50

Convergence Tolerances:
Energy Change            TolE     ....  5.0000e-06 Eh
Max. Gradient            TolMAXG  ....  3.0000e-04 Eh/bohr
RMS Gradient             TolRMSG  ....  1.0000e-04 Eh/bohr
Max. Displacement        TolMAXD  ....  4.0000e-03 bohr
RMS Displacement         TolRMSD  ....  2.0000e-03 bohr
Strict Convergence                .... False

------------------------------------------------------------------------------
                        ORCA OPTIMIZATION COORDINATE SETUP
------------------------------------------------------------------------------

The optimization will be done in redundant internal coordinates (2022)
Making redundant internal coordinates   ...  (2022 redundants) done
Evaluating the initial hessian          ...  (Almloef) done
Evaluating the coordinates              ...  done
Calculating the B-matrix                .... done
Calculating the G-matrix                .... done
The number of degrees of freedom        ....   17

    -----------------------------------------------------------------
                    Redundant Internal Coordinates


    -----------------------------------------------------------------
         Definition                    Initial Value    Approx d2E/dq
    -----------------------------------------------------------------
      1. B(H   1,C   0)                  1.0803         0.373099   
      2. B(H   2,C   0)                  1.0802         0.373271   
      3. B(H   3,C   0)                  1.0800         0.373632   
      4. B(I   4,H   2)                  3.0064         0.010000   
      5. B(I   4,H   3)                  3.0064         0.010000   
      6. B(I   4,H   1)                  3.0065         0.010000   
      7. B(I   4,C   0)                  3.1479         0.010000   
      8. B(Br  5,C   0)                  1.9712         0.248280   
      9. A(H   1,C   0,H   3)          111.4300         0.294172   
     10. A(H   2,C   0,H   3)          111.4360         0.294193   
     11. A(H   1,C   0,Br  5)          107.4306         0.323637   
     12. A(H   2,C   0,Br  5)          107.4342         0.323662   
     13. A(H   3,C   0,Br  5)          107.4418         0.323713   
     14. A(H   1,C   0,I   4)           72.5654         0.177201   
     15. A(H   2,C   0,I   4)           72.5648         0.177210   
     16. A(H   3,C   0,I   4)           72.5632         0.177230   
     17. A(H   1,C   0,H   2)          111.4177         0.294127   
    -----------------------------------------------------------------

Number of atoms                         .... 6
Number of degrees of freedom            .... 17


         *************************************************************
         *                GEOMETRY OPTIMIZATION CYCLE   1            *
         *************************************************************
---------------------------------
CARTESIAN COORDINATES (ANGSTROEM)
---------------------------------
  C    -0.000060   -0.000072   -0.377855
  H     0.000039    1.030651   -0.054190
  H     0.892534   -0.515242   -0.054197
  H    -0.892369   -0.515192   -0.054210
  I     0.000005    0.000005    2.770083
  Br    0.000018    0.000018   -2.349070

----------------------------
CARTESIAN COORDINATES (A.U.)
----------------------------
  NO LB    ZA    FRAG    MASS        X           Y           Z
   0 C   6.0000    0    12.011   -0.000113   -0.000136   -0.714042
   1 H   1.0000    0     1.008    0.000074    1.947648   -0.102404
   2 H   1.0000    0     1.008    1.686645   -0.973666   -0.102417
   3 H   1.0000    0     1.008   -1.686333   -0.973572   -0.102442
   4 I  53.0000    0   126.900    0.000009    0.000009    5.234698
   5 Br 35.0000    0    79.900    0.000034    0.000034   -4.439099

      -----------------------------------------------------------      
     |                   =====================                   |     
     |                           x T B                           |     
     |                   =====================                   |     
     |                         S. Grimme                         |     
     |          Mulliken Center for Theoretical Chemistry        |     
     |                    University of Bonn                     |     
      -----------------------------------------------------------      

   * xtb version 6.7.1 (edcfbbe) compiled by 'albert@albert-system' on 2024-07-22

   xtb is free software: you can redistribute it and/or modify it under
   the terms of the GNU Lesser General Public License as published by
   the Free Software Foundation, either version 3 of the License, or
   (at your option) any later version.
   
   xtb is distributed in the hope that it will be useful,
   but WITHOUT ANY WARRANTY; without even the implied warranty of
   MERCHANTABILITY or FITNESS FOR A PARTICULAR PURPOSE.  See the
   GNU Lesser General Public License for more details.
   
   Cite this work as:
   * C. Bannwarth, E. Caldeweyher, S. Ehlert, A. Hansen, P. Pracht,
     J. Seibert, S. Spicher, S. Grimme, WIREs Comput. Mol. Sci., 2020, 11,
     e01493. DOI: 10.1002/wcms.1493
   
   for GFN2-xTB:
   * C. Bannwarth, S. Ehlert and S. Grimme., J. Chem. Theory Comput., 2019,
     15, 1652-1671. DOI: 10.1021/acs.jctc.8b01176
   for GFN1-xTB:
   * S. Grimme, C. Bannwarth, P. Shushkov, J. Chem. Theory Comput., 2017,
     13, 1989-2009. DOI: 10.1021/acs.jctc.7b00118
   for GFN0-xTB:
   * P. Pracht, E. Caldeweyher, S. Ehlert, S. Grimme, ChemRxiv, 2019, preprint.
     DOI: 10.26434/chemrxiv.8326202.v1
   for GFN-FF:
   * S. Spicher and S. Grimme, Angew. Chem. Int. Ed., 2020, 59, 15665-15673.
     DOI: 10.1002/anie.202004239
   
   for ALPB and GBSA implicit solvation:
   * S. Ehlert, M. Stahn, S. Spicher, S. Grimme, J. Chem. Theory Comput.,
     2021, 17, 4250-4261. DOI: 10.1021/acs.jctc.1c00471
   
   for ddCOSMO and CPCM-X implicit solvation:
   * M. Stahn, S. Ehlert, S. Grimme, J. Phys. Chem. A,
     2023, XX, XXXX-XXXX. DOI: 10.1021/acs.jpca.3c04382
   
   for DFT-D4:
   * E. Caldeweyher, C. Bannwarth and S. Grimme, J. Chem. Phys., 2017,
     147, 034112. DOI: 10.1063/1.4993215
   * E. Caldeweyher, S. Ehlert, A. Hansen, H. Neugebauer, S. Spicher,
     C. Bannwarth and S. Grimme, J. Chem. Phys., 2019, 150, 154122.
     DOI: 10.1063/1.5090222
   * E. Caldeweyher, J.-M. Mewes, S. Ehlert and S. Grimme, Phys. Chem. Chem. Phys.
     2020, 22, 8499-8512. DOI: 10.1039/D0CP00502A
   
   for sTDA-xTB:
   * S. Grimme and C. Bannwarth, J. Chem. Phys., 2016, 145, 054103.
     DOI: 10.1063/1.4959605
   
   in the mass-spec context:
   * V. Asgeirsson, C. Bauer and S. Grimme, Chem. Sci., 2017, 8, 4879.
     DOI: 10.1039/c7sc00601b
   * J. Koopman and S. Grimme, ACS Omega 2019, 4, 12, 15120-15133.
     DOI: 10.1021/acsomega.9b02011
   
   for metadynamics refer to:
   * S. Grimme, J. Chem. Theory Comput., 2019, 155, 2847-2862
     DOI: 10.1021/acs.jctc.9b00143
   
   for SPH calculations refer to:
   * S. Spicher and S. Grimme, J. Chem. Theory Comput., 2021, 17, 1701-1714
     DOI: 10.1021/acs.jctc.0c01306
   
   for ONIOM refer to:
   * C. Plett, A. Katbashev, S. Ehlert, S. Grimme, M. Bursch,
     Phys. Chem. Chem. Phys., 2023, 25, 17860-17868. DOI: 10.1039/D3CP02178E
   
   for DIPRO refer to:
   * J. Kohn, N. Gildemeister, S. Grimme, D. Fazzi, A. Hansen,
     J. Chem. Phys., 2023, just accepted.
   
   for PTB refer to:
   * S. Grimme, M. Mueller, A. Hansen, J. Chem. Phys., 2023, 158, 124111.
     DOI: 10.1063/5.0137838
   
   with help from (in alphabetical order)
   P. Atkinson, C. Bannwarth, F. Bohle, G. Brandenburg, E. Caldeweyher
   M. Checinski, S. Dohm, S. Ehlert, S. Ehrlich, I. Gerasimov, C. Hölzer
   A. Katbashev, J. Kohn, J. Koopman, C. Lavigne, S. Lehtola, F. März, M. Müller,
   F. Musil, H. Neugebauer, J. Pisarek, C. Plett, P. Pracht, F. Pultar,
   J. Seibert, P. Shushkov, S. Spicher, M. Stahn, M. Steiner, T. Strunk,
   J. Stückrath, T. Rose, and J. Unsleber
   
 * started run on 2026/03/12 at 12:41:53.021     
   ID    Z sym.   atoms
    1    6 C      1
    2    1 H      2-4
    3   53 I      5
    4   35 Br     6

           -------------------------------------------------
          |                Calculation Setup                |
           -------------------------------------------------

          program call               : /software/orca-6.1.0-el8-x86_64/bin/otool_xtb product_optfreq_XTB.xyz --grad -c -1 -u 0 -P 8 --namespace product_optfreq --input product_optfreq_XTB.input.tmp --acc 0.200000
          hostname                   : midway3-login4.rcc.local
          calculation namespace      : product_optfreq
          coordinate file            : product_optfreq_XTB.xyz
          omp threads                :                     8


molecular fragmentation (1/2 indicates fragments):
111121
# atoms in fragment 1/2:     5     1
 fragment masses (1/2) :       94.94      126.90
CMA distance (Bohr)    :   9.064
constraining FC (au)   :  0.0500

           -------------------------------------------------
          |                 G F N 2 - x T B                 |
           -------------------------------------------------

        Reference                      10.1021/acs.jctc.8b01176
      * Hamiltonian:
        H0-scaling (s, p, d)           1.850000    2.230000    2.230000
        zeta-weighting                 0.500000
      * Dispersion:
        s8                             2.700000
        a1                             0.520000
        a2                             5.000000
        s9                             5.000000
      * Repulsion:
        kExp                           1.500000    1.000000
        rExp                           1.000000
      * Coulomb:
        alpha                          2.000000
        third order                    shell-resolved
        anisotropic                    true
        a3                             3.000000
        a5                             4.000000
        cn-shift                       1.200000
        cn-exp                         4.000000
        max-rad                        5.000000


          ...................................................
          :                      SETUP                      :
          :.................................................:
          :  # basis functions                  27          :
          :  # atomic orbitals                  25          :
          :  # shells                           11          :
          :  # electrons                        22          :
          :  max. iterations                   250          :
          :  Hamiltonian                  GFN2-xTB          :
          :  restarted?                      false          :
          :  GBSA solvation                  false          :
          :  PC potential                    false          :
          :  electronic temp.          300.0000000     K    :
          :  accuracy                    0.2000000          :
          :  -> integral cutoff          0.3198970E+02      :
          :  -> integral neglect         0.2000000E-08      :
          :  -> SCF convergence          0.2000000E-06 Eh   :
          :  -> wf. convergence          0.2000000E-04 e    :
          :  Broyden damping             0.4000000          :
          :  net charge                         -1          :
          :  unpaired electrons                  0          :
          ...................................................

 iter      E             dE          RMSdq      gap      omega  full diag
   1    -11.8674567 -0.118675E+02  0.718E+00    2.96       0.0  T
   2    -11.8815908 -0.141341E-01  0.455E+00    2.33       1.0  T
   3    -11.8821057 -0.514912E-03  0.176E+00    2.46       1.0  T
   4    -11.8847372 -0.263141E-02  0.102E+00    2.37       1.0  T
   5    -11.8853567 -0.619577E-03  0.549E-01    2.39       1.0  T
   6    -11.8856630 -0.306304E-03  0.247E-01    2.27       1.0  T
   7    -11.8857029 -0.398580E-04  0.824E-02    2.30       1.0  T
   8    -11.8857117 -0.881669E-05  0.368E-02    2.28       1.1  T
   9    -11.8857120 -0.295364E-06  0.817E-03    2.28       5.0  T
  10    -11.8857122 -0.145387E-06  0.233E-03    2.28      17.5  T
  11    -11.8857122 -0.761304E-09  0.205E-04    2.28     199.3  T
  12    -11.8857122  0.837730E-11  0.702E-05    2.28     581.8  T
  13    -11.8857122 -0.121219E-10  0.124E-05    2.28    3294.1  T

   *** convergence criteria satisfied after 13 iterations ***

         #    Occupation            Energy/Eh            Energy/eV
      -------------------------------------------------------------
         1        2.0000           -0.7192719             -19.5724
       ...           ...                  ...                  ...
         5        2.0000           -0.3774784             -10.2717
         6        2.0000           -0.3611603              -9.8277
         7        2.0000           -0.2863220              -7.7912
         8        2.0000           -0.2863195              -7.7911
         9        2.0000           -0.1777431              -4.8366
        10        2.0000           -0.1726630              -4.6984
        11        2.0000           -0.1726630              -4.6984 (HOMO)
        12                         -0.0888279              -2.4171 (LUMO)
        13                          0.1632021               4.4410
        14                          0.1632224               4.4415
        15                          0.1784221               4.8551
        16                          0.1784237               4.8552
       ...                                ...                  ...
        25                          0.4881553              13.2834
      -------------------------------------------------------------
                  HL-Gap            0.0838350 Eh            2.2813 eV
             Fermi-level           -0.1307454 Eh           -3.5578 eV

 SCC (total)                   0 d,  0 h,  0 min,  0.114 sec
 SCC setup                      ...        0 min,  0.000 sec (  0.151%)
 Dispersion                     ...        0 min,  0.000 sec (  0.045%)
 classical contributions        ...        0 min,  0.000 sec (  0.030%)
 integral evaluation            ...        0 min,  0.109 sec ( 96.154%)
 iterations                     ...        0 min,  0.003 sec (  2.356%)
 molecular gradient             ...        0 min,  0.001 sec (  1.107%)
 printout                       ...        0 min,  0.000 sec (  0.142%)

         :::::::::::::::::::::::::::::::::::::::::::::::::::::
         ::                     SUMMARY                     ::
         :::::::::::::::::::::::::::::::::::::::::::::::::::::
         :: total energy             -11.827109162368 Eh    ::
         :: gradient norm              0.001966031664 Eh/a0 ::
         :: HOMO-LUMO gap              2.281267688897 eV    ::
         ::.................................................::
         :: SCC energy               -11.885713035554 Eh    ::
         :: -> isotropic ES            0.145126847231 Eh    ::
         :: -> anisotropic ES         -0.004724065251 Eh    ::
         :: -> anisotropic XC         -0.005058359339 Eh    ::
         :: -> dispersion             -0.003359108791 Eh    ::
         :: repulsion energy           0.058603873186 Eh    ::
         :: add. restraining           0.000000000000 Eh    ::
         :: total charge              -1.000000000000 e     ::
         :::::::::::::::::::::::::::::::::::::::::::::::::::::


Property printout bound to 'properties.out'

           -------------------------------------------------
          | TOTAL ENERGY              -11.827109162368 Eh   |
          | GRADIENT NORM               0.001966031664 Eh/α |
          | HOMO-LUMO GAP               2.281267688897 eV   |
           -------------------------------------------------

------------------------------------------------------------------------
 * finished run on 2026/03/12 at 12:41:53.156     
------------------------------------------------------------------------
 total:
 * wall-time:     0 d,  0 h,  0 min,  0.134 sec
 *  cpu-time:     0 d,  0 h,  0 min,  0.568 sec
 * ratio c/w:     4.226 speedup
 SCF:
 * wall-time:     0 d,  0 h,  0 min,  0.114 sec
 *  cpu-time:     0 d,  0 h,  0 min,  0.498 sec
 * ratio c/w:     4.376 speedup


-------------------------   --------------------
FINAL SINGLE POINT ENERGY       -11.827109162370
-------------------------   --------------------


-------------
DIPOLE MOMENT
-------------
                                X             Y             Z
Total Dipole Moment    :     -0.00000      -0.00000      -2.65800
                        -----------------------------------------
Magnitude (a.u.)       :      2.65800
Magnitude (Debye)      :      6.75610


------------------
CARTESIAN GRADIENT
------------------

   1   C   :   -0.000143534   -0.000161677   -0.000085876
   2   H   :    0.000005283   -0.000147326    0.000451813
   3   H   :   -0.000186197    0.000116578    0.000430554
   4   H   :    0.000320674    0.000188118    0.000385711
   5   I   :    0.000000453    0.000000521   -0.001678722
   6   Br  :    0.000003321    0.000003784    0.000496520

Difference to translation invariance:
           :    0.0000000000    0.0000000000    0.0000000000

Difference to rotation invariance:
           :    0.0000000009   -0.0000000010   -0.0000000000

Norm of the Cartesian gradient     ...    0.0019660317
RMS gradient                       ...    0.0004633981
MAX gradient                       ...    0.0016787223
------------------------------------------------------------------------------
                         ORCA GEOMETRY RELAXATION STEP
------------------------------------------------------------------------------

Reading the OPT-File                    .... done
Getting information on internals        .... done
Copying old internal coords+grads       .... done
Making the new internal coordinates     .... (2022 redundants) done
Validating the new internal coordinates .... (2022 redundants) done
Calculating the B-matrix                .... done
Calculating the G,G- and P matrices     .... done
Transforming gradient to internals      .... done
Projecting the internal gradient        .... done
Number of atoms                         ....   6
Number of internal coordinates          ....  17
Current Energy                          ....   -11.827109162 Eh
Current gradient norm                   ....     0.001966032 Eh/bohr
Maximum allowed component of the step   ....  0.300
Current trust radius                    ....  0.300
Evaluating the initial hessian          ....  (Almloef) done
Projecting the Hessian                  .... done
Forming the augmented Hessian           .... done
Diagonalizing the augmented Hessian     .... done
Last element of RFO vector              ....  0.996215687
Lowest eigenvalues of augmented Hessian:
 -0.000077831  0.010076664  0.042405949  0.042420066  0.190999110
Length of the computed step             ....  0.087245671
The final length of the internal step   ....  0.087245671
Converting the step to Cartesian space:
 Initial RMS(Int)=    0.0211601834
Transforming coordinates:
 Iter   0:  RMS(Cart)=    0.0098998201 RMS(Int)=    0.0211675712
done
Storing new coordinates                 .... done

                                .--------------------.
          ----------------------|Geometry convergence|-------------------------
          Item                value                   Tolerance       Converged
          ---------------------------------------------------------------------
          RMS gradient        0.0002517800            0.0001000000      NO
          MAX gradient        0.0004965197            0.0003000000      NO
          RMS step            0.0211601834            0.0020000000      NO
          MAX step            0.0454697730            0.0040000000      NO
          -------------------------------------------------------------------------
          ........................................................
          Max(Bonds)      0.0241      Max(Angles)    0.01
          Max(Dihed)        0.00      Max(Improp)    0.00
          ---------------------------------------------------------------------

The optimization has not yet converged - more geometry cycles are needed


    ---------------------------------------------------------------------------
                         Redundant Internal Coordinates
                            (Angstroem and degrees)

        Definition                    Value    dE/dq     Step     New-Value
    ----------------------------------------------------------------------------
     1. B(H   1,C   0)                1.0803  0.000015 -0.0000    1.0803   
     2. B(H   2,C   0)                1.0802 -0.000060  0.0001    1.0803   
     3. B(H   3,C   0)                1.0800 -0.000219  0.0003    1.0803   
     4. B(I   4,H   2)                3.0064 -0.000446  0.0227    3.0292   
     5. B(I   4,H   3)                3.0064 -0.000446  0.0227    3.0291   
     6. B(I   4,H   1)                3.0065 -0.000446  0.0227    3.0292   
     7. B(I   4,C   0)                3.1479 -0.000422  0.0241    3.1720   
     8. B(Br  5,C   0)                1.9712 -0.000497  0.0011    1.9723   
     9. A(H   1,C   0,H   3)          111.43 -0.000019    0.01    111.44   
    10. A(H   2,C   0,H   3)          111.44 -0.000013    0.00    111.44   
    11. A(H   1,C   0,Br  5)          107.43  0.000013   -0.01    107.43   
    12. A(H   2,C   0,Br  5)          107.43  0.000020   -0.01    107.43   
    13. A(H   3,C   0,Br  5)          107.44  0.000034   -0.01    107.43   
    14. A(H   1,C   0,I   4)           72.57 -0.000025    0.01     72.57   
    15. A(H   2,C   0,I   4)           72.56 -0.000023    0.01     72.57   
    16. A(H   3,C   0,I   4)           72.56 -0.000020    0.01     72.57   
    17. A(H   1,C   0,H   2)          111.42 -0.000031    0.01    111.43   
    ----------------------------------------------------------------------------

Geometry step timings:
Preparation and reading OPT file:      0.000 s ( 2.929 %)
Internal coordinates            :      0.000 s ( 3.347 %)
B/P matrices and projection     :      0.000 s (12.385 %)
Hessian update/contruction      :      0.000 s (34.477 %)
Making the step                 :      0.000 s (11.213 %)
Converting the step to Cartesian:      0.000 s ( 3.766 %)
Storing new data                :      0.000 s ( 6.611 %)
Checking convergence            :      0.000 s ( 5.021 %)
Final printing                  :      0.000 s (19.833 %)
Total time                      :      0.001 s

Time for energy+gradient        :      0.144 s
Time for complete geometry iter :      0.146 s

         *************************************************************
         *                GEOMETRY OPTIMIZATION CYCLE   2            *
         *************************************************************
---------------------------------
CARTESIAN COORDINATES (ANGSTROEM)
---------------------------------
  C    -0.000009   -0.000015   -0.381646
  H     0.000071    1.030724   -0.058100
  H     0.892674   -0.515269   -0.058081
  H    -0.892606   -0.515312   -0.058040
  I     0.000005    0.000005    2.790348
  Br    0.000033    0.000034   -2.353919

----------------------------
CARTESIAN COORDINATES (A.U.)
----------------------------
  NO LB    ZA    FRAG    MASS        X           Y           Z
   0 C   6.0000    0    12.011   -0.000018   -0.000028   -0.721206
   1 H   1.0000    0     1.008    0.000133    1.947786   -0.109794
   2 H   1.0000    0     1.008    1.686909   -0.973717   -0.109758
   3 H   1.0000    0     1.008   -1.686781   -0.973798   -0.109680
   4 I  53.0000    0   126.900    0.000010    0.000009    5.272993
   5 Br 35.0000    0    79.900    0.000062    0.000064   -4.448262

      -----------------------------------------------------------      
     |                   =====================                   |     
     |                           x T B                           |     
     |                   =====================                   |     
     |                         S. Grimme                         |     
     |          Mulliken Center for Theoretical Chemistry        |     
     |                    University of Bonn                     |     
      -----------------------------------------------------------      

   * xtb version 6.7.1 (edcfbbe) compiled by 'albert@albert-system' on 2024-07-22

   xtb is free software: you can redistribute it and/or modify it under
   the terms of the GNU Lesser General Public License as published by
   the Free Software Foundation, either version 3 of the License, or
   (at your option) any later version.
   
   xtb is distributed in the hope that it will be useful,
   but WITHOUT ANY WARRANTY; without even the implied warranty of
   MERCHANTABILITY or FITNESS FOR A PARTICULAR PURPOSE.  See the
   GNU Lesser General Public License for more details.
   
   Cite this work as:
   * C. Bannwarth, E. Caldeweyher, S. Ehlert, A. Hansen, P. Pracht,
     J. Seibert, S. Spicher, S. Grimme, WIREs Comput. Mol. Sci., 2020, 11,
     e01493. DOI: 10.1002/wcms.1493
   
   for GFN2-xTB:
   * C. Bannwarth, S. Ehlert and S. Grimme., J. Chem. Theory Comput., 2019,
     15, 1652-1671. DOI: 10.1021/acs.jctc.8b01176
   for GFN1-xTB:
   * S. Grimme, C. Bannwarth, P. Shushkov, J. Chem. Theory Comput., 2017,
     13, 1989-2009. DOI: 10.1021/acs.jctc.7b00118
   for GFN0-xTB:
   * P. Pracht, E. Caldeweyher, S. Ehlert, S. Grimme, ChemRxiv, 2019, preprint.
     DOI: 10.26434/chemrxiv.8326202.v1
   for GFN-FF:
   * S. Spicher and S. Grimme, Angew. Chem. Int. Ed., 2020, 59, 15665-15673.
     DOI: 10.1002/anie.202004239
   
   for ALPB and GBSA implicit solvation:
   * S. Ehlert, M. Stahn, S. Spicher, S. Grimme, J. Chem. Theory Comput.,
     2021, 17, 4250-4261. DOI: 10.1021/acs.jctc.1c00471
   
   for ddCOSMO and CPCM-X implicit solvation:
   * M. Stahn, S. Ehlert, S. Grimme, J. Phys. Chem. A,
     2023, XX, XXXX-XXXX. DOI: 10.1021/acs.jpca.3c04382
   
   for DFT-D4:
   * E. Caldeweyher, C. Bannwarth and S. Grimme, J. Chem. Phys., 2017,
     147, 034112. DOI: 10.1063/1.4993215
   * E. Caldeweyher, S. Ehlert, A. Hansen, H. Neugebauer, S. Spicher,
     C. Bannwarth and S. Grimme, J. Chem. Phys., 2019, 150, 154122.
     DOI: 10.1063/1.5090222
   * E. Caldeweyher, J.-M. Mewes, S. Ehlert and S. Grimme, Phys. Chem. Chem. Phys.
     2020, 22, 8499-8512. DOI: 10.1039/D0CP00502A
   
   for sTDA-xTB:
   * S. Grimme and C. Bannwarth, J. Chem. Phys., 2016, 145, 054103.
     DOI: 10.1063/1.4959605
   
   in the mass-spec context:
   * V. Asgeirsson, C. Bauer and S. Grimme, Chem. Sci., 2017, 8, 4879.
     DOI: 10.1039/c7sc00601b
   * J. Koopman and S. Grimme, ACS Omega 2019, 4, 12, 15120-15133.
     DOI: 10.1021/acsomega.9b02011
   
   for metadynamics refer to:
   * S. Grimme, J. Chem. Theory Comput., 2019, 155, 2847-2862
     DOI: 10.1021/acs.jctc.9b00143
   
   for SPH calculations refer to:
   * S. Spicher and S. Grimme, J. Chem. Theory Comput., 2021, 17, 1701-1714
     DOI: 10.1021/acs.jctc.0c01306
   
   for ONIOM refer to:
   * C. Plett, A. Katbashev, S. Ehlert, S. Grimme, M. Bursch,
     Phys. Chem. Chem. Phys., 2023, 25, 17860-17868. DOI: 10.1039/D3CP02178E
   
   for DIPRO refer to:
   * J. Kohn, N. Gildemeister, S. Grimme, D. Fazzi, A. Hansen,
     J. Chem. Phys., 2023, just accepted.
   
   for PTB refer to:
   * S. Grimme, M. Mueller, A. Hansen, J. Chem. Phys., 2023, 158, 124111.
     DOI: 10.1063/5.0137838
   
   with help from (in alphabetical order)
   P. Atkinson, C. Bannwarth, F. Bohle, G. Brandenburg, E. Caldeweyher
   M. Checinski, S. Dohm, S. Ehlert, S. Ehrlich, I. Gerasimov, C. Hölzer
   A. Katbashev, J. Kohn, J. Koopman, C. Lavigne, S. Lehtola, F. März, M. Müller,
   F. Musil, H. Neugebauer, J. Pisarek, C. Plett, P. Pracht, F. Pultar,
   J. Seibert, P. Shushkov, S. Spicher, M. Stahn, M. Steiner, T. Strunk,
   J. Stückrath, T. Rose, and J. Unsleber
   
 * started run on 2026/03/12 at 12:41:53.167     
   ID    Z sym.   atoms
    1    6 C      1
    2    1 H      2-4
    3   53 I      5
    4   35 Br     6

           -------------------------------------------------
          |                Calculation Setup                |
           -------------------------------------------------

          program call               : /software/orca-6.1.0-el8-x86_64/bin/otool_xtb product_optfreq_XTB.xyz --grad -c -1 -u 0 -P 8 --namespace product_optfreq --input product_optfreq_XTB.input.tmp --acc 0.200000
          hostname                   : midway3-login4.rcc.local
          calculation namespace      : product_optfreq
          coordinate file            : product_optfreq_XTB.xyz
          omp threads                :                     8


molecular fragmentation (1/2 indicates fragments):
111121
# atoms in fragment 1/2:     5     1
 fragment masses (1/2) :       94.94      126.90
CMA distance (Bohr)    :   9.112
constraining FC (au)   :  0.0500

           -------------------------------------------------
          |                 G F N 2 - x T B                 |
           -------------------------------------------------

        Reference                      10.1021/acs.jctc.8b01176
      * Hamiltonian:
        H0-scaling (s, p, d)           1.850000    2.230000    2.230000
        zeta-weighting                 0.500000
      * Dispersion:
        s8                             2.700000
        a1                             0.520000
        a2                             5.000000
        s9                             5.000000
      * Repulsion:
        kExp                           1.500000    1.000000
        rExp                           1.000000
      * Coulomb:
        alpha                          2.000000
        third order                    shell-resolved
        anisotropic                    true
        a3                             3.000000
        a5                             4.000000
        cn-shift                       1.200000
        cn-exp                         4.000000
        max-rad                        5.000000

q/qsh data taken from xtbrestart
CAMM data taken from xtbrestart

          ...................................................
          :                      SETUP                      :
          :.................................................:
          :  # basis functions                  27          :
          :  # atomic orbitals                  25          :
          :  # shells                           11          :
          :  # electrons                        22          :
          :  max. iterations                   250          :
          :  Hamiltonian                  GFN2-xTB          :
          :  restarted?                       true          :
          :  GBSA solvation                  false          :
          :  PC potential                    false          :
          :  electronic temp.          300.0000000     K    :
          :  accuracy                    0.2000000          :
          :  -> integral cutoff          0.3198970E+02      :
          :  -> integral neglect         0.2000000E-08      :
          :  -> SCF convergence          0.2000000E-06 Eh   :
          :  -> wf. convergence          0.2000000E-04 e    :
          :  Broyden damping             0.4000000          :
          :  net charge                         -1          :
          :  unpaired electrons                  0          :
          ...................................................

 iter      E             dE          RMSdq      gap      omega  full diag
   1    -11.8856789 -0.118857E+02  0.199E-01    2.24       0.0  T
   2    -11.8856822 -0.335018E-05  0.973E-02    2.23       1.0  T
   3    -11.8856827 -0.450813E-06  0.225E-02    2.22       1.8  T
   4    -11.8856828 -0.118415E-06  0.140E-02    2.22       2.9  T
   5    -11.8856828 -0.526319E-07  0.681E-03    2.22       6.0  T
   6    -11.8856829 -0.226417E-07  0.164E-03    2.22      24.9  T
   7    -11.8856829 -0.162041E-08  0.808E-04    2.22      50.5  T
   8    -11.8856829 -0.595604E-09  0.432E-04    2.22      94.5  T
   9    -11.8856829 -0.169294E-09  0.744E-05    2.22     548.6  T
  10    -11.8856829 -0.137312E-11  0.210E-06    2.22   19480.0  T

   *** convergence criteria satisfied after 10 iterations ***

         #    Occupation            Energy/Eh            Energy/eV
      -------------------------------------------------------------
         1        2.0000           -0.7200854             -19.5945
       ...           ...                  ...                  ...
         5        2.0000           -0.3783162             -10.2945
         6        2.0000           -0.3620254              -9.8512
         7        2.0000           -0.2872445              -7.8163
         8        2.0000           -0.2872426              -7.8163
         9        2.0000           -0.1769356              -4.8147
        10        2.0000           -0.1719148              -4.6780
        11        2.0000           -0.1719148              -4.6780 (HOMO)
        12                         -0.0903240              -2.4578 (LUMO)
        13                          0.1623148               4.4168
        14                          0.1623210               4.4170
        15                          0.1775112               4.8303
        16                          0.1775136               4.8304
       ...                                ...                  ...
        25                          0.4859670              13.2238
      -------------------------------------------------------------
                  HL-Gap            0.0815907 Eh            2.2202 eV
             Fermi-level           -0.1311194 Eh           -3.5679 eV

 SCC (total)                   0 d,  0 h,  0 min,  0.093 sec
 SCC setup                      ...        0 min,  0.000 sec (  0.180%)
 Dispersion                     ...        0 min,  0.000 sec (  0.049%)
 classical contributions        ...        0 min,  0.000 sec (  0.033%)
 integral evaluation            ...        0 min,  0.091 sec ( 97.379%)
 iterations                     ...        0 min,  0.001 sec (  1.588%)
 molecular gradient             ...        0 min,  0.001 sec (  0.630%)
 printout                       ...        0 min,  0.000 sec (  0.120%)

         :::::::::::::::::::::::::::::::::::::::::::::::::::::
         ::                     SUMMARY                     ::
         :::::::::::::::::::::::::::::::::::::::::::::::::::::
         :: total energy             -11.827164547810 Eh    ::
         :: gradient norm              0.001015144849 Eh/a0 ::
         :: HOMO-LUMO gap              2.220196770848 eV    ::
         ::.................................................::
         :: SCC energy               -11.885683774372 Eh    ::
         :: -> isotropic ES            0.145735489054 Eh    ::
         :: -> anisotropic ES         -0.004650511531 Eh    ::
         :: -> anisotropic XC         -0.004924191591 Eh    ::
         :: -> dispersion             -0.003340527560 Eh    ::
         :: repulsion energy           0.058519226562 Eh    ::
         :: add. restraining           0.000000000000 Eh    ::
         :: total charge              -1.000000000000 e     ::
         :::::::::::::::::::::::::::::::::::::::::::::::::::::


Property printout bound to 'properties.out'

           -------------------------------------------------
          | TOTAL ENERGY              -11.827164547810 Eh   |
          | GRADIENT NORM               0.001015144849 Eh/α |
          | HOMO-LUMO GAP               2.220196770848 eV   |
           -------------------------------------------------

------------------------------------------------------------------------
 * finished run on 2026/03/12 at 12:41:53.273     
------------------------------------------------------------------------
 total:
 * wall-time:     0 d,  0 h,  0 min,  0.105 sec
 *  cpu-time:     0 d,  0 h,  0 min,  0.466 sec
 * ratio c/w:     4.439 speedup
 SCF:
 * wall-time:     0 d,  0 h,  0 min,  0.093 sec
 *  cpu-time:     0 d,  0 h,  0 min,  0.410 sec
 * ratio c/w:     4.393 speedup


-------------------------   --------------------
FINAL SINGLE POINT ENERGY       -11.827164547810
-------------------------   --------------------


-------------
DIPOLE MOMENT
-------------
                                X             Y             Z
Total Dipole Moment    :     -0.00000      -0.00000      -2.71000
                        -----------------------------------------
Magnitude (a.u.)       :      2.71000
Magnitude (Debye)      :      6.88827


------------------
CARTESIAN GRADIENT
------------------

   1   C   :   -0.000030651   -0.000034627    0.000255134
   2   H   :    0.000008071   -0.000198819    0.000257973
   3   H   :   -0.000173695    0.000114083    0.000256029
   4   H   :    0.000193484    0.000116190    0.000251968
   5   I   :    0.000000025    0.000000037   -0.000747869
   6   Br  :    0.000002766    0.000003137   -0.000273236

Difference to translation invariance:
           :   -0.0000000000   -0.0000000000   -0.0000000000

Difference to rotation invariance:
           :   -0.0000000015    0.0000000014   -0.0000000000

Norm of the Cartesian gradient     ...    0.0010151448
RMS gradient                       ...    0.0002392719
MAX gradient                       ...    0.0007478688
------------------------------------------------------------------------------
                         ORCA GEOMETRY RELAXATION STEP
------------------------------------------------------------------------------

Reading the OPT-File                    .... done
Getting information on internals        .... done
Copying old internal coords+grads       .... done
Making the new internal coordinates     .... (2022 redundants) done
Validating the new internal coordinates .... (2022 redundants) done
Calculating the B-matrix                .... done
Calculating the G,G- and P matrices     .... done
Transforming gradient to internals      .... done
Projecting the internal gradient        .... done
Number of atoms                         ....   6
Number of internal coordinates          ....  17
Current Energy                          ....   -11.827164548 Eh
Current gradient norm                   ....     0.001015145 Eh/bohr
Maximum allowed component of the step   ....  0.300
Current trust radius                    ....  0.300
Updating the Hessian (BFGS)             .... done
Forming the augmented Hessian           .... done
Diagonalizing the augmented Hessian     .... done
Last element of RFO vector              ....  0.997393797
Lowest eigenvalues of augmented Hessian:
 -0.000029369  0.005502508  0.042405950  0.042420070  0.191174587
Length of the computed step             ....  0.072338473
The final length of the internal step   ....  0.072338473
Converting the step to Cartesian space:
 Initial RMS(Int)=    0.0175446567
Transforming coordinates:
 Iter   0:  RMS(Cart)=    0.0080128602 RMS(Int)=    0.0175492111
done
Storing new coordinates                 .... done
The predicted energy change is          ....    -0.000014761
Previously predicted energy change      ....    -0.000039212
Actually observed energy change         ....    -0.000055385
Ratio of predicted to observed change   ....     1.412465952
New trust radius                        ....     0.300000000

                                .--------------------.
          ----------------------|Geometry convergence|-------------------------
          Item                value                   Tolerance       Converged
          ---------------------------------------------------------------------
          Energy change      -0.0000553854            0.0000050000      NO
          RMS gradient        0.0001348776            0.0001000000      NO
          MAX gradient        0.0002732357            0.0003000000      YES
          RMS step            0.0175446567            0.0020000000      NO
          MAX step            0.0369595211            0.0040000000      NO
          -------------------------------------------------------------------------
          ........................................................
          Max(Bonds)      0.0196      Max(Angles)    0.03
          Max(Dihed)        0.00      Max(Improp)    0.00
          ---------------------------------------------------------------------

The optimization has not yet converged - more geometry cycles are needed


    ---------------------------------------------------------------------------
                         Redundant Internal Coordinates
                            (Angstroem and degrees)

        Definition                    Value    dE/dq     Step     New-Value
    ----------------------------------------------------------------------------
     1. B(H   1,C   0)                1.0803 -0.000103  0.0003    1.0806   
     2. B(H   2,C   0)                1.0803 -0.000112  0.0003    1.0806   
     3. B(H   3,C   0)                1.0803 -0.000130  0.0003    1.0806   
     4. B(I   4,H   2)                3.0292 -0.000226  0.0190    3.0482   
     5. B(I   4,H   3)                3.0291 -0.000226  0.0190    3.0481   
     6. B(I   4,H   1)                3.0292 -0.000226  0.0190    3.0482   
     7. B(I   4,C   0)                3.1720 -0.000110  0.0196    3.1916   
     8. B(Br  5,C   0)                1.9723  0.000273 -0.0010    1.9713   
     9. A(H   1,C   0,H   3)          111.44 -0.000050    0.03    111.46   
    10. A(H   2,C   0,H   3)          111.44 -0.000041    0.02    111.47   
    11. A(H   1,C   0,Br  5)          107.43  0.000050   -0.03    107.40   
    12. A(H   2,C   0,Br  5)          107.43  0.000056   -0.03    107.40   
    13. A(H   3,C   0,Br  5)          107.43  0.000068   -0.03    107.40   
    14. A(H   1,C   0,I   4)           72.57 -0.000058    0.03     72.60   
    15. A(H   2,C   0,I   4)           72.57 -0.000058    0.03     72.60   
    16. A(H   3,C   0,I   4)           72.57 -0.000058    0.03     72.60   
    17. A(H   1,C   0,H   2)          111.43 -0.000069    0.03    111.46   
    ----------------------------------------------------------------------------

Geometry step timings:
Preparation and reading OPT file:      0.000 s ( 2.840 %)
Internal coordinates            :      0.000 s ( 3.526 %)
B/P matrices and projection     :      0.000 s (13.124 %)
Hessian update/contruction      :      0.000 s (30.264 %)
Making the step                 :      0.000 s ( 8.521 %)
Converting the step to Cartesian:      0.000 s ( 2.938 %)
Storing new data                :      0.000 s ( 7.052 %)
Checking convergence            :      0.000 s ( 7.738 %)
Final printing                  :      0.000 s (23.996 %)
Total time                      :      0.001 s

Time for energy+gradient        :      0.113 s
Time for complete geometry iter :      0.115 s

         *************************************************************
         *                GEOMETRY OPTIMIZATION CYCLE   3            *
         *************************************************************
---------------------------------
CARTESIAN COORDINATES (ANGSTROEM)
---------------------------------
  C     0.000028    0.000027   -0.384833
  H     0.000058    1.031183   -0.061752
  H     0.893060   -0.515514   -0.061735
  H    -0.892996   -0.515544   -0.061699
  I    -0.000001   -0.000002    2.806710
  Br    0.000018    0.000017   -2.356130

----------------------------
CARTESIAN COORDINATES (A.U.)
----------------------------
  NO LB    ZA    FRAG    MASS        X           Y           Z
   0 C   6.0000    0    12.011    0.000052    0.000052   -0.727230
   1 H   1.0000    0     1.008    0.000109    1.948654   -0.116694
   2 H   1.0000    0     1.008    1.687639   -0.974180   -0.116662
   3 H   1.0000    0     1.008   -1.687518   -0.974237   -0.116594
   4 I  53.0000    0   126.900   -0.000001   -0.000004    5.303913
   5 Br 35.0000    0    79.900    0.000034    0.000033   -4.452440

      -----------------------------------------------------------      
     |                   =====================                   |     
     |                           x T B                           |     
     |                   =====================                   |     
     |                         S. Grimme                         |     
     |          Mulliken Center for Theoretical Chemistry        |     
     |                    University of Bonn                     |     
      -----------------------------------------------------------      

   * xtb version 6.7.1 (edcfbbe) compiled by 'albert@albert-system' on 2024-07-22

   xtb is free software: you can redistribute it and/or modify it under
   the terms of the GNU Lesser General Public License as published by
   the Free Software Foundation, either version 3 of the License, or
   (at your option) any later version.
   
   xtb is distributed in the hope that it will be useful,
   but WITHOUT ANY WARRANTY; without even the implied warranty of
   MERCHANTABILITY or FITNESS FOR A PARTICULAR PURPOSE.  See the
   GNU Lesser General Public License for more details.
   
   Cite this work as:
   * C. Bannwarth, E. Caldeweyher, S. Ehlert, A. Hansen, P. Pracht,
     J. Seibert, S. Spicher, S. Grimme, WIREs Comput. Mol. Sci., 2020, 11,
     e01493. DOI: 10.1002/wcms.1493
   
   for GFN2-xTB:
   * C. Bannwarth, S. Ehlert and S. Grimme., J. Chem. Theory Comput., 2019,
     15, 1652-1671. DOI: 10.1021/acs.jctc.8b01176
   for GFN1-xTB:
   * S. Grimme, C. Bannwarth, P. Shushkov, J. Chem. Theory Comput., 2017,
     13, 1989-2009. DOI: 10.1021/acs.jctc.7b00118
   for GFN0-xTB:
   * P. Pracht, E. Caldeweyher, S. Ehlert, S. Grimme, ChemRxiv, 2019, preprint.
     DOI: 10.26434/chemrxiv.8326202.v1
   for GFN-FF:
   * S. Spicher and S. Grimme, Angew. Chem. Int. Ed., 2020, 59, 15665-15673.
     DOI: 10.1002/anie.202004239
   
   for ALPB and GBSA implicit solvation:
   * S. Ehlert, M. Stahn, S. Spicher, S. Grimme, J. Chem. Theory Comput.,
     2021, 17, 4250-4261. DOI: 10.1021/acs.jctc.1c00471
   
   for ddCOSMO and CPCM-X implicit solvation:
   * M. Stahn, S. Ehlert, S. Grimme, J. Phys. Chem. A,
     2023, XX, XXXX-XXXX. DOI: 10.1021/acs.jpca.3c04382
   
   for DFT-D4:
   * E. Caldeweyher, C. Bannwarth and S. Grimme, J. Chem. Phys., 2017,
     147, 034112. DOI: 10.1063/1.4993215
   * E. Caldeweyher, S. Ehlert, A. Hansen, H. Neugebauer, S. Spicher,
     C. Bannwarth and S. Grimme, J. Chem. Phys., 2019, 150, 154122.
     DOI: 10.1063/1.5090222
   * E. Caldeweyher, J.-M. Mewes, S. Ehlert and S. Grimme, Phys. Chem. Chem. Phys.
     2020, 22, 8499-8512. DOI: 10.1039/D0CP00502A
   
   for sTDA-xTB:
   * S. Grimme and C. Bannwarth, J. Chem. Phys., 2016, 145, 054103.
     DOI: 10.1063/1.4959605
   
   in the mass-spec context:
   * V. Asgeirsson, C. Bauer and S. Grimme, Chem. Sci., 2017, 8, 4879.
     DOI: 10.1039/c7sc00601b
   * J. Koopman and S. Grimme, ACS Omega 2019, 4, 12, 15120-15133.
     DOI: 10.1021/acsomega.9b02011
   
   for metadynamics refer to:
   * S. Grimme, J. Chem. Theory Comput., 2019, 155, 2847-2862
     DOI: 10.1021/acs.jctc.9b00143
   
   for SPH calculations refer to:
   * S. Spicher and S. Grimme, J. Chem. Theory Comput., 2021, 17, 1701-1714
     DOI: 10.1021/acs.jctc.0c01306
   
   for ONIOM refer to:
   * C. Plett, A. Katbashev, S. Ehlert, S. Grimme, M. Bursch,
     Phys. Chem. Chem. Phys., 2023, 25, 17860-17868. DOI: 10.1039/D3CP02178E
   
   for DIPRO refer to:
   * J. Kohn, N. Gildemeister, S. Grimme, D. Fazzi, A. Hansen,
     J. Chem. Phys., 2023, just accepted.
   
   for PTB refer to:
   * S. Grimme, M. Mueller, A. Hansen, J. Chem. Phys., 2023, 158, 124111.
     DOI: 10.1063/5.0137838
   
   with help from (in alphabetical order)
   P. Atkinson, C. Bannwarth, F. Bohle, G. Brandenburg, E. Caldeweyher
   M. Checinski, S. Dohm, S. Ehlert, S. Ehrlich, I. Gerasimov, C. Hölzer
   A. Katbashev, J. Kohn, J. Koopman, C. Lavigne, S. Lehtola, F. März, M. Müller,
   F. Musil, H. Neugebauer, J. Pisarek, C. Plett, P. Pracht, F. Pultar,
   J. Seibert, P. Shushkov, S. Spicher, M. Stahn, M. Steiner, T. Strunk,
   J. Stückrath, T. Rose, and J. Unsleber
   
 * started run on 2026/03/12 at 12:41:53.282     
   ID    Z sym.   atoms
    1    6 C      1
    2    1 H      2-4
    3   53 I      5
    4   35 Br     6

           -------------------------------------------------
          |                Calculation Setup                |
           -------------------------------------------------

          program call               : /software/orca-6.1.0-el8-x86_64/bin/otool_xtb product_optfreq_XTB.xyz --grad -c -1 -u 0 -P 8 --namespace product_optfreq --input product_optfreq_XTB.input.tmp --acc 0.200000
          hostname                   : midway3-login4.rcc.local
          calculation namespace      : product_optfreq
          coordinate file            : product_optfreq_XTB.xyz
          omp threads                :                     8


molecular fragmentation (1/2 indicates fragments):
111121
# atoms in fragment 1/2:     5     1
 fragment masses (1/2) :       94.94      126.90
CMA distance (Bohr)    :   9.147
constraining FC (au)   :  0.0500

           -------------------------------------------------
          |                 G F N 2 - x T B                 |
           -------------------------------------------------

        Reference                      10.1021/acs.jctc.8b01176
      * Hamiltonian:
        H0-scaling (s, p, d)           1.850000    2.230000    2.230000
        zeta-weighting                 0.500000
      * Dispersion:
        s8                             2.700000
        a1                             0.520000
        a2                             5.000000
        s9                             5.000000
      * Repulsion:
        kExp                           1.500000    1.000000
        rExp                           1.000000
      * Coulomb:
        alpha                          2.000000
        third order                    shell-resolved
        anisotropic                    true
        a3                             3.000000
        a5                             4.000000
        cn-shift                       1.200000
        cn-exp                         4.000000
        max-rad                        5.000000

q/qsh data taken from xtbrestart
CAMM data taken from xtbrestart

          ...................................................
          :                      SETUP                      :
          :.................................................:
          :  # basis functions                  27          :
          :  # atomic orbitals                  25          :
          :  # shells                           11          :
          :  # electrons                        22          :
          :  max. iterations                   250          :
          :  Hamiltonian                  GFN2-xTB          :
          :  restarted?                       true          :
          :  GBSA solvation                  false          :
          :  PC potential                    false          :
          :  electronic temp.          300.0000000     K    :
          :  accuracy                    0.2000000          :
          :  -> integral cutoff          0.3198970E+02      :
          :  -> integral neglect         0.2000000E-08      :
          :  -> SCF convergence          0.2000000E-06 Eh   :
          :  -> wf. convergence          0.2000000E-04 e    :
          :  Broyden damping             0.4000000          :
          :  net charge                         -1          :
          :  unpaired electrons                  0          :
          ...................................................

 iter      E             dE          RMSdq      gap      omega  full diag
   1    -11.8856006 -0.118856E+02  0.164E-01    2.20       0.0  T
   2    -11.8856034 -0.282087E-05  0.763E-02    2.19       1.0  T
   3    -11.8856037 -0.332447E-06  0.180E-02    2.18       2.3  T
   4    -11.8856038 -0.502940E-07  0.922E-03    2.18       4.4  T
   5    -11.8856038 -0.155910E-07  0.480E-03    2.18       8.5  T
   6    -11.8856038 -0.113718E-07  0.512E-04    2.18      79.7  T
   7    -11.8856038 -0.648619E-10  0.208E-04    2.18     196.6  T
   8    -11.8856038 -0.251603E-10  0.131E-04    2.18     312.2  T
   9    -11.8856038 -0.175913E-10  0.476E-05    2.18     858.4  T

   *** convergence criteria satisfied after 9 iterations ***

         #    Occupation            Energy/Eh            Energy/eV
      -------------------------------------------------------------
         1        2.0000           -0.7209034             -19.6168
       ...           ...                  ...                  ...
         5        2.0000           -0.3791247             -10.3165
         6        2.0000           -0.3629138              -9.8754
         7        2.0000           -0.2880862              -7.8392
         8        2.0000           -0.2880856              -7.8392
         9        2.0000           -0.1761963              -4.7945
        10        2.0000           -0.1712488              -4.6599
        11        2.0000           -0.1712488              -4.6599 (HOMO)
        12                         -0.0911621              -2.4806 (LUMO)
        13                          0.1614165               4.3924
        14                          0.1614168               4.3924
        15                          0.1767419               4.8094
        16                          0.1767432               4.8094
       ...                                ...                  ...
        25                          0.4860295              13.2255
      -------------------------------------------------------------
                  HL-Gap            0.0800868 Eh            2.1793 eV
             Fermi-level           -0.1312054 Eh           -3.5703 eV

 SCC (total)                   0 d,  0 h,  0 min,  0.085 sec
 SCC setup                      ...        0 min,  0.000 sec (  0.198%)
 Dispersion                     ...        0 min,  0.000 sec (  0.061%)
 classical contributions        ...        0 min,  0.000 sec (  0.032%)
 integral evaluation            ...        0 min,  0.083 sec ( 97.210%)
 iterations                     ...        0 min,  0.001 sec (  1.662%)
 molecular gradient             ...        0 min,  0.001 sec (  0.694%)
 printout                       ...        0 min,  0.000 sec (  0.127%)

         :::::::::::::::::::::::::::::::::::::::::::::::::::::
         ::                     SUMMARY                     ::
         :::::::::::::::::::::::::::::::::::::::::::::::::::::
         :: total energy             -11.827181317160 Eh    ::
         :: gradient norm              0.000566367344 Eh/a0 ::
         :: HOMO-LUMO gap              2.179271583118 eV    ::
         ::.................................................::
         :: SCC energy               -11.885604722625 Eh    ::
         :: -> isotropic ES            0.146296909832 Eh    ::
         :: -> anisotropic ES         -0.004625862297 Eh    ::
         :: -> anisotropic XC         -0.004921297688 Eh    ::
         :: -> dispersion             -0.003326548062 Eh    ::
         :: repulsion energy           0.058423405465 Eh    ::
         :: add. restraining           0.000000000000 Eh    ::
         :: total charge              -1.000000000000 e     ::
         :::::::::::::::::::::::::::::::::::::::::::::::::::::


Property printout bound to 'properties.out'

           -------------------------------------------------
          | TOTAL ENERGY              -11.827181317160 Eh   |
          | GRADIENT NORM               0.000566367344 Eh/α |
          | HOMO-LUMO GAP               2.179271583118 eV   |
           -------------------------------------------------

------------------------------------------------------------------------
 * finished run on 2026/03/12 at 12:41:53.381     
------------------------------------------------------------------------
 total:
 * wall-time:     0 d,  0 h,  0 min,  0.098 sec
 *  cpu-time:     0 d,  0 h,  0 min,  0.383 sec
 * ratio c/w:     3.916 speedup
 SCF:
 * wall-time:     0 d,  0 h,  0 min,  0.085 sec
 *  cpu-time:     0 d,  0 h,  0 min,  0.331 sec
 * ratio c/w:     3.876 speedup


-------------------------   --------------------
FINAL SINGLE POINT ENERGY       -11.827181317160
-------------------------   --------------------


-------------
DIPOLE MOMENT
-------------
                                X             Y             Z
Total Dipole Moment    :      0.00000       0.00000      -2.75500
                        -----------------------------------------
Magnitude (a.u.)       :      2.75500
Magnitude (Debye)      :      7.00265


------------------
CARTESIAN GRADIENT
------------------

   1   C   :    0.000005147    0.000005770    0.000356323
   2   H   :    0.000003499   -0.000040023    0.000049467
   3   H   :   -0.000026867    0.000021488    0.000051395
   4   H   :    0.000017672    0.000012140    0.000055504
   5   I   :   -0.000000143   -0.000000155   -0.000096823
   6   Br  :    0.000000693    0.000000780   -0.000415865

Difference to translation invariance:
           :    0.0000000000   -0.0000000000    0.0000000000

Difference to rotation invariance:
           :   -0.0000000005    0.0000000004    0.0000000000

Norm of the Cartesian gradient     ...    0.0005663673
RMS gradient                       ...    0.0001334941
MAX gradient                       ...    0.0004158651
------------------------------------------------------------------------------
                         ORCA GEOMETRY RELAXATION STEP
------------------------------------------------------------------------------

Reading the OPT-File                    .... done
Getting information on internals        .... done
Copying old internal coords+grads       .... done
Making the new internal coordinates     .... (2022 redundants) done
Validating the new internal coordinates .... (2022 redundants) done
Calculating the B-matrix                .... done
Calculating the G,G- and P matrices     .... done
Transforming gradient to internals      .... done
Projecting the internal gradient        .... done
Number of atoms                         ....   6
Number of internal coordinates          ....  17
Current Energy                          ....   -11.827181317 Eh
Current gradient norm                   ....     0.000566367 Eh/bohr
Maximum allowed component of the step   ....  0.300
Current trust radius                    ....  0.300
Updating the Hessian (BFGS)             .... done
Forming the augmented Hessian           .... done
Diagonalizing the augmented Hessian     .... done
Last element of RFO vector              ....  0.999900346
Lowest eigenvalues of augmented Hessian:
 -0.000001610  0.004689701  0.042405952  0.042420075  0.190700535
Length of the computed step             ....  0.014118689
The final length of the internal step   ....  0.014118689
Converting the step to Cartesian space:
 Initial RMS(Int)=    0.0034242850
Transforming coordinates:
 Iter   0:  RMS(Cart)=    0.0015429194 RMS(Int)=    0.0034244496
done
Storing new coordinates                 .... done
The predicted energy change is          ....    -0.000000805
Previously predicted energy change      ....    -0.000014761
Actually observed energy change         ....    -0.000016769
Ratio of predicted to observed change   ....     1.136037575
New trust radius                        ....     0.450000000

                                .--------------------.
          ----------------------|Geometry convergence|-------------------------
          Item                value                   Tolerance       Converged
          ---------------------------------------------------------------------
          Energy change      -0.0000167694            0.0000050000      NO
          RMS gradient        0.0001029075            0.0001000000      NO
          MAX gradient        0.0004158650            0.0003000000      NO
          RMS step            0.0034242850            0.0020000000      NO
          MAX step            0.0070511529            0.0040000000      NO
          -------------------------------------------------------------------------
          ........................................................
          Max(Bonds)      0.0037      Max(Angles)    0.01
          Max(Dihed)        0.00      Max(Improp)    0.00
          ---------------------------------------------------------------------

The optimization has not yet converged - more geometry cycles are needed


    ---------------------------------------------------------------------------
                         Redundant Internal Coordinates
                            (Angstroem and degrees)

        Definition                    Value    dE/dq     Step     New-Value
    ----------------------------------------------------------------------------
     1. B(H   1,C   0)                1.0806 -0.000022  0.0001    1.0806   
     2. B(H   2,C   0)                1.0806 -0.000016  0.0001    1.0806   
     3. B(H   3,C   0)                1.0806 -0.000002  0.0000    1.0807   
     4. B(I   4,H   2)                3.0482 -0.000035  0.0037    3.0518   
     5. B(I   4,H   3)                3.0481 -0.000035  0.0037    3.0518   
     6. B(I   4,H   1)                3.0482 -0.000035  0.0037    3.0519   
     7. B(I   4,C   0)                3.1915  0.000002  0.0037    3.1953   
     8. B(Br  5,C   0)                1.9713  0.000416 -0.0011    1.9702   
     9. A(H   1,C   0,H   3)          111.46 -0.000015    0.01    111.47   
    10. A(H   2,C   0,H   3)          111.46 -0.000011    0.01    111.47   
    11. A(H   1,C   0,Br  5)          107.40  0.000016   -0.01    107.39   
    12. A(H   2,C   0,Br  5)          107.40  0.000017   -0.01    107.39   
    13. A(H   3,C   0,Br  5)          107.40  0.000020   -0.01    107.39   
    14. A(H   1,C   0,I   4)           72.60 -0.000017    0.01     72.61   
    15. A(H   2,C   0,I   4)           72.60 -0.000017    0.01     72.61   
    16. A(H   3,C   0,I   4)           72.60 -0.000018    0.01     72.61   
    17. A(H   1,C   0,H   2)          111.46 -0.000023    0.01    111.47   
    ----------------------------------------------------------------------------

Geometry step timings:
Preparation and reading OPT file:      0.000 s ( 3.145 %)
Internal coordinates            :      0.000 s ( 3.471 %)
B/P matrices and projection     :      0.000 s (13.124 %)
Hessian update/contruction      :      0.000 s (28.091 %)
Making the step                 :      0.000 s ( 9.544 %)
Converting the step to Cartesian:      0.000 s ( 2.928 %)
Storing new data                :      0.000 s ( 7.375 %)
Checking convergence            :      0.000 s ( 7.484 %)
Final printing                  :      0.000 s (24.729 %)
Total time                      :      0.001 s

Time for energy+gradient        :      0.105 s
Time for complete geometry iter :      0.107 s

         *************************************************************
         *                GEOMETRY OPTIMIZATION CYCLE   4            *
         *************************************************************
---------------------------------
CARTESIAN COORDINATES (ANGSTROEM)
---------------------------------
  C     0.000034    0.000034   -0.385566
  H     0.000045    1.031294   -0.062622
  H     0.893138   -0.515581   -0.062611
  H    -0.893064   -0.515590   -0.062586
  I    -0.000000   -0.000002    2.809707
  Br    0.000014    0.000012   -2.355761

----------------------------
CARTESIAN COORDINATES (A.U.)
----------------------------
  NO LB    ZA    FRAG    MASS        X           Y           Z
   0 C   6.0000    0    12.011    0.000064    0.000065   -0.728615
   1 H   1.0000    0     1.008    0.000085    1.948863   -0.118338
   2 H   1.0000    0     1.008    1.687787   -0.974306   -0.118317
   3 H   1.0000    0     1.008   -1.687646   -0.974323   -0.118271
[...]
        25                          0.4876984              13.2709
      -------------------------------------------------------------
                  HL-Gap            0.0799915 Eh            2.1767 eV
             Fermi-level           -0.1310387 Eh           -3.5657 eV

 SCC (total)                   0 d,  0 h,  0 min,  0.065 sec
 SCC setup                      ...        0 min,  0.000 sec (  0.248%)
 Dispersion                     ...        0 min,  0.000 sec (  0.086%)
 classical contributions        ...        0 min,  0.000 sec (  0.043%)
 integral evaluation            ...        0 min,  0.063 sec ( 96.870%)
 iterations                     ...        0 min,  0.001 sec (  1.271%)
 molecular gradient             ...        0 min,  0.001 sec (  1.293%)
 printout                       ...        0 min,  0.000 sec (  0.164%)

         :::::::::::::::::::::::::::::::::::::::::::::::::::::
         ::                     SUMMARY                     ::
         :::::::::::::::::::::::::::::::::::::::::::::::::::::
         :: total energy             -11.827182553457 Eh    ::
         :: gradient norm              0.000246265797 Eh/a0 ::
         :: HOMO-LUMO gap              2.176678392607 eV    ::
         ::.................................................::
         :: SCC energy               -11.885630086176 Eh    ::
         :: -> isotropic ES            0.146488744663 Eh    ::
         :: -> anisotropic ES         -0.004646953793 Eh    ::
         :: -> anisotropic XC         -0.005010200858 Eh    ::
         :: -> dispersion             -0.003324324588 Eh    ::
         :: repulsion energy           0.058447532719 Eh    ::
         :: add. restraining           0.000000000000 Eh    ::
         :: total charge              -1.000000000000 e     ::
         :::::::::::::::::::::::::::::::::::::::::::::::::::::

           ------------------------------------------------- 
          |                Numerical Hessian                |
           ------------------------------------------------- 
step length          :   0.00500
SCC accuracy         :   0.30000
Hessian scale factor :   1.00000
frozen atoms in %    :   0.00000    0
RMS gradient         :   0.00025
estimated CPU  time      0.00 min
estimated wall time      0.00 min

writing file <hessian>.

 projected vibrational frequencies (cm⁻¹)
eigval :       -0.00    -0.00    -0.00     0.00     0.00     0.00
eigval :       88.44   103.74   103.75   456.89   949.26   949.29
eigval :     1275.27  1433.66  1433.69  3078.52  3101.68  3101.70

Property printout bound to 'properties.out'
Molecule has the following symmetry elements: (C3) 3*(sigma) 
It seems to be the C3v point group

           -------------------------------------------------
          | TOTAL ENERGY              -11.827182553457 Eh   |
          | TOTAL ENTHALPY            -11.784197248610 Eh   |
          | TOTAL FREE ENERGY         -11.821420249305 Eh   |
          | GRADIENT NORM               0.000246269414 Eh/α |
          | HOMO-LUMO GAP               2.176678461094 eV   |
           -------------------------------------------------

------------------------------------------------------------------------
 * finished run on 2026/03/12 at 12:41:53.681     
------------------------------------------------------------------------
 total:
 * wall-time:     0 d,  0 h,  0 min,  0.099 sec
 *  cpu-time:     0 d,  0 h,  0 min,  0.412 sec
 * ratio c/w:     4.168 speedup
 SCF:
 * wall-time:     0 d,  0 h,  0 min,  0.065 sec
 *  cpu-time:     0 d,  0 h,  0 min,  0.227 sec
 * ratio c/w:     3.470 speedup
 analytical hessian:
 * wall-time:     0 d,  0 h,  0 min,  0.016 sec
 *  cpu-time:     0 d,  0 h,  0 min,  0.128 sec
 * ratio c/w:     7.910 speedup


-------------------------   --------------------
FINAL SINGLE POINT ENERGY       -11.827182553460
-------------------------   --------------------


-------------
DIPOLE MOMENT
-------------
                                X             Y             Z
Total Dipole Moment    :     -0.00000       0.00000      -2.76700
                        -----------------------------------------
Magnitude (a.u.)       :      2.76700
Magnitude (Debye)      :      7.03316


-----------------------
VIBRATIONAL FREQUENCIES
-----------------------

Scaling factor for frequencies =  1.000000000  (already applied!)

     0:       0.00 cm**-1
     1:       0.00 cm**-1
     2:       0.00 cm**-1
     3:       0.00 cm**-1
     4:       0.00 cm**-1
     5:       0.00 cm**-1
     6:      88.44 cm**-1
     7:     103.73 cm**-1
     8:     103.75 cm**-1
     9:     456.89 cm**-1
    10:     949.23 cm**-1
    11:     949.27 cm**-1
    12:    1275.24 cm**-1
    13:    1433.62 cm**-1
    14:    1433.64 cm**-1
    15:    3078.43 cm**-1
    16:    3101.59 cm**-1
    17:    3101.61 cm**-1


------------
NORMAL MODES
------------

These modes are the Cartesian displacements weighted by the diagonal matrix
M(i,i)=1/sqrt(m[i]) where m[i] is the mass of the displaced atom
Thus, these vectors are normalized but *not* orthogonal

                  0          1          2          3          4          5    
      0       0.000000   0.000000   0.000000   0.000000   0.000000   0.000000
      1       0.000000   0.000000   0.000000   0.000000   0.000000   0.000000
      2       0.000000   0.000000   0.000000   0.000000   0.000000   0.000000
      3       0.000000   0.000000   0.000000   0.000000   0.000000   0.000000
      4       0.000000   0.000000   0.000000   0.000000   0.000000   0.000000
      5       0.000000   0.000000   0.000000   0.000000   0.000000   0.000000
      6       0.000000   0.000000   0.000000   0.000000   0.000000   0.000000
      7       0.000000   0.000000   0.000000   0.000000   0.000000   0.000000
      8       0.000000   0.000000   0.000000   0.000000   0.000000   0.000000
      9       0.000000   0.000000   0.000000   0.000000   0.000000   0.000000
     10       0.000000   0.000000   0.000000   0.000000   0.000000   0.000000
     11       0.000000   0.000000   0.000000   0.000000   0.000000   0.000000
     12       0.000000   0.000000   0.000000   0.000000   0.000000   0.000000
     13       0.000000   0.000000   0.000000   0.000000   0.000000   0.000000
     14       0.000000   0.000000   0.000000   0.000000   0.000000   0.000000
     15       0.000000   0.000000   0.000000   0.000000   0.000000   0.000000
     16       0.000000   0.000000   0.000000   0.000000   0.000000   0.000000
     17       0.000000   0.000000   0.000000   0.000000   0.000000   0.000000
                  6          7          8          9         10         11    
      0      -0.000125  -0.422430  -0.019047   0.000014   0.104319  -0.001933
      1      -0.000083   0.019047  -0.422434   0.000012   0.001933   0.104319
      2       0.454549  -0.000005  -0.000001   0.674429  -0.000002  -0.000003
      3      -0.000148  -0.493796  -0.022316   0.000010  -0.246142   0.004570
      4       0.008719   0.022426  -0.497373   0.053679  -0.002790  -0.150607
      5       0.402573  -0.010402   0.230628   0.417388   0.014065   0.758859
      6       0.007489  -0.496589  -0.020836   0.046490  -0.175255  -0.038141
      7      -0.004507   0.023778  -0.494620  -0.026824  -0.045476  -0.221506
      8       0.402562   0.204926  -0.106310   0.417388   0.650158  -0.391600
      9      -0.007787  -0.496457  -0.023888  -0.046472  -0.173740   0.044598
     10      -0.004508   0.020835  -0.494847  -0.026825   0.037239  -0.223043
     11       0.402434  -0.194538  -0.124320   0.417380  -0.664223  -0.367240
     12       0.000007   0.021034   0.000948  -0.000000   0.000139  -0.000003
     13       0.000005  -0.000948   0.021034  -0.000000   0.000003   0.000139
     14      -0.331979   0.000009   0.000007   0.000380   0.000000   0.000000
     15       0.000013   0.048854   0.002203  -0.000002  -0.008394   0.000156
     16       0.000008  -0.002203   0.048854  -0.000002  -0.000156  -0.008394
     17       0.443696  -0.000014  -0.000011  -0.117784   0.000000   0.000000
                 12         13         14         15         16         17    
      0       0.000001  -0.000937   0.072480   0.000014  -0.091477   0.012258
      1      -0.000000   0.072478   0.000938  -0.000038   0.012258   0.091477
      2       0.088953   0.000002  -0.000000   0.035352   0.000009   0.000014
      3      -0.000004   0.009680  -0.748330   0.000004  -0.040840   0.005465
      4       0.173223   0.121269   0.001574  -0.556038  -0.103083  -0.768669
      5      -0.548324  -0.297262  -0.003838  -0.152782  -0.032073  -0.239186
      6       0.150031  -0.375295  -0.101006  -0.482060   0.612963   0.274363
      7      -0.086609  -0.526056  -0.383422   0.278297  -0.372000  -0.114397
      8      -0.548346   0.151950  -0.255485  -0.152969   0.223078   0.091748
      9      -0.150044   0.377781  -0.091251   0.481893   0.519256  -0.426072
     10      -0.086611  -0.535805   0.369682   0.278196   0.328840  -0.208301
     11      -0.548339   0.145277   0.259330  -0.152922  -0.191116   0.147257
     12      -0.000000   0.000000  -0.000007   0.000000   0.000023  -0.000003
     13       0.000000  -0.000007  -0.000000   0.000000  -0.000003  -0.000023
     14       0.000858  -0.000000  -0.000000   0.000089   0.000000   0.000000
     15       0.000000  -0.000013   0.000981   0.000000  -0.000053   0.000007
     16      -0.000000   0.000982   0.000013  -0.000000   0.000007   0.000053
     17       0.006018   0.000000  -0.000000   0.000330   0.000000   0.000000


The first frequency considered to be a vibration is 6
The total number of vibrations considered is 12


--------------------------
THERMOCHEMISTRY AT 298.15K
--------------------------

Temperature         ...   298.15 K
Pressure            ...     1.00 atm
Total Mass          ...   221.84 AMU
Quasi RRHO          ...     True
Cut-Off Frequency   ...     1.00 cm^-1

Throughout the following assumptions are being made:
  (1) The electronic state is orbitally nondegenerate
  (2) There are no thermally accessible electronically excited states
  (3) Hindered rotations indicated by low frequency modes are not
      treated as such but are treated as vibrations and this may
      cause some error
  (4) All equations used are the standard statistical mechanics
      equations for an ideal gas
  (5) All vibrations are strictly harmonic

freq.      88.44  E(vib)   ...       0.48 
freq.     103.73  E(vib)   ...       0.46 
freq.     103.75  E(vib)   ...       0.46 
freq.     456.89  E(vib)   ...       0.16 
freq.     949.23  E(vib)   ...       0.03 
freq.     949.27  E(vib)   ...       0.03 
freq.    1275.24  E(vib)   ...       0.01 
freq.    1433.62  E(vib)   ...       0.00 
freq.    1433.64  E(vib)   ...       0.00 
freq.    3078.43  E(vib)   ...       0.00 
freq.    3101.59  E(vib)   ...       0.00 
freq.    3101.61  E(vib)   ...       0.00 

------------
INNER ENERGY
------------

The inner energy is: U= E(el) + E(ZPE) + E(vib) + E(rot) + E(trans)
    E(el)   - is the total energy from the electronic structure calculation
              = E(kin-el) + E(nuc-el) + E(el-el) + E(nuc-nuc)
    E(ZPE)  - the the zero temperature vibrational energy from the frequency calculation
    E(vib)  - the the finite temperature correction to E(ZPE) due to population
              of excited vibrational states
    E(rot)  - is the rotational thermal energy
    E(trans)- is the translational thermal energy

Summary of contributions to the inner energy U:
Electronic energy                ...    -11.82718255 Eh
Zero point energy                ...      0.03662257 Eh      22.98 kcal/mol
Thermal vibrational correction   ...      0.00258495 Eh       1.62 kcal/mol
Thermal rotational correction    ...      0.00141627 Eh       0.89 kcal/mol
Thermal translational correction ...      0.00141627 Eh       0.89 kcal/mol
-----------------------------------------------------------------------
Total thermal energy                    -11.78514249 Eh


Summary of corrections to the electronic energy:
(perhaps to be used in another calculation)
Total thermal correction                  0.00541750 Eh       3.40 kcal/mol
Non-thermal (ZPE) correction              0.03662257 Eh      22.98 kcal/mol
-----------------------------------------------------------------------
Total correction                          0.04204006 Eh      26.38 kcal/mol


--------
ENTHALPY
--------

The enthalpy is H = U + kB*T
                kB is Boltzmann's constant
Total thermal energy              ...    -11.78514249 Eh 
Thermal Enthalpy correction       ...      0.00094421 Eh       0.59 kcal/mol
-----------------------------------------------------------------------
Total Enthalpy                    ...    -11.78419828 Eh


WARNING (ORCA/SYM): The number of Z matrix atoms does not agree with
the number of centers in the basis set. The point group will therefore
be determined without considering basis set information.


Note: Rotational entropy computed according to Herzberg 
Infrared and Raman Spectra, Chapter V,1, Van Nostrand Reinhold, 1945 
Point Group:  C3v, Symmetry Number:   3  
Rotational constants in cm-1:     5.241754     0.012692     0.012692 

Vibrational entropy computed according to the QRRHO of S. Grimme
Chem.Eur.J. 2012 18 9955 using a reference frequency of 100.0 cm-1


-------
ENTROPY
-------

The entropy contributions are T*S = T*(S(el)+S(vib)+S(rot)+S(trans))
     S(el)   - electronic entropy
     S(vib)  - vibrational entropy
     S(rot)  - rotational entropy
     S(trans)- translational entropy
The entropies will be listed as multiplied by the temperature to get
units of energy

Electronic entropy                ...      0.00000000 Eh      0.00 kcal/mol
Vibrational entropy               ...      0.00501722 Eh      3.15 kcal/mol
Rotational entropy                ...      0.01181447 Eh      7.41 kcal/mol
Translational entropy             ...      0.01999968 Eh     12.55 kcal/mol
-----------------------------------------------------------------------
Final entropy term                ...      0.03683136 Eh     23.11 kcal/mol

In case the symmetry of your molecule has not been determined correctly
or in case you have a reason to use a different symmetry number we print 
out the resulting rotational entropy values for sn=1,12:

 non-linear molecules -----------------------------------
|  sn= 1 | S(rot)=       0.01285176 Eh      8.06 kcal/mol|
|  sn= 2 | S(rot)=       0.01219730 Eh      7.65 kcal/mol|
|  sn= 3 | S(rot)=       0.01181447 Eh      7.41 kcal/mol|
|  sn= 4 | S(rot)=       0.01154284 Eh      7.24 kcal/mol|
|  sn= 5 | S(rot)=       0.01133216 Eh      7.11 kcal/mol|
|  sn= 6 | S(rot)=       0.01116001 Eh      7.00 kcal/mol|
|  sn= 7 | S(rot)=       0.01101446 Eh      6.91 kcal/mol|
|  sn= 8 | S(rot)=       0.01088839 Eh      6.83 kcal/mol|
|  sn= 9 | S(rot)=       0.01077718 Eh      6.76 kcal/mol|
|  sn=10 | S(rot)=       0.01067770 Eh      6.70 kcal/mol|
|  sn=11 | S(rot)=       0.01058771 Eh      6.64 kcal/mol|
|  sn=12 | S(rot)=       0.01050555 Eh      6.59 kcal/mol|
 linear molecules ---------------------------------------
|  Dinfh | S(rot)=       0.00944884 Eh      5.93 kcal/mol|
|  Cinfv | S(rot)=       0.01010330 Eh      6.34 kcal/mol|
 --------------------------------------------------------


-------------------
GIBBS FREE ENERGY
-------------------

The Gibbs free energy is G = H - T*S

Total enthalpy                    ...    -11.78419828 Eh 
Total entropy correction          ...     -0.03683136 Eh    -23.11 kcal/mol
-----------------------------------------------------------------------
Final Gibbs free energy         ...    -11.82102964 Eh

For completeness - the Gibbs free energy minus the electronic energy
G-E(el)                           ...      0.00615291 Eh      3.86 kcal/mol


--------------------------------
SUGGESTED CITATIONS FOR THIS RUN
--------------------------------

Below you find a list of papers that are relevant to this ORCA run
We neither can nor want to force you to cite these papers, but we appreciate if you do
You receive ORCA, which is the product of decades of hard work by many enthusiastic individuals, for free
The only thing we kindly ask in return is that you cite our papers,
We deeply appreciate it, if you show your appreciation for ORCA by not just citing the generic ORCA reference.

Please note that relegating all ORCA citations to the supporting information does *not* help us.
SI sections are not indexed - citations you put there will not count into any citation statistics
But we need these citations in order to attract the funding resources that allow us to do what we are doing

Therefore, if you are a happy ORCA user, please consider citing a few of the papers listed below in the main body of your paper

In addition to the list printed below, the program has created the file product_optfreq.bibtex that contains the list in bibtex format
You can import this file easily into all common literature databanks and citation aid programs


List of essential papers. We consider these as the minimum necessary citations

  1. Bannwarth, C.; Ehlert, S.; Grimme, S.
     GFN2-xTB—An Accurate and Broadly Parametrized Self-Consistent Tight-Binding Quantum Chemical Method with Multipole Electrostatics and Density-Dependent Dispersion Contributions
     J. Chem. Theory Comput. 2019 15(3), 1652-1671
     doi.org/10.1021/acs.jctc.8b01176
  2. Neese, F.
     Software update: the ORCA program system, version 6.0
     WIRES Comput. Molec. Sci. 2025 15(1), e70019
     doi.org/10.1002/wcms.7019

List of papers to cite with high priority. The work reported in these papers was absolutely
necessary for this run to complete.
Our perspective: the developers of density functionals and basis sets usually get cited in chemistry papers
Good! But without the algorithms to do something with them, the functionals or basis sets would not do anything.
Hence, in our opinion, the algorithm design and method developments papers are equally worthy of getting cited

  1. Bykov, D.; Petrenko, T.; Izsak, R.; Kossmann, S.; Becker, U.; Valeev, E.; Neese, F.
     Efficient implementation of the analytic second derivatives of Hartree-Fock and hybrid DFT energies: a detailed analysis of different approximations
     Molec. Phys. 2015 113 , 1961-1977
     doi.org/10.1080/00268976.2015.1025114
  2. Bannwarth, C.; Caldeweyher, E.; Ehlert, S.; Hansen, A.; Pracht, P.; Seibert, J.; Spicher, S.; Grimme, S.
     Extended tight-binding quantum chemistry methods
     WIRES Comput. Molec. Sci. 2020 11(2), e1493
     doi.org/10.1002/wcms.1493

List of suggested additional citations. These are papers that are important in the 'surrounding' of 
of this run, or papers that preceded the highly important papers. If you like your results we are grateful for a citation.

  1. Neese, F.
     The ORCA program system
     WIRES Comput. Molec. Sci. 2012 2(1), 73-78
     doi.org/10.1002/wcms.81
  2. Neese, F.
     Software update: the ORCA program system, version 4.0
     WIRES Comput. Molec. Sci. 2018 8(1), 1-6
     doi.org/10.1002/wcms.1327
  3. Neese, F.; Wennmohs, F.; Becker, U.; Riplinger, C.
     The ORCA quantum chemistry program package
     J. Chem. Phys. 2020 152(22), 224108
     doi.org/10.1063/5.0004608
  4. Neese, F.
     Software update: The ORCA program system—Version 5.0
     WIRES Comput. Molec. Sci. 2022 12(1), e1606
     doi.org/10.1002/wcms.1606

List of optional additional citations

  1. Neese, F.
     Approximate second-order SCF convergence for spin unrestricted wavefunctions
     Chem. Phys. Lett. 2000 325(1-3), 93-98
     doi.org/10.1016/s0009-2614(00)00662-x

Timings for individual modules:

Sum of individual times          ...        0.663 sec (=   0.011 min)
Geometry relaxation              ...        0.008 sec (=   0.000 min)   1.3 %
XTB module                       ...        0.655 sec (=   0.011 min)  98.7 %
                             ****ORCA TERMINATED NORMALLY****
TOTAL RUN TIME: 0 days 0 hours 0 minutes 1 seconds 389 msec
