
                                 *****************
                                 * O   R   C   A *
                                 *****************

                                            #,                                       
                                            ###                                      
                                            ####                                     
                                            #####                                    
                                            ######                                   
                                           ########,                                 
                                     ,,################,,,,,                         
                               ,,#################################,,                 
                          ,,##########################################,,             
                       ,#########################################, ''#####,          
                    ,#############################################,,   '####,        
                  ,##################################################,,,,####,       
                ,###########''''           ''''###############################       
              ,#####''   ,,,,##########,,,,          '''####'''          '####       
            ,##' ,,,,###########################,,,                        '##       
           ' ,,###''''                  '''############,,,                           
         ,,##''                                '''############,,,,        ,,,,,,###''
      ,#''                                            '''#######################'''  
     '                                                          ''''####''''         
             ,#######,   #######,   ,#######,      ##                                
            ,#'     '#,  ##    ##  ,#'     '#,    #''#        ,####,    ,#,          
            ##       ##  ##   ,#'  ##            #'  '#       #'       ,# #          
            ##       ##  #######   ##           ,######,      #####,      #          
            '#,     ,#'  ##    ##  '#,     ,#' ,#      #,     #,   #      #          
             '#######'   ##     ##  '#######'  #'      '#     '####' #    #          



                #########################################################
                #                        -***-                          #
                #          Department of theory and spectroscopy        #
                #                                                       #
                #                      Frank Neese                      #
                #                                                       #
                #     Directorship, Architecture, Infrastructure        #
                #                    SHARK, DRIVERS                     #
                #        Core code/Algorithms in most modules           #
                #                                                       #
                #        Max Planck Institute fuer Kohlenforschung      #
                #                Kaiser Wilhelm Platz 1                 #
                #                 D-45470 Muelheim/Ruhr                 #
                #                      Germany                          #
                #                                                       #
                #                  All rights reserved                  #
                #                        -***-                          #
                #########################################################


                         Program Version 6.1.0  -  RELEASE   -
                                (GIT: $679e74b$)
                          ($2025-06-10 18:02:51 +0200$)


 With contributions from (in alphabetic order):
[Max-Planck-Institut fuer Kohlenforschung]                               
  Daniel Aravena         : Magnetic Suceptibility                        
  Michael Atanasov       : Ab Initio Ligand Field Theory (pilot matlab implementation)
  Alexander A. Auer      : GIAO ZORA, VPT2 properties, NMR spectrum      
  Ute Becker             : All parallelization in ORCA, NUMFREQ, NUMCALC 
  Giovanni Bistoni       : ED, misc. LED, open-shell LED, HFLD           
  Dmytro Bykov           : pre 5.0 version of the SCF Hessian            
  Marcos Casanova-Páez   : Triplet and SCS-CIS(D). UHF-(DLPNO)-IP/EA/STEOM-CCSD. UHF-CVS-IP/STEOM-CCSD   
  Vijay G. Chilkuri      : MRCI spin determinant printing, contributions to CSF-ICE 
  Pauline Colinet        : FMM embedding                                 
  Dipayan Datta          : RHF DLPNO-CCSD density                        
  Achintya Kumar Dutta   : EOM-CC, STEOM-CC                              
  Nicolas Foglia         : Exact transition moments, OPA infrastructure, MCD improvements    
  Dmitry Ganyushin       : Spin-Orbit,Spin-Spin,Magnetic field MRCI      
  Miquel Garcia-Rates    : C-PCM and meta-GGA Hessian, CCSD/C-PCM, Gaussian charge scheme 
  Tiago L. C. Gouveia    : GS-ROHF, GS-ROCIS                             
  Yang Guo               : DLPNO-NEVPT2, F12-NEVPT2, CIM, IAO-localization        
  Andreas Hansen         : Spin unrestricted coupled pair/coupled cluster methods 
  Ingolf Harden          : AUTO-CI MPn and infrastructure                
  Benjamin Helmich-Paris : MC-RPA, TRAH-(SCF,CASSCF), AVAS, COSX integrals, SCF dyn. polar., MC-PDFT, srDFT 
  Lee Huntington         : MR-EOM, pCC                                   
  Robert Izsak           : Overlap fitted RIJCOSX, COSX-SCS-MP3, EOM     
  Riya Kayal             : Wick's Theorem for AUTO-CI, AUTO-CI UHF-CCSDT 
  Emily Kempfer          : AUTO-CI RHF CISDT and CCSDT, approximate NEVPT4
  Christian Kollmar      : KDIIS, OOCD, Brueckner-CCSD(T), CCSD density, CASPT2, CASPT2-K, improved NEVPT2 
  Axel Koslowski         : Symmetry handling                             
  Simone Kossmann        : meta-GGA functionals, TD-DFT gradient, OOMP2, (MP2 Hessian; deprecated post 5.0) 
  Lucas Lang             : DCDCAS, Hyperfine gauge corrections, ICE-SOC+SSC
  Marvin Lechner         : AUTO-CI (C++ implementation), FIC-MRCC        
  Spencer Leger          : CASSCF response                               
  Dagmar Lenk            : GEPOL surface, SMD, ORCA-2-JSON               
  Dimitrios Liakos       : Extrapolation schemes; Compound Job, Property file
  Dimitrios Manganas     : Further ROCIS development; embedding schemes. LFT, Crystal Embedding 
  Dimitrios Pantazis     : SARC Basis sets                               
  Anastasios Papadopoulos: AUTO-CI, single reference methods and gradients 
  Taras Petrenko         : pre 6.0 DFT Hessian and TD-DFT gradient,  ECA, NRVS 
  Petra Pikulova         : Analytic Raman intensities                    
  Peter Pinski           : DLPNO-MP2, DLPNO-MP2 Gradient                 
  Shashank Vittal Rao    : ES-AILFT, MagRelax                            
  Christoph Reimann      : Effective Core Potentials                     
  Marius Retegan         : Local ZFS, SOC                                
  Christoph Riplinger    : Optimizer, TS searches, QM/MM, DLPNO-CCSD(T), (RO)-DLPNO pert. Triples 
  Michael Roemelt        : Original ROCIS implementation, recursive CI coupling coefficients
  Masaaki Saitow         : Open-shell DLPNO-CCSD energy and density      
  Barbara Sandhoefer     : DKH picture change effects                    
  Yorick L. A. Schmerwitz: GMF and freeze-and-release deltaSCF, NEB S-IDPP initial path                    
  Kantharuban Sivalingam : CASSCF convergence/infrastructure, NEVPT2, NEVPT3, NEVPT4(SD), FIC-MRCI and CEPA variants
  Bernardo de Souza      : ESD, SOC TD-DFT                               
  Georgi L. Stoychev     : AutoAux, RI-MP2 NMR, DLPNO-MP2 response, X2C  
  Van Anh Tran           : RI-MP2 g-tensors                              
  Willem Van den Heuvel  : Paramagnetic NMR                              
  Zikuan Wang            : NOTCH, Electric field optimization            
  Frank Wennmohs         : Technical directorship and infrastructure     
  Hang Xu                : AUTO-CI-Response properties                   
                                                                         
[FACCTs GmbH]                                                            
  Markus Bursch, Nicolas Foglia, Miquel Garcia-Rates, Ingolf Harden, Hagen Neugebauer, Anastasios Papadopoulos, 
  Christoph Riplinger, Bernardo de Souza, Georgi L. Stoychev                                                    
                                                                 
  APM, various basis sets, CI-OPT, improved COSX, DLPNO-Multilevel,           
  DOCKER, DRACO, updates on ESD, Fragmentator, GOAT, IRC, LR-CPCM, L-BFGS, MBIS, meta-GGA TD-DFT gradient, ML-optimized integration grids, 
  MM, NACMEs, nearIR, NEB, NEB-TS, NL-DFT gradient (VV10), 2- and 3-layer-ONIOM, interface openCOSMO-RS, QMMM,   
  Crystal-QMMM, RESP, rigid body optimization, SF, symmetry and pop. for TD-DFT, various functionals, SOLVATOR                                   
                                                                         
[Other institutions]                                                     
  V. Asgeirsson          : NEB                                           
  Christoph Bannwarth    : sTDA-DFT, sTD-DFT, PBEh-3c, B97-3c, D3        
  Giovanni Bistoni       : ETS/NOCV, ADLD/ADEX, COVALED                  
  Martin Brehm           : Molecular dynamics                            
  Ronald Cardenas        : ETS/NOCV                                      
  Martina Colucci        : COVALED                                       
  Sebastian Ehlert       : rSCAN, r2SCAN, r2SCAN-3c, D4, dhf basis sets  
  Marvin Friede          : D4 for Fr, Ra, Ac-Lr                          
  Lars Goerigk           : TD-DFT with DH, B97 family of functionals     
  Stefan Grimme          : VdW corrections, initial TS optimization, DFT functionals, gCP, sTDA/sTD-DF 
  Waldemar Hujo          : DFT-NL                                        
  H. Jonsson             : NEB                                           
  Holger Kruse           : gCP                                           
  Marcel Mueller         : wB97X-3c, vDZP basis set                      
  Hagen Neugebauer       : wr2SCAN, Native XTB                           
  Gianluca Regni         : ADLD/ADEX                                     
  Tobias Risthaus        : pre 6.0 range-separated hybrid DFT and stability analysis
  Lukas Wittmann         : regularized MP2, r2SCAN double-hybrids, wr2SCAN        
                                                                         
We gratefully acknowledge several colleagues who have allowed us to      
interface, adapt or use parts of their codes:                            
  Ed Valeev, F. Pavosevic, A. Kumar             : LibInt (2-el integral package), F12 methods 
  Garnet Chan, S. Sharma, J. Yang, R. Olivares  : DMRG                   
  Ulf Ekstrom                                   : XCFun DFT Library      
  Mihaly Kallay                                 : mrcc  (arbitrary order and MRCC methods)
  Frank Weinhold                                : gennbo (NPA and NBO analysis)           
  Simon Mueller                                 : openCOSMO-RS                            
  Christopher J. Cramer and Donald G. Truhlar   : smd solvation model                     
  S Lehtola, MJT Oliveira, MAL Marques          : LibXC Library                           
  Liviu Ungur et al                             : ANISO software                          


 Your calculation uses the libint2 library for the computation of 2-el integrals
 For citations please refer to: http://libint.valeyev.net

 Your ORCA version has been built with support for libXC version: 7.0.0
 For citations please refer to: https://libxc.gitlab.io

 This ORCA versions uses:
   CBLAS   interface :  Fast vector & matrix operations
   LAPACKE interface :  Fast linear algebra routines
   SCALAPACK package :  Parallel linear algebra routines
   Shared memory     :  Shared parallel matrices
   BLAS/LAPACK       :  OpenBLAS 0.3.29  USE64BITINT DYNAMIC_ARCH NO_AFFINITY SkylakeX SINGLE_THREADED
        Core in use  :  SkylakeX
   Copyright (c) 2011-2014, The OpenBLAS Project


  ***********************************
  * Starting time: Mon Mar 16 14:19:25 2026
  * Host name:     midway3-login4.rcc.local
  * Process ID:    126129
  * Working dir.:  /home/rzhu16/evans-polanyi-principle-validation/runs/sn2_i_br/geo_opt_reactant_product
  ***********************************

Your calculation utilizes the semiempirical GFN2-xTB method
Please cite in your paper:
Bannwarth, C.; Ehlert S.; Grimme, S. J. Chem. Theory Comput. 2019, 15, 1652.
   

================================================================================

cite the ECPs for I  [Def2-ECP] as follows:
Ce-Yb(ecp-28): M. Dolg, H. Stoll, H.Preuss, J. Chem. Phys., 1989, 90, 1730-1734.
Y-Cd(ecp-28), Hf-Hg(ecp-46): D. Andrae,U. Haeussermann, M. Dolg, H. Stoll, H. Preuss, Theor. Chim. Acta, 1990, 77, 123-141.
In-Sb(ecp-28), Tl-Bi(ecp-46): B. Metz, H. Stoll, M. Dolg, J. Chem. Phys., 2000, 113, 2563-2569.
Te-Xe(ecp-28), Po-Rn(ecp-46): K. A. Peterson, D. Figgen, E. Goll, H. Stoll, M. Dolg, J. Chem. Phys., 2003, 119, 11113-11123.
Rb(ecp-28), Cs(ecp-46): T. Leininger, A. Nicklass, W. Kuechle, H. Stoll, M. Dolg, A. Bergner, Chem. Phys. Lett., 1996, 255, 274-280.
Sr(ecp-28), Ba(ecp-46): M. Kaupp, P. V. Schleyer, H. Stoll and H. Preuss, J. Chem. Phys., 1991, 94, 1360-1366.
La(ecp-46): M. Dolg, H. Stoll, A. Savin, H. Preuss, Theor. Chim. Acta, 1989, 75, 173-194.
Lu(ecp-28): X. Cao, M. Dolg, J. Chem. Phys., 2001, 115, 7348-7355.

ECP parameters for I  [Def2-ECP] have been obtained from:
TURBOMOLE (7.0.2)

================================================================================
                                        WARNINGS
                       Please study these warnings very carefully!
================================================================================


WARNING: Analytical Hessian for XTB is limited in the analysis of the data.
       : If you want to obtain extensive IR and deltaG analysis, please use ! XTB NumFreq. 


WARNING: Geometry Optimization
  ===> : Switching off AutoStart
         For restart on a previous wavefunction, please use MOREAD

WARNING: Found dipole moment calculation with XTB calculation
  ===> : Switching off dipole moment calculation


WARNING: Found frequency calculation in combination with XTB calculation
  ===> : Need to redirect dipole moment calculation to properties.out


================================================================================
                                       INPUT FILE
================================================================================
NAME = product_optfreq.inp
|  1> ! XTB2 Opt Freq PAL8
|  2> 
|  3> %geom
|  4>   MaxIter 500
|  5> end
|  6> 
|  7> * xyz -1 1
|  8>   C      -0.000027     -0.000446      0.317022
|  9>   H      -0.000000      1.031139      0.002822
| 10>   H       0.892677     -0.515401      0.002942
| 11>   H      -0.892652     -0.515386      0.002951
| 12>   I       0.000003      0.000018      2.519140
| 13>   Br     -0.000001     -0.000006     -2.627773
| 14> *
| 15> 
| 16>                          ****END OF INPUT****
================================================================================

                       *****************************
                       * Geometry Optimization Run *
                       *****************************

Geometry optimization settings:
Update method            Update   .... BFGS
Choice of coordinates    CoordSys .... (2022) Redundant Internals
Initial Hessian          InHess   .... Almloef's Model
Max. no of cycles        MaxIter  .... 500

Convergence Tolerances:
Energy Change            TolE     ....  5.0000e-06 Eh
Max. Gradient            TolMAXG  ....  3.0000e-04 Eh/bohr
RMS Gradient             TolRMSG  ....  1.0000e-04 Eh/bohr
Max. Displacement        TolMAXD  ....  4.0000e-03 bohr
RMS Displacement         TolRMSD  ....  2.0000e-03 bohr
Strict Convergence                .... False

------------------------------------------------------------------------------
                        ORCA OPTIMIZATION COORDINATE SETUP
------------------------------------------------------------------------------

The optimization will be done in redundant internal coordinates (2022)
Making redundant internal coordinates   ...  (2022 redundants) done
Evaluating the initial hessian          ...  (Almloef) done
Evaluating the coordinates              ...  done
Calculating the B-matrix                .... done
Calculating the G-matrix                .... done
The number of degrees of freedom        ....   17

    -----------------------------------------------------------------
                    Redundant Internal Coordinates


    -----------------------------------------------------------------
         Definition                    Initial Value    Approx d2E/dq
    -----------------------------------------------------------------
      1. B(H   1,C   0)                  1.0784         0.375814   
      2. B(H   2,C   0)                  1.0774         0.377189   
      3. B(H   3,C   0)                  1.0773         0.377293   
      4. B(I   4,C   0)                  2.2021         0.106304   
      5. B(Br  5,H   2)                  2.8254         0.010000   
      6. B(Br  5,H   1)                  2.8255         0.010000   
      7. B(Br  5,H   3)                  2.8254         0.010000   
      8. B(Br  5,C   0)                  2.9448         0.010000   
      9. A(H   1,C   0,H   3)          111.8593         0.294963   
     10. A(H   2,C   0,H   3)          111.9065         0.295133   
     11. A(H   1,C   0,I   4)          106.9276         0.282967   
     12. A(H   2,C   0,I   4)          106.9545         0.283128   
     13. A(H   3,C   0,I   4)          106.9565         0.283140   
     14. A(H   1,C   0,Br  5)           73.0518         0.193603   
     15. A(H   2,C   0,Br  5)           73.0547         0.193689   
     16. A(H   3,C   0,Br  5)           73.0549         0.193696   
     17. A(H   1,C   0,H   2)          111.8558         0.294950   
    -----------------------------------------------------------------

Number of atoms                         .... 6
Number of degrees of freedom            .... 17


         *************************************************************
         *                GEOMETRY OPTIMIZATION CYCLE   1            *
         *************************************************************
---------------------------------
CARTESIAN COORDINATES (ANGSTROEM)
---------------------------------
  C    -0.000027   -0.000446    0.317022
  H    -0.000000    1.031139    0.002822
  H     0.892677   -0.515401    0.002942
  H    -0.892652   -0.515386    0.002951
  I     0.000003    0.000018    2.519140
  Br   -0.000001   -0.000006   -2.627773

----------------------------
CARTESIAN COORDINATES (A.U.)
----------------------------
  NO LB    ZA    FRAG    MASS        X           Y           Z
   0 C   6.0000    0    12.011   -0.000051   -0.000843    0.599085
   1 H   1.0000    0     1.008   -0.000000    1.948570    0.005333
   2 H   1.0000    0     1.008    1.686915   -0.973967    0.005560
   3 H   1.0000    0     1.008   -1.686868   -0.973938    0.005577
   4 I  53.0000    0   126.900    0.000006    0.000034    4.760485
   5 Br 35.0000    0    79.900   -0.000002   -0.000011   -4.965771

      -----------------------------------------------------------      
     |                   =====================                   |     
     |                           x T B                           |     
     |                   =====================                   |     
     |                         S. Grimme                         |     
     |          Mulliken Center for Theoretical Chemistry        |     
     |                    University of Bonn                     |     
      -----------------------------------------------------------      

   * xtb version 6.7.1 (edcfbbe) compiled by 'albert@albert-system' on 2024-07-22

   xtb is free software: you can redistribute it and/or modify it under
   the terms of the GNU Lesser General Public License as published by
   the Free Software Foundation, either version 3 of the License, or
   (at your option) any later version.
   
   xtb is distributed in the hope that it will be useful,
   but WITHOUT ANY WARRANTY; without even the implied warranty of
   MERCHANTABILITY or FITNESS FOR A PARTICULAR PURPOSE.  See the
   GNU Lesser General Public License for more details.
   
   Cite this work as:
   * C. Bannwarth, E. Caldeweyher, S. Ehlert, A. Hansen, P. Pracht,
     J. Seibert, S. Spicher, S. Grimme, WIREs Comput. Mol. Sci., 2020, 11,
     e01493. DOI: 10.1002/wcms.1493
   
   for GFN2-xTB:
   * C. Bannwarth, S. Ehlert and S. Grimme., J. Chem. Theory Comput., 2019,
     15, 1652-1671. DOI: 10.1021/acs.jctc.8b01176
   for GFN1-xTB:
   * S. Grimme, C. Bannwarth, P. Shushkov, J. Chem. Theory Comput., 2017,
     13, 1989-2009. DOI: 10.1021/acs.jctc.7b00118
   for GFN0-xTB:
   * P. Pracht, E. Caldeweyher, S. Ehlert, S. Grimme, ChemRxiv, 2019, preprint.
     DOI: 10.26434/chemrxiv.8326202.v1
   for GFN-FF:
   * S. Spicher and S. Grimme, Angew. Chem. Int. Ed., 2020, 59, 15665-15673.
     DOI: 10.1002/anie.202004239
   
   for ALPB and GBSA implicit solvation:
   * S. Ehlert, M. Stahn, S. Spicher, S. Grimme, J. Chem. Theory Comput.,
     2021, 17, 4250-4261. DOI: 10.1021/acs.jctc.1c00471
   
   for ddCOSMO and CPCM-X implicit solvation:
   * M. Stahn, S. Ehlert, S. Grimme, J. Phys. Chem. A,
     2023, XX, XXXX-XXXX. DOI: 10.1021/acs.jpca.3c04382
   
   for DFT-D4:
   * E. Caldeweyher, C. Bannwarth and S. Grimme, J. Chem. Phys., 2017,
     147, 034112. DOI: 10.1063/1.4993215
   * E. Caldeweyher, S. Ehlert, A. Hansen, H. Neugebauer, S. Spicher,
     C. Bannwarth and S. Grimme, J. Chem. Phys., 2019, 150, 154122.
     DOI: 10.1063/1.5090222
   * E. Caldeweyher, J.-M. Mewes, S. Ehlert and S. Grimme, Phys. Chem. Chem. Phys.
     2020, 22, 8499-8512. DOI: 10.1039/D0CP00502A
   
   for sTDA-xTB:
   * S. Grimme and C. Bannwarth, J. Chem. Phys., 2016, 145, 054103.
     DOI: 10.1063/1.4959605
   
   in the mass-spec context:
   * V. Asgeirsson, C. Bauer and S. Grimme, Chem. Sci., 2017, 8, 4879.
     DOI: 10.1039/c7sc00601b
   * J. Koopman and S. Grimme, ACS Omega 2019, 4, 12, 15120-15133.
     DOI: 10.1021/acsomega.9b02011
   
   for metadynamics refer to:
   * S. Grimme, J. Chem. Theory Comput., 2019, 155, 2847-2862
     DOI: 10.1021/acs.jctc.9b00143
   
   for SPH calculations refer to:
   * S. Spicher and S. Grimme, J. Chem. Theory Comput., 2021, 17, 1701-1714
     DOI: 10.1021/acs.jctc.0c01306
   
   for ONIOM refer to:
   * C. Plett, A. Katbashev, S. Ehlert, S. Grimme, M. Bursch,
     Phys. Chem. Chem. Phys., 2023, 25, 17860-17868. DOI: 10.1039/D3CP02178E
   
   for DIPRO refer to:
   * J. Kohn, N. Gildemeister, S. Grimme, D. Fazzi, A. Hansen,
     J. Chem. Phys., 2023, just accepted.
   
   for PTB refer to:
   * S. Grimme, M. Mueller, A. Hansen, J. Chem. Phys., 2023, 158, 124111.
     DOI: 10.1063/5.0137838
   
   with help from (in alphabetical order)
   P. Atkinson, C. Bannwarth, F. Bohle, G. Brandenburg, E. Caldeweyher
   M. Checinski, S. Dohm, S. Ehlert, S. Ehrlich, I. Gerasimov, C. Hölzer
   A. Katbashev, J. Kohn, J. Koopman, C. Lavigne, S. Lehtola, F. März, M. Müller,
   F. Musil, H. Neugebauer, J. Pisarek, C. Plett, P. Pracht, F. Pultar,
   J. Seibert, P. Shushkov, S. Spicher, M. Stahn, M. Steiner, T. Strunk,
   J. Stückrath, T. Rose, and J. Unsleber
   
 * started run on 2026/03/16 at 14:19:25.785     
   ID    Z sym.   atoms
    1    6 C      1
    2    1 H      2-4
    3   53 I      5
    4   35 Br     6

           -------------------------------------------------
          |                Calculation Setup                |
           -------------------------------------------------

          program call               : /software/orca-6.1.0-el8-x86_64/bin/otool_xtb product_optfreq_XTB.xyz --grad -c -1 -u 0 -P 8 --namespace product_optfreq --input product_optfreq_XTB.input.tmp --acc 0.200000
          hostname                   : midway3-login4.rcc.local
          calculation namespace      : product_optfreq
          coordinate file            : product_optfreq_XTB.xyz
          omp threads                :                     8


molecular fragmentation (1/2 indicates fragments):
111112
# atoms in fragment 1/2:     5     1
 fragment masses (1/2) :      141.94       79.90
CMA distance (Bohr)    :   9.273
constraining FC (au)   :  0.0500

           -------------------------------------------------
          |                 G F N 2 - x T B                 |
           -------------------------------------------------

        Reference                      10.1021/acs.jctc.8b01176
      * Hamiltonian:
        H0-scaling (s, p, d)           1.850000    2.230000    2.230000
        zeta-weighting                 0.500000
      * Dispersion:
        s8                             2.700000
        a1                             0.520000
        a2                             5.000000
        s9                             5.000000
      * Repulsion:
        kExp                           1.500000    1.000000
        rExp                           1.000000
      * Coulomb:
        alpha                          2.000000
        third order                    shell-resolved
        anisotropic                    true
        a3                             3.000000
        a5                             4.000000
        cn-shift                       1.200000
        cn-exp                         4.000000
        max-rad                        5.000000


          ...................................................
          :                      SETUP                      :
          :.................................................:
          :  # basis functions                  27          :
          :  # atomic orbitals                  25          :
          :  # shells                           11          :
          :  # electrons                        22          :
          :  max. iterations                   250          :
          :  Hamiltonian                  GFN2-xTB          :
          :  restarted?                      false          :
          :  GBSA solvation                  false          :
          :  PC potential                    false          :
          :  electronic temp.          300.0000000     K    :
          :  accuracy                    0.2000000          :
          :  -> integral cutoff          0.3198970E+02      :
          :  -> integral neglect         0.2000000E-08      :
          :  -> SCF convergence          0.2000000E-06 Eh   :
          :  -> wf. convergence          0.2000000E-04 e    :
          :  Broyden damping             0.4000000          :
          :  net charge                         -1          :
          :  unpaired electrons                  0          :
          ...................................................

 iter      E             dE          RMSdq      gap      omega  full diag
   1    -11.8649857 -0.118650E+02  0.121E+01    4.91       0.0  T
   2    -11.8823113 -0.173257E-01  0.500E+00    2.99       1.0  T
   3    -11.8860506 -0.373926E-02  0.177E+00    1.83       1.0  T
   4    -11.8862922 -0.241638E-03  0.128E+00    2.17       1.0  T
   5    -11.8867966 -0.504361E-03  0.498E-01    1.90       1.0  T
   6    -11.8868749 -0.782980E-04  0.165E-01    1.82       1.0  T
   7    -11.8868855 -0.105784E-04  0.136E-01    1.84       1.0  T
   8    -11.8868960 -0.105634E-04  0.218E-02    1.87       1.9  T
   9    -11.8868961 -0.974219E-07  0.173E-02    1.88       2.4  T
  10    -11.8868962 -0.716502E-07  0.130E-02    1.87       3.1  T
  11    -11.8868965 -0.254516E-06  0.673E-04    1.88      60.6  T
  12    -11.8868965  0.315129E-09  0.791E-04    1.88      51.6  T
  13    -11.8868965 -0.146455E-08  0.421E-05    1.88     968.7  T
  14    -11.8868965 -0.219558E-11  0.839E-06    1.88    4864.8  T

   *** convergence criteria satisfied after 14 iterations ***

         #    Occupation            Energy/Eh            Energy/eV
      -------------------------------------------------------------
         1        2.0000           -0.6040670             -16.4375
       ...           ...                  ...                  ...
         5        2.0000           -0.3635474              -9.8926
         6        2.0000           -0.3429802              -9.3330
         7        2.0000           -0.2797095              -7.6113
         8        2.0000           -0.2797022              -7.6111
         9        2.0000           -0.1737878              -4.7290
        10        2.0000           -0.1679833              -4.5711
        11        2.0000           -0.1679831              -4.5711 (HOMO)
        12                         -0.0990367              -2.6949 (LUMO)
        13                          0.1643765               4.4729
        14                          0.1644123               4.4739
        15                          0.1898860               5.1671
        16                          0.1899012               5.1675
       ...                                ...                  ...
        25                          0.4640833              12.6284
      -------------------------------------------------------------
                  HL-Gap            0.0689464 Eh            1.8761 eV
             Fermi-level           -0.1335099 Eh           -3.6330 eV

 SCC (total)                   0 d,  0 h,  0 min,  0.055 sec
 SCC setup                      ...        0 min,  0.000 sec (  0.364%)
 Dispersion                     ...        0 min,  0.000 sec (  0.112%)
 classical contributions        ...        0 min,  0.000 sec (  0.072%)
 integral evaluation            ...        0 min,  0.052 sec ( 94.242%)
 iterations                     ...        0 min,  0.002 sec (  3.757%)
 molecular gradient             ...        0 min,  0.001 sec (  1.127%)
 printout                       ...        0 min,  0.000 sec (  0.294%)

         :::::::::::::::::::::::::::::::::::::::::::::::::::::
         ::                     SUMMARY                     ::
         :::::::::::::::::::::::::::::::::::::::::::::::::::::
         :: total energy             -11.826742053360 Eh    ::
         :: gradient norm              0.001832618813 Eh/a0 ::
         :: HOMO-LUMO gap              1.876127087697 eV    ::
         ::.................................................::
         :: SCC energy               -11.886897415593 Eh    ::
         :: -> isotropic ES            0.152245965441 Eh    ::
         :: -> anisotropic ES         -0.005714045349 Eh    ::
         :: -> anisotropic XC         -0.001349502317 Eh    ::
         :: -> dispersion             -0.003295137480 Eh    ::
         :: repulsion energy           0.060155362233 Eh    ::
         :: add. restraining           0.000000000000 Eh    ::
         :: total charge              -1.000000000000 e     ::
         :::::::::::::::::::::::::::::::::::::::::::::::::::::


Property printout bound to 'properties.out'

           -------------------------------------------------
          | TOTAL ENERGY              -11.826742053360 Eh   |
          | GRADIENT NORM               0.001832618813 Eh/α |
          | HOMO-LUMO GAP               1.876127087697 eV   |
           -------------------------------------------------

------------------------------------------------------------------------
 * finished run on 2026/03/16 at 14:19:25.855     
------------------------------------------------------------------------
 total:
 * wall-time:     0 d,  0 h,  0 min,  0.070 sec
 *  cpu-time:     0 d,  0 h,  0 min,  0.426 sec
 * ratio c/w:     6.059 speedup
 SCF:
 * wall-time:     0 d,  0 h,  0 min,  0.056 sec
 *  cpu-time:     0 d,  0 h,  0 min,  0.353 sec
 * ratio c/w:     6.346 speedup


-------------------------   --------------------
FINAL SINGLE POINT ENERGY       -11.826742053360
-------------------------   --------------------


-------------
DIPOLE MOMENT
-------------
                                X             Y             Z
Total Dipole Moment    :     -0.00000      -0.00000       2.00800
                        -----------------------------------------
Magnitude (a.u.)       :      2.00800
Magnitude (Debye)      :      5.10393


------------------
CARTESIAN GRADIENT
------------------

   1   C   :   -0.000041671   -0.000658206   -0.000726477
   2   H   :    0.000001451    0.000540116   -0.000421829
   3   H   :   -0.000027658    0.000040505   -0.000252644
   4   H   :    0.000066848    0.000061455   -0.000239852
   5   I   :    0.000000853    0.000013292    0.000347234
   6   Br  :    0.000000177    0.000002837    0.001293568

Difference to translation invariance:
           :   -0.0000000000    0.0000000000   -0.0000000000

Difference to rotation invariance:
           :    0.0000000002   -0.0000000005   -0.0000000000

Norm of the Cartesian gradient     ...    0.0018326188
RMS gradient                       ...    0.0004319524
MAX gradient                       ...    0.0012935680
------------------------------------------------------------------------------
                         ORCA GEOMETRY RELAXATION STEP
------------------------------------------------------------------------------

Reading the OPT-File                    .... done
Getting information on internals        .... done
Copying old internal coords+grads       .... done
Making the new internal coordinates     .... (2022 redundants) done
Validating the new internal coordinates .... (2022 redundants) done
Calculating the B-matrix                .... done
Calculating the G,G- and P matrices     .... done
Transforming gradient to internals      .... done
Projecting the internal gradient        .... done
Number of atoms                         ....   6
Number of internal coordinates          ....  17
Current Energy                          ....   -11.826742053 Eh
Current gradient norm                   ....     0.001832619 Eh/bohr
Maximum allowed component of the step   ....  0.300
Current trust radius                    ....  0.300
Evaluating the initial hessian          ....  (Almloef) done
Projecting the Hessian                  .... done
Forming the augmented Hessian           .... done
Diagonalizing the augmented Hessian     .... done
Last element of RFO vector              ....  0.997699526
Lowest eigenvalues of augmented Hessian:
 -0.000048695  0.010046247  0.045811639  0.045859458  0.106305222
Length of the computed step             ....  0.067947571
The final length of the internal step   ....  0.067947571
Converting the step to Cartesian space:
 Initial RMS(Int)=    0.0164797066
Transforming coordinates:
 Iter   0:  RMS(Cart)=    0.0076427550 RMS(Int)=    0.0164860114
done
Storing new coordinates                 .... done

                                .--------------------.
          ----------------------|Geometry convergence|-------------------------
          Item                value                   Tolerance       Converged
          ---------------------------------------------------------------------
          RMS gradient        0.0002489230            0.0001000000      NO
          MAX gradient        0.0006633247            0.0003000000      NO
          RMS step            0.0164797066            0.0020000000      NO
          MAX step            0.0361496028            0.0040000000      NO
          -------------------------------------------------------------------------
          ........................................................
          Max(Bonds)      0.0191      Max(Angles)    0.02
          Max(Dihed)        0.00      Max(Improp)    0.00
          ---------------------------------------------------------------------

The optimization has not yet converged - more geometry cycles are needed


    ---------------------------------------------------------------------------
                         Redundant Internal Coordinates
                            (Angstroem and degrees)

        Definition                    Value    dE/dq     Step     New-Value
    ----------------------------------------------------------------------------
     1. B(H   1,C   0)                1.0784  0.000663 -0.0009    1.0774   
     2. B(H   2,C   0)                1.0774  0.000055 -0.0001    1.0773   
     3. B(H   3,C   0)                1.0773  0.000009 -0.0000    1.0773   
     4. B(I   4,C   0)                2.2021  0.000347 -0.0017    2.2004   
     5. B(Br  5,H   2)                2.8254 -0.000308  0.0175    2.8430   
     6. B(Br  5,H   1)                2.8255 -0.000305  0.0175    2.8430   
     7. B(Br  5,H   3)                2.8254 -0.000308  0.0175    2.8430   
     8. B(Br  5,C   0)                2.9448 -0.000436  0.0191    2.9639   
     9. A(H   1,C   0,H   3)          111.86  0.000021   -0.01    111.85   
    10. A(H   2,C   0,H   3)          111.91  0.000067   -0.02    111.89   
    11. A(H   1,C   0,I   4)          106.93 -0.000076    0.02    106.95   
    12. A(H   2,C   0,I   4)          106.95 -0.000023    0.01    106.96   
    13. A(H   3,C   0,I   4)          106.96 -0.000019    0.01    106.97   
    14. A(H   1,C   0,Br  5)           73.05  0.000024   -0.01     73.04   
    15. A(H   2,C   0,Br  5)           73.05  0.000046   -0.01     73.04   
    16. A(H   3,C   0,Br  5)           73.05  0.000048   -0.01     73.04   
    17. A(H   1,C   0,H   2)          111.86  0.000018   -0.01    111.85   
    ----------------------------------------------------------------------------

Geometry step timings:
Preparation and reading OPT file:      0.000 s ( 2.736 %)
Internal coordinates            :      0.000 s ( 3.713 %)
B/P matrices and projection     :      0.000 s (11.075 %)
Hessian update/contruction      :      0.001 s (33.290 %)
Making the step                 :      0.000 s (10.619 %)
Converting the step to Cartesian:      0.000 s ( 3.779 %)
Storing new data                :      0.000 s ( 6.580 %)
Checking convergence            :      0.000 s ( 5.081 %)
Final printing                  :      0.000 s (22.932 %)
Total time                      :      0.002 s

Time for energy+gradient        :      0.081 s
Time for complete geometry iter :      0.085 s

         *************************************************************
         *                GEOMETRY OPTIMIZATION CYCLE   2            *
         *************************************************************
---------------------------------
CARTESIAN COORDINATES (ANGSTROEM)
---------------------------------
  C    -0.000012   -0.000203    0.320566
  H     0.000010    1.030402    0.006364
  H     0.892529   -0.515152    0.006289
  H    -0.892531   -0.515164    0.006283
  I     0.000005    0.000055    2.520956
  Br   -0.000002   -0.000021   -2.643354

----------------------------
CARTESIAN COORDINATES (A.U.)
----------------------------
  NO LB    ZA    FRAG    MASS        X           Y           Z
   0 C   6.0000    0    12.011   -0.000022   -0.000383    0.605781
   1 H   1.0000    0     1.008    0.000019    1.947177    0.012027
   2 H   1.0000    0     1.008    1.686636   -0.973496    0.011884
   3 H   1.0000    0     1.008   -1.686640   -0.973519    0.011873
   4 I  53.0000    0   126.900    0.000010    0.000105    4.763916
   5 Br 35.0000    0    79.900   -0.000004   -0.000039   -4.995214

      -----------------------------------------------------------      
     |                   =====================                   |     
     |                           x T B                           |     
     |                   =====================                   |     
     |                         S. Grimme                         |     
     |          Mulliken Center for Theoretical Chemistry        |     
     |                    University of Bonn                     |     
      -----------------------------------------------------------      

   * xtb version 6.7.1 (edcfbbe) compiled by 'albert@albert-system' on 2024-07-22

   xtb is free software: you can redistribute it and/or modify it under
   the terms of the GNU Lesser General Public License as published by
   the Free Software Foundation, either version 3 of the License, or
   (at your option) any later version.
   
   xtb is distributed in the hope that it will be useful,
   but WITHOUT ANY WARRANTY; without even the implied warranty of
   MERCHANTABILITY or FITNESS FOR A PARTICULAR PURPOSE.  See the
   GNU Lesser General Public License for more details.
   
   Cite this work as:
   * C. Bannwarth, E. Caldeweyher, S. Ehlert, A. Hansen, P. Pracht,
     J. Seibert, S. Spicher, S. Grimme, WIREs Comput. Mol. Sci., 2020, 11,
     e01493. DOI: 10.1002/wcms.1493
   
   for GFN2-xTB:
   * C. Bannwarth, S. Ehlert and S. Grimme., J. Chem. Theory Comput., 2019,
     15, 1652-1671. DOI: 10.1021/acs.jctc.8b01176
   for GFN1-xTB:
   * S. Grimme, C. Bannwarth, P. Shushkov, J. Chem. Theory Comput., 2017,
     13, 1989-2009. DOI: 10.1021/acs.jctc.7b00118
   for GFN0-xTB:
   * P. Pracht, E. Caldeweyher, S. Ehlert, S. Grimme, ChemRxiv, 2019, preprint.
     DOI: 10.26434/chemrxiv.8326202.v1
   for GFN-FF:
   * S. Spicher and S. Grimme, Angew. Chem. Int. Ed., 2020, 59, 15665-15673.
     DOI: 10.1002/anie.202004239
   
   for ALPB and GBSA implicit solvation:
   * S. Ehlert, M. Stahn, S. Spicher, S. Grimme, J. Chem. Theory Comput.,
     2021, 17, 4250-4261. DOI: 10.1021/acs.jctc.1c00471
   
   for ddCOSMO and CPCM-X implicit solvation:
   * M. Stahn, S. Ehlert, S. Grimme, J. Phys. Chem. A,
     2023, XX, XXXX-XXXX. DOI: 10.1021/acs.jpca.3c04382
   
   for DFT-D4:
   * E. Caldeweyher, C. Bannwarth and S. Grimme, J. Chem. Phys., 2017,
     147, 034112. DOI: 10.1063/1.4993215
   * E. Caldeweyher, S. Ehlert, A. Hansen, H. Neugebauer, S. Spicher,
     C. Bannwarth and S. Grimme, J. Chem. Phys., 2019, 150, 154122.
     DOI: 10.1063/1.5090222
   * E. Caldeweyher, J.-M. Mewes, S. Ehlert and S. Grimme, Phys. Chem. Chem. Phys.
     2020, 22, 8499-8512. DOI: 10.1039/D0CP00502A
   
   for sTDA-xTB:
   * S. Grimme and C. Bannwarth, J. Chem. Phys., 2016, 145, 054103.
     DOI: 10.1063/1.4959605
   
   in the mass-spec context:
   * V. Asgeirsson, C. Bauer and S. Grimme, Chem. Sci., 2017, 8, 4879.
     DOI: 10.1039/c7sc00601b
   * J. Koopman and S. Grimme, ACS Omega 2019, 4, 12, 15120-15133.
     DOI: 10.1021/acsomega.9b02011
   
   for metadynamics refer to:
   * S. Grimme, J. Chem. Theory Comput., 2019, 155, 2847-2862
     DOI: 10.1021/acs.jctc.9b00143
   
   for SPH calculations refer to:
   * S. Spicher and S. Grimme, J. Chem. Theory Comput., 2021, 17, 1701-1714
     DOI: 10.1021/acs.jctc.0c01306
   
   for ONIOM refer to:
   * C. Plett, A. Katbashev, S. Ehlert, S. Grimme, M. Bursch,
     Phys. Chem. Chem. Phys., 2023, 25, 17860-17868. DOI: 10.1039/D3CP02178E
   
   for DIPRO refer to:
   * J. Kohn, N. Gildemeister, S. Grimme, D. Fazzi, A. Hansen,
     J. Chem. Phys., 2023, just accepted.
   
   for PTB refer to:
   * S. Grimme, M. Mueller, A. Hansen, J. Chem. Phys., 2023, 158, 124111.
     DOI: 10.1063/5.0137838
   
   with help from (in alphabetical order)
   P. Atkinson, C. Bannwarth, F. Bohle, G. Brandenburg, E. Caldeweyher
   M. Checinski, S. Dohm, S. Ehlert, S. Ehrlich, I. Gerasimov, C. Hölzer
   A. Katbashev, J. Kohn, J. Koopman, C. Lavigne, S. Lehtola, F. März, M. Müller,
   F. Musil, H. Neugebauer, J. Pisarek, C. Plett, P. Pracht, F. Pultar,
   J. Seibert, P. Shushkov, S. Spicher, M. Stahn, M. Steiner, T. Strunk,
   J. Stückrath, T. Rose, and J. Unsleber
   
 * started run on 2026/03/16 at 14:19:25.868     
   ID    Z sym.   atoms
    1    6 C      1
    2    1 H      2-4
    3   53 I      5
    4   35 Br     6

           -------------------------------------------------
          |                Calculation Setup                |
           -------------------------------------------------

          program call               : /software/orca-6.1.0-el8-x86_64/bin/otool_xtb product_optfreq_XTB.xyz --grad -c -1 -u 0 -P 8 --namespace product_optfreq --input product_optfreq_XTB.input.tmp --acc 0.200000
          hostname                   : midway3-login4.rcc.local
          calculation namespace      : product_optfreq
          coordinate file            : product_optfreq_XTB.xyz
          omp threads                :                     8


molecular fragmentation (1/2 indicates fragments):
111112
# atoms in fragment 1/2:     5     1
 fragment masses (1/2) :      141.94       79.90
CMA distance (Bohr)    :   9.306
constraining FC (au)   :  0.0500

           -------------------------------------------------
          |                 G F N 2 - x T B                 |
           -------------------------------------------------

        Reference                      10.1021/acs.jctc.8b01176
      * Hamiltonian:
        H0-scaling (s, p, d)           1.850000    2.230000    2.230000
        zeta-weighting                 0.500000
      * Dispersion:
        s8                             2.700000
        a1                             0.520000
        a2                             5.000000
        s9                             5.000000
      * Repulsion:
        kExp                           1.500000    1.000000
        rExp                           1.000000
      * Coulomb:
        alpha                          2.000000
        third order                    shell-resolved
        anisotropic                    true
        a3                             3.000000
        a5                             4.000000
        cn-shift                       1.200000
        cn-exp                         4.000000
        max-rad                        5.000000

q/qsh data taken from xtbrestart
CAMM data taken from xtbrestart

          ...................................................
          :                      SETUP                      :
          :.................................................:
          :  # basis functions                  27          :
          :  # atomic orbitals                  25          :
          :  # shells                           11          :
          :  # electrons                        22          :
          :  max. iterations                   250          :
          :  Hamiltonian                  GFN2-xTB          :
          :  restarted?                       true          :
          :  GBSA solvation                  false          :
          :  PC potential                    false          :
          :  electronic temp.          300.0000000     K    :
          :  accuracy                    0.2000000          :
          :  -> integral cutoff          0.3198970E+02      :
          :  -> integral neglect         0.2000000E-08      :
          :  -> SCF convergence          0.2000000E-06 Eh   :
          :  -> wf. convergence          0.2000000E-04 e    :
          :  Broyden damping             0.4000000          :
          :  net charge                         -1          :
          :  unpaired electrons                  0          :
          ...................................................

 iter      E             dE          RMSdq      gap      omega  full diag
   1    -11.8871271 -0.118871E+02  0.114E-01    1.86       0.0  T
   2    -11.8871334 -0.635409E-05  0.459E-02    1.84       1.0  T
   3    -11.8871338 -0.337209E-06  0.218E-02    1.84       1.9  T
   4    -11.8871338 -0.695048E-07  0.138E-02    1.84       3.0  T
   5    -11.8871339 -0.852330E-07  0.733E-03    1.84       5.6  T
   6    -11.8871339 -0.349636E-07  0.162E-03    1.84      25.2  T
   7    -11.8871339 -0.935781E-09  0.446E-04    1.84      91.6  T
   8    -11.8871339 -0.300915E-10  0.354E-04    1.84     115.4  T
   9    -11.8871339 -0.433253E-10  0.682E-05    1.84     598.9  T
  10    -11.8871339 -0.964562E-12  0.583E-06    1.84    7004.6  T

   *** convergence criteria satisfied after 10 iterations ***

         #    Occupation            Energy/Eh            Energy/eV
      -------------------------------------------------------------
         1        2.0000           -0.6051428             -16.4668
       ...           ...                  ...                  ...
         5        2.0000           -0.3643351              -9.9141
         6        2.0000           -0.3439470              -9.3593
         7        2.0000           -0.2805969              -7.6354
         8        2.0000           -0.2805920              -7.6353
         9        2.0000           -0.1729915              -4.7073
        10        2.0000           -0.1673338              -4.5534
        11        2.0000           -0.1673336              -4.5534 (HOMO)
        12                         -0.0998499              -2.7171 (LUMO)
        13                          0.1631541               4.4396
        14                          0.1631678               4.4400
        15                          0.1888307               5.1383
        16                          0.1888377               5.1385
       ...                                ...                  ...
        25                          0.4642145              12.6319
      -------------------------------------------------------------
                  HL-Gap            0.0674837 Eh            1.8363 eV
             Fermi-level           -0.1335917 Eh           -3.6352 eV

 SCC (total)                   0 d,  0 h,  0 min,  0.022 sec
 SCC setup                      ...        0 min,  0.000 sec (  0.952%)
 Dispersion                     ...        0 min,  0.000 sec (  0.291%)
 classical contributions        ...        0 min,  0.000 sec (  0.177%)
 integral evaluation            ...        0 min,  0.019 sec ( 87.665%)
 iterations                     ...        0 min,  0.002 sec (  7.427%)
 molecular gradient             ...        0 min,  0.001 sec (  2.742%)
 printout                       ...        0 min,  0.000 sec (  0.644%)

         :::::::::::::::::::::::::::::::::::::::::::::::::::::
         ::                     SUMMARY                     ::
         :::::::::::::::::::::::::::::::::::::::::::::::::::::
         :: total energy             -11.826778333676 Eh    ::
         :: gradient norm              0.001325216281 Eh/a0 ::
         :: HOMO-LUMO gap              1.836324631694 eV    ::
         ::.................................................::
         :: SCC energy               -11.887134930618 Eh    ::
         :: -> isotropic ES            0.152803681723 Eh    ::
         :: -> anisotropic ES         -0.005691346525 Eh    ::
         :: -> anisotropic XC         -0.001379313714 Eh    ::
         :: -> dispersion             -0.003283845057 Eh    ::
         :: repulsion energy           0.060356596942 Eh    ::
         :: add. restraining           0.000000000000 Eh    ::
         :: total charge              -1.000000000000 e     ::
         :::::::::::::::::::::::::::::::::::::::::::::::::::::


Property printout bound to 'properties.out'

           -------------------------------------------------
          | TOTAL ENERGY              -11.826778333676 Eh   |
          | GRADIENT NORM               0.001325216281 Eh/α |
          | HOMO-LUMO GAP               1.836324631694 eV   |
           -------------------------------------------------

------------------------------------------------------------------------
 * finished run on 2026/03/16 at 14:19:25.919     
------------------------------------------------------------------------
 total:
 * wall-time:     0 d,  0 h,  0 min,  0.050 sec
 *  cpu-time:     0 d,  0 h,  0 min,  0.224 sec
 * ratio c/w:     4.471 speedup
 SCF:
 * wall-time:     0 d,  0 h,  0 min,  0.022 sec
 *  cpu-time:     0 d,  0 h,  0 min,  0.159 sec
 * ratio c/w:     7.118 speedup


-------------------------   --------------------
FINAL SINGLE POINT ENERGY       -11.826778333680
-------------------------   --------------------


-------------
DIPOLE MOMENT
-------------
                                X             Y             Z
Total Dipole Moment    :     -0.00000      -0.00000       2.05600
                        -----------------------------------------
Magnitude (a.u.)       :      2.05600
Magnitude (Debye)      :      5.22594


------------------
CARTESIAN GRADIENT
------------------

   1   C   :   -0.000008386   -0.000133305   -0.001037591
   2   H   :    0.000002289   -0.000071730   -0.000032002
   3   H   :   -0.000102378    0.000097267   -0.000013124
   4   H   :    0.000107838    0.000097777   -0.000011742
   5   I   :    0.000000601    0.000009378    0.000460233
   6   Br  :    0.000000036    0.000000613    0.000634226

Difference to translation invariance:
           :    0.0000000000    0.0000000000    0.0000000000

Difference to rotation invariance:
           :   -0.0000000005    0.0000000023   -0.0000000000

Norm of the Cartesian gradient     ...    0.0013252163
RMS gradient                       ...    0.0003123565
MAX gradient                       ...    0.0010375913
------------------------------------------------------------------------------
                         ORCA GEOMETRY RELAXATION STEP
------------------------------------------------------------------------------

Reading the OPT-File                    .... done
Getting information on internals        .... done
Copying old internal coords+grads       .... done
Making the new internal coordinates     .... (2022 redundants) done
Validating the new internal coordinates .... (2022 redundants) done
Calculating the B-matrix                .... done
Calculating the G,G- and P matrices     .... done
Transforming gradient to internals      .... done
Projecting the internal gradient        .... done
Number of atoms                         ....   6
Number of internal coordinates          ....  17
Current Energy                          ....   -11.826778334 Eh
Current gradient norm                   ....     0.001325216 Eh/bohr
Maximum allowed component of the step   ....  0.300
Current trust radius                    ....  0.300
Updating the Hessian (BFGS)             .... done
Forming the augmented Hessian           .... done
Diagonalizing the augmented Hessian     .... done
Last element of RFO vector              ....  0.997291534
Lowest eigenvalues of augmented Hessian:
 -0.000029171  0.004989849  0.045811614  0.045859457  0.104516441
Length of the computed step             ....  0.073749710
The final length of the internal step   ....  0.073749710
Converting the step to Cartesian space:
 Initial RMS(Int)=    0.0178869319
Transforming coordinates:
 Iter   0:  RMS(Cart)=    0.0081193356 RMS(Int)=    0.0178931159
done
Storing new coordinates                 .... done
The predicted energy change is          ....    -0.000014665
Previously predicted energy change      ....    -0.000024460
Actually observed energy change         ....    -0.000036280
Ratio of predicted to observed change   ....     1.483250795
New trust radius                        ....     0.300000000

                                .--------------------.
          ----------------------|Geometry convergence|-------------------------
          Item                value                   Tolerance       Converged
          ---------------------------------------------------------------------
          Energy change      -0.0000362803            0.0000050000      NO
          RMS gradient        0.0001530289            0.0001000000      NO
          MAX gradient        0.0004602339            0.0003000000      NO
          RMS step            0.0178869319            0.0020000000      NO
          MAX step            0.0395328451            0.0040000000      NO
          -------------------------------------------------------------------------
          ........................................................
          Max(Bonds)      0.0209      Max(Angles)    0.05
          Max(Dihed)        0.00      Max(Improp)    0.00
          ---------------------------------------------------------------------

The optimization has not yet converged - more geometry cycles are needed


    ---------------------------------------------------------------------------
                         Redundant Internal Coordinates
                            (Angstroem and degrees)

        Definition                    Value    dE/dq     Step     New-Value
    ----------------------------------------------------------------------------
     1. B(H   1,C   0)                1.0774 -0.000049  0.0000    1.0775   
     2. B(H   2,C   0)                1.0773 -0.000118  0.0003    1.0776   
     3. B(H   3,C   0)                1.0773 -0.000123  0.0003    1.0776   
     4. B(I   4,C   0)                2.2004  0.000460 -0.0047    2.1957   
     5. B(Br  5,H   2)                2.8430 -0.000133  0.0188    2.8618   
     6. B(Br  5,H   1)                2.8430 -0.000133  0.0188    2.8618   
     7. B(Br  5,H   3)                2.8430 -0.000133  0.0188    2.8618   
     8. B(Br  5,C   0)                2.9639 -0.000262  0.0209    2.9848   
     9. A(H   1,C   0,H   3)          111.85  0.000031   -0.02    111.83   
    10. A(H   2,C   0,H   3)          111.89  0.000101   -0.05    111.84   
    11. A(H   1,C   0,I   4)          106.95 -0.000084    0.05    107.00   
    12. A(H   2,C   0,I   4)          106.96 -0.000047    0.03    107.00   
    13. A(H   3,C   0,I   4)          106.97 -0.000044    0.03    107.00   
    14. A(H   1,C   0,Br  5)           73.04  0.000056   -0.04     73.01   
    15. A(H   2,C   0,Br  5)           73.04  0.000059   -0.04     73.00   
    16. A(H   3,C   0,Br  5)           73.04  0.000059   -0.04     73.00   
    17. A(H   1,C   0,H   2)          111.85  0.000026   -0.02    111.82   
    ----------------------------------------------------------------------------

Geometry step timings:
Preparation and reading OPT file:      0.000 s ( 2.745 %)
Internal coordinates            :      0.000 s ( 3.451 %)
B/P matrices and projection     :      0.000 s (11.529 %)
Hessian update/contruction      :      0.000 s (28.941 %)
Making the step                 :      0.000 s ( 8.392 %)
Converting the step to Cartesian:      0.000 s ( 2.824 %)
Storing new data                :      0.000 s ( 8.549 %)
Checking convergence            :      0.000 s ( 8.706 %)
Final printing                  :      0.000 s (24.863 %)
Total time                      :      0.001 s

Time for energy+gradient        :      0.060 s
Time for complete geometry iter :      0.084 s

         *************************************************************
         *                GEOMETRY OPTIMIZATION CYCLE   3            *
         *************************************************************
---------------------------------
CARTESIAN COORDINATES (ANGSTROEM)
---------------------------------
  C     0.000001    0.000004    0.325207
  H     0.000007    1.030413    0.010263
  H     0.892517   -0.515194    0.010198
  H    -0.892520   -0.515204    0.010194
  I    -0.000000   -0.000029    2.520864
  Br   -0.000005   -0.000072   -2.659622

----------------------------
CARTESIAN COORDINATES (A.U.)
----------------------------
  NO LB    ZA    FRAG    MASS        X           Y           Z
   0 C   6.0000    0    12.011    0.000003    0.000008    0.614552
   1 H   1.0000    0     1.008    0.000014    1.947198    0.019395
   2 H   1.0000    0     1.008    1.686613   -0.973576    0.019272
   3 H   1.0000    0     1.008   -1.686619   -0.973594    0.019263
   4 I  53.0000    0   126.900   -0.000000   -0.000055    4.763743
   5 Br 35.0000    0    79.900   -0.000010   -0.000136   -5.025958

      -----------------------------------------------------------      
     |                   =====================                   |     
     |                           x T B                           |     
     |                   =====================                   |     
     |                         S. Grimme                         |     
     |          Mulliken Center for Theoretical Chemistry        |     
     |                    University of Bonn                     |     
      -----------------------------------------------------------      

   * xtb version 6.7.1 (edcfbbe) compiled by 'albert@albert-system' on 2024-07-22

   xtb is free software: you can redistribute it and/or modify it under
   the terms of the GNU Lesser General Public License as published by
   the Free Software Foundation, either version 3 of the License, or
   (at your option) any later version.
   
   xtb is distributed in the hope that it will be useful,
   but WITHOUT ANY WARRANTY; without even the implied warranty of
   MERCHANTABILITY or FITNESS FOR A PARTICULAR PURPOSE.  See the
   GNU Lesser General Public License for more details.
   
   Cite this work as:
   * C. Bannwarth, E. Caldeweyher, S. Ehlert, A. Hansen, P. Pracht,
     J. Seibert, S. Spicher, S. Grimme, WIREs Comput. Mol. Sci., 2020, 11,
     e01493. DOI: 10.1002/wcms.1493
   
   for GFN2-xTB:
   * C. Bannwarth, S. Ehlert and S. Grimme., J. Chem. Theory Comput., 2019,
     15, 1652-1671. DOI: 10.1021/acs.jctc.8b01176
   for GFN1-xTB:
   * S. Grimme, C. Bannwarth, P. Shushkov, J. Chem. Theory Comput., 2017,
     13, 1989-2009. DOI: 10.1021/acs.jctc.7b00118
   for GFN0-xTB:
   * P. Pracht, E. Caldeweyher, S. Ehlert, S. Grimme, ChemRxiv, 2019, preprint.
     DOI: 10.26434/chemrxiv.8326202.v1
   for GFN-FF:
   * S. Spicher and S. Grimme, Angew. Chem. Int. Ed., 2020, 59, 15665-15673.
     DOI: 10.1002/anie.202004239
   
   for ALPB and GBSA implicit solvation:
   * S. Ehlert, M. Stahn, S. Spicher, S. Grimme, J. Chem. Theory Comput.,
     2021, 17, 4250-4261. DOI: 10.1021/acs.jctc.1c00471
   
   for ddCOSMO and CPCM-X implicit solvation:
   * M. Stahn, S. Ehlert, S. Grimme, J. Phys. Chem. A,
     2023, XX, XXXX-XXXX. DOI: 10.1021/acs.jpca.3c04382
   
   for DFT-D4:
   * E. Caldeweyher, C. Bannwarth and S. Grimme, J. Chem. Phys., 2017,
     147, 034112. DOI: 10.1063/1.4993215
   * E. Caldeweyher, S. Ehlert, A. Hansen, H. Neugebauer, S. Spicher,
     C. Bannwarth and S. Grimme, J. Chem. Phys., 2019, 150, 154122.
     DOI: 10.1063/1.5090222
   * E. Caldeweyher, J.-M. Mewes, S. Ehlert and S. Grimme, Phys. Chem. Chem. Phys.
     2020, 22, 8499-8512. DOI: 10.1039/D0CP00502A
   
   for sTDA-xTB:
   * S. Grimme and C. Bannwarth, J. Chem. Phys., 2016, 145, 054103.
     DOI: 10.1063/1.4959605
   
   in the mass-spec context:
   * V. Asgeirsson, C. Bauer and S. Grimme, Chem. Sci., 2017, 8, 4879.
     DOI: 10.1039/c7sc00601b
   * J. Koopman and S. Grimme, ACS Omega 2019, 4, 12, 15120-15133.
     DOI: 10.1021/acsomega.9b02011
   
   for metadynamics refer to:
   * S. Grimme, J. Chem. Theory Comput., 2019, 155, 2847-2862
     DOI: 10.1021/acs.jctc.9b00143
   
   for SPH calculations refer to:
   * S. Spicher and S. Grimme, J. Chem. Theory Comput., 2021, 17, 1701-1714
     DOI: 10.1021/acs.jctc.0c01306
   
   for ONIOM refer to:
   * C. Plett, A. Katbashev, S. Ehlert, S. Grimme, M. Bursch,
     Phys. Chem. Chem. Phys., 2023, 25, 17860-17868. DOI: 10.1039/D3CP02178E
   
   for DIPRO refer to:
   * J. Kohn, N. Gildemeister, S. Grimme, D. Fazzi, A. Hansen,
     J. Chem. Phys., 2023, just accepted.
   
   for PTB refer to:
   * S. Grimme, M. Mueller, A. Hansen, J. Chem. Phys., 2023, 158, 124111.
     DOI: 10.1063/5.0137838
   
   with help from (in alphabetical order)
   P. Atkinson, C. Bannwarth, F. Bohle, G. Brandenburg, E. Caldeweyher
   M. Checinski, S. Dohm, S. Ehlert, S. Ehrlich, I. Gerasimov, C. Hölzer
   A. Katbashev, J. Kohn, J. Koopman, C. Lavigne, S. Lehtola, F. März, M. Müller,
   F. Musil, H. Neugebauer, J. Pisarek, C. Plett, P. Pracht, F. Pultar,
   J. Seibert, P. Shushkov, S. Spicher, M. Stahn, M. Steiner, T. Strunk,
   J. Stückrath, T. Rose, and J. Unsleber
   
 * started run on 2026/03/16 at 14:19:25.952     
   ID    Z sym.   atoms
    1    6 C      1
    2    1 H      2-4
    3   53 I      5
    4   35 Br     6

           -------------------------------------------------
          |                Calculation Setup                |
           -------------------------------------------------

          program call               : /software/orca-6.1.0-el8-x86_64/bin/otool_xtb product_optfreq_XTB.xyz --grad -c -1 -u 0 -P 8 --namespace product_optfreq --input product_optfreq_XTB.input.tmp --acc 0.200000
          hostname                   : midway3-login4.rcc.local
          calculation namespace      : product_optfreq
          coordinate file            : product_optfreq_XTB.xyz
          omp threads                :                     8


molecular fragmentation (1/2 indicates fragments):
111112
# atoms in fragment 1/2:     5     1
 fragment masses (1/2) :      141.94       79.90
CMA distance (Bohr)    :   9.338
constraining FC (au)   :  0.0500

           -------------------------------------------------
          |                 G F N 2 - x T B                 |
           -------------------------------------------------

        Reference                      10.1021/acs.jctc.8b01176
      * Hamiltonian:
        H0-scaling (s, p, d)           1.850000    2.230000    2.230000
        zeta-weighting                 0.500000
      * Dispersion:
        s8                             2.700000
        a1                             0.520000
        a2                             5.000000
        s9                             5.000000
      * Repulsion:
        kExp                           1.500000    1.000000
        rExp                           1.000000
      * Coulomb:
        alpha                          2.000000
        third order                    shell-resolved
        anisotropic                    true
        a3                             3.000000
        a5                             4.000000
        cn-shift                       1.200000
        cn-exp                         4.000000
        max-rad                        5.000000

q/qsh data taken from xtbrestart
CAMM data taken from xtbrestart

          ...................................................
          :                      SETUP                      :
          :.................................................:
          :  # basis functions                  27          :
          :  # atomic orbitals                  25          :
          :  # shells                           11          :
          :  # electrons                        22          :
          :  max. iterations                   250          :
          :  Hamiltonian                  GFN2-xTB          :
          :  restarted?                       true          :
          :  GBSA solvation                  false          :
          :  PC potential                    false          :
          :  electronic temp.          300.0000000     K    :
          :  accuracy                    0.2000000          :
          :  -> integral cutoff          0.3198970E+02      :
          :  -> integral neglect         0.2000000E-08      :
          :  -> SCF convergence          0.2000000E-06 Eh   :
          :  -> wf. convergence          0.2000000E-04 e    :
          :  Broyden damping             0.4000000          :
          :  net charge                         -1          :
          :  unpaired electrons                  0          :
          ...................................................

 iter      E             dE          RMSdq      gap      omega  full diag
   1    -11.8871966 -0.118872E+02  0.142E-01    1.84       0.0  T
   2    -11.8872074 -0.107661E-04  0.480E-02    1.81       1.0  T
   3    -11.8872079 -0.469074E-06  0.237E-02    1.80       1.7  T
   4    -11.8872079 -0.794522E-07  0.156E-02    1.80       2.6  T
   5    -11.8872080 -0.104568E-06  0.885E-03    1.80       4.6  T
   6    -11.8872081 -0.478768E-07  0.179E-03    1.80      22.8  T
   7    -11.8872081 -0.106136E-08  0.367E-04    1.80     111.1  T
   8    -11.8872081 -0.475016E-10  0.221E-04    1.80     184.4  T
   9    -11.8872081 -0.143316E-10  0.528E-05    1.80     773.1  T
  10    -11.8872081 -0.921929E-12  0.964E-06    1.80    4232.9  T

   *** convergence criteria satisfied after 10 iterations ***

         #    Occupation            Energy/Eh            Energy/eV
      -------------------------------------------------------------
         1        2.0000           -0.6065784             -16.5058
       ...           ...                  ...                  ...
         5        2.0000           -0.3652412              -9.9387
         6        2.0000           -0.3452692              -9.3953
         7        2.0000           -0.2817001              -7.6655
         8        2.0000           -0.2816994              -7.6654
         9        2.0000           -0.1719543              -4.6791
        10        2.0000           -0.1664881              -4.5304
        11        2.0000           -0.1664880              -4.5304 (HOMO)
        12                         -0.1002333              -2.7275 (LUMO)
        13                          0.1614615               4.3936
        14                          0.1614622               4.3936
        15                          0.1875859               5.1045
        16                          0.1875868               5.1045
       ...                                ...                  ...
        25                          0.4663920              12.6912
      -------------------------------------------------------------
                  HL-Gap            0.0662547 Eh            1.8029 eV
             Fermi-level           -0.1333607 Eh           -3.6289 eV

 SCC (total)                   0 d,  0 h,  0 min,  0.032 sec
 SCC setup                      ...        0 min,  0.000 sec (  0.591%)
 Dispersion                     ...        0 min,  0.000 sec (  0.282%)
 classical contributions        ...        0 min,  0.000 sec (  0.111%)
 integral evaluation            ...        0 min,  0.030 sec ( 91.554%)
 iterations                     ...        0 min,  0.002 sec (  5.063%)
 molecular gradient             ...        0 min,  0.001 sec (  1.842%)
 printout                       ...        0 min,  0.000 sec (  0.505%)

         :::::::::::::::::::::::::::::::::::::::::::::::::::::
         ::                     SUMMARY                     ::
         :::::::::::::::::::::::::::::::::::::::::::::::::::::
         :: total energy             -11.826794468727 Eh    ::
         :: gradient norm              0.000886063686 Eh/a0 ::
         :: HOMO-LUMO gap              1.802880799677 eV    ::
         ::.................................................::
         :: SCC energy               -11.887209098092 Eh    ::
         :: -> isotropic ES            0.153553447739 Eh    ::
         :: -> anisotropic ES         -0.005707090566 Eh    ::
         :: -> anisotropic XC         -0.001475761437 Eh    ::
         :: -> dispersion             -0.003273116456 Eh    ::
         :: repulsion energy           0.060414629365 Eh    ::
         :: add. restraining           0.000000000000 Eh    ::
         :: total charge              -1.000000000000 e     ::
         :::::::::::::::::::::::::::::::::::::::::::::::::::::


Property printout bound to 'properties.out'

           -------------------------------------------------
          | TOTAL ENERGY              -11.826794468727 Eh   |
          | GRADIENT NORM               0.000886063686 Eh/α |
          | HOMO-LUMO GAP               1.802880799677 eV   |
           -------------------------------------------------

------------------------------------------------------------------------
 * finished run on 2026/03/16 at 14:19:26.003     
------------------------------------------------------------------------
 total:
 * wall-time:     0 d,  0 h,  0 min,  0.051 sec
 *  cpu-time:     0 d,  0 h,  0 min,  0.296 sec
 * ratio c/w:     5.828 speedup
 SCF:
 * wall-time:     0 d,  0 h,  0 min,  0.033 sec
 *  cpu-time:     0 d,  0 h,  0 min,  0.231 sec
 * ratio c/w:     7.116 speedup


-------------------------   --------------------
FINAL SINGLE POINT ENERGY       -11.826794468730
-------------------------   --------------------


-------------
DIPOLE MOMENT
-------------
                                X             Y             Z
Total Dipole Moment    :      0.00000       0.00000       2.11400
                        -----------------------------------------
Magnitude (a.u.)       :      2.11400
Magnitude (Debye)      :      5.37336


------------------
CARTESIAN GRADIENT
------------------

   1   C   :    0.000004823    0.000076374   -0.000773869
   2   H   :    0.000000923   -0.000081473    0.000254083
   3   H   :    0.000018133    0.000004827    0.000229405
   4   H   :   -0.000023866    0.000000451    0.000227525
   5   I   :    0.000000024    0.000000359    0.000000689
   6   Br  :   -0.000000037   -0.000000539    0.000062167

Difference to translation invariance:
           :   -0.0000000000    0.0000000000    0.0000000000

Difference to rotation invariance:
           :    0.0000000009    0.0000000019   -0.0000000000

Norm of the Cartesian gradient     ...    0.0008860637
RMS gradient                       ...    0.0002088472
MAX gradient                       ...    0.0007738693
------------------------------------------------------------------------------
                         ORCA GEOMETRY RELAXATION STEP
------------------------------------------------------------------------------

Reading the OPT-File                    .... done
Getting information on internals        .... done
Copying old internal coords+grads       .... done
Making the new internal coordinates     .... (2022 redundants) done
Validating the new internal coordinates .... (2022 redundants) done
Calculating the B-matrix                .... done
Calculating the G,G- and P matrices     .... done
Transforming gradient to internals      .... done
Projecting the internal gradient        .... done
Number of atoms                         ....   6
Number of internal coordinates          ....  17
Current Energy                          ....   -11.826794469 Eh
Current gradient norm                   ....     0.000886064 Eh/bohr
Maximum allowed component of the step   ....  0.300
Current trust radius                    ....  0.300
Updating the Hessian (BFGS)             .... done
Forming the augmented Hessian           .... done
Diagonalizing the augmented Hessian     .... done
Last element of RFO vector              ....  0.999922265
Lowest eigenvalues of augmented Hessian:
 -0.000001678  0.004357505  0.045811666  0.045859458  0.104826268
Length of the computed step             ....  0.012469512
The final length of the internal step   ....  0.012469512
Converting the step to Cartesian space:
 Initial RMS(Int)=    0.0030243009
Transforming coordinates:
 Iter   0:  RMS(Cart)=    0.0014358068 RMS(Int)=    0.0030244958
done
Storing new coordinates                 .... done
The predicted energy change is          ....    -0.000000839
Previously predicted energy change      ....    -0.000014665
Actually observed energy change         ....    -0.000016135
Ratio of predicted to observed change   ....     1.100256555
New trust radius                        ....     0.450000000

                                .--------------------.
          ----------------------|Geometry convergence|-------------------------
          Item                value                   Tolerance       Converged
          ---------------------------------------------------------------------
          Energy change      -0.0000161351            0.0000050000      NO
          RMS gradient        0.0001111271            0.0001000000      NO
          MAX gradient        0.0002064757            0.0003000000      YES
          RMS step            0.0030243009            0.0020000000      NO
          MAX step            0.0076471915            0.0040000000      NO
          -------------------------------------------------------------------------
          ........................................................
          Max(Bonds)      0.0040      Max(Angles)    0.05
          Max(Dihed)        0.00      Max(Improp)    0.00
          ---------------------------------------------------------------------

The optimization has not yet converged - more geometry cycles are needed


    ---------------------------------------------------------------------------
                         Redundant Internal Coordinates
                            (Angstroem and degrees)

        Definition                    Value    dE/dq     Step     New-Value
    ----------------------------------------------------------------------------
     1. B(H   1,C   0)                1.0775 -0.000156  0.0002    1.0777   
     2. B(H   2,C   0)                1.0776 -0.000058  0.0001    1.0777   
     3. B(H   3,C   0)                1.0776 -0.000051  0.0001    1.0777   
     4. B(I   4,C   0)                2.1957  0.000001 -0.0005    2.1952   
     5. B(Br  5,H   2)                2.8618  0.000052  0.0029    2.8647   
     6. B(Br  5,H   1)                2.8619  0.000051  0.0029    2.8647   
     7. B(Br  5,H   3)                2.8618  0.000052  0.0029    2.8647   
     8. B(Br  5,C   0)                2.9848 -0.000206  0.0040    2.9889   
     9. A(H   1,C   0,H   3)          111.83  0.000103   -0.04    111.79   
    10. A(H   2,C   0,H   3)          111.84  0.000131   -0.05    111.79   
    11. A(H   1,C   0,I   4)          107.00 -0.000124    0.05    107.05   
    12. A(H   2,C   0,I   4)          107.00 -0.000123    0.05    107.04   
    13. A(H   3,C   0,I   4)          107.00 -0.000123    0.05    107.04   
    14. A(H   1,C   0,Br  5)           73.01  0.000126   -0.05     72.96   
    15. A(H   2,C   0,Br  5)           73.00  0.000122   -0.05     72.96   
    16. A(H   3,C   0,Br  5)           73.00  0.000122   -0.05     72.96   
    17. A(H   1,C   0,H   2)          111.82  0.000101   -0.04    111.79   
    ----------------------------------------------------------------------------

Geometry step timings:
Preparation and reading OPT file:      0.000 s ( 2.822 %)
Internal coordinates            :      0.000 s ( 4.958 %)
B/P matrices and projection     :      0.000 s (12.357 %)
Hessian update/contruction      :      0.000 s (26.545 %)
Making the step                 :      0.000 s ( 9.382 %)
Converting the step to Cartesian:      0.000 s ( 3.204 %)
Storing new data                :      0.000 s ( 7.323 %)
Checking convergence            :      0.000 s ( 8.543 %)
Final printing                  :      0.000 s (24.867 %)
Total time                      :      0.001 s

Time for energy+gradient        :      0.060 s
Time for complete geometry iter :      0.063 s

         *************************************************************
         *                GEOMETRY OPTIMIZATION CYCLE   4            *
         *************************************************************
---------------------------------
CARTESIAN COORDINATES (ANGSTROEM)
---------------------------------
  C     0.000002    0.000013    0.326407
  H     0.000003    1.030373    0.010541
  H     0.892352   -0.515172    0.010525
  H    -0.892350   -0.515173    0.010524
  I    -0.000002   -0.000051    2.521574
  Br   -0.000005   -0.000072   -2.662467

----------------------------
CARTESIAN COORDINATES (A.U.)
----------------------------
  NO LB    ZA    FRAG    MASS        X           Y           Z
   0 C   6.0000    0    12.011    0.000004    0.000025    0.616821
[...]
        25                          0.4676708              12.7260
      -------------------------------------------------------------
                  HL-Gap            0.0658843 Eh            1.7928 eV
             Fermi-level           -0.1332486 Eh           -3.6259 eV

 SCC (total)                   0 d,  0 h,  0 min,  0.022 sec
 SCC setup                      ...        0 min,  0.000 sec (  1.322%)
 Dispersion                     ...        0 min,  0.000 sec (  0.295%)
 classical contributions        ...        0 min,  0.000 sec (  0.189%)
 integral evaluation            ...        0 min,  0.020 sec ( 90.060%)
 iterations                     ...        0 min,  0.001 sec (  4.385%)
 molecular gradient             ...        0 min,  0.001 sec (  2.943%)
 printout                       ...        0 min,  0.000 sec (  0.696%)

         :::::::::::::::::::::::::::::::::::::::::::::::::::::
         ::                     SUMMARY                     ::
         :::::::::::::::::::::::::::::::::::::::::::::::::::::
         :: total energy             -11.826797067361 Eh    ::
         :: gradient norm              0.000077043809 Eh/a0 ::
         :: HOMO-LUMO gap              1.792802014302 eV    ::
         ::.................................................::
         :: SCC energy               -11.887149474274 Eh    ::
         :: -> isotropic ES            0.153817614946 Eh    ::
         :: -> anisotropic ES         -0.005723186039 Eh    ::
         :: -> anisotropic XC         -0.001497976468 Eh    ::
         :: -> dispersion             -0.003270076011 Eh    ::
         :: repulsion energy           0.060352406913 Eh    ::
         :: add. restraining           0.000000000000 Eh    ::
         :: total charge              -1.000000000000 e     ::
         :::::::::::::::::::::::::::::::::::::::::::::::::::::

           ------------------------------------------------- 
          |                Numerical Hessian                |
           ------------------------------------------------- 
step length          :   0.00500
SCC accuracy         :   0.30000
Hessian scale factor :   1.00000
frozen atoms in %    :   0.00000    0
RMS gradient         :   0.00008
estimated CPU  time      0.00 min
estimated wall time      0.00 min

writing file <hessian>.

 projected vibrational frequencies (cm⁻¹)
eigval :       -0.00    -0.00    -0.00     0.00     0.00     0.00
eigval :       89.80   103.38   103.41   426.03   914.88   914.94
eigval :     1250.97  1432.89  1432.96  3097.30  3124.48  3124.69

Property printout bound to 'properties.out'
Molecule has the following symmetry elements: (C3) 3*(sigma) 
It seems to be the C3v point group

           -------------------------------------------------
          | TOTAL ENERGY              -11.826797067361 Eh   |
          | TOTAL ENTHALPY            -11.783909412911 Eh   |
          | TOTAL FREE ENERGY         -11.821183371338 Eh   |
          | GRADIENT NORM               0.000077044572 Eh/α |
          | HOMO-LUMO GAP               1.792802122862 eV   |
           -------------------------------------------------

------------------------------------------------------------------------
 * finished run on 2026/03/16 at 14:19:26.457     
------------------------------------------------------------------------
 total:
 * wall-time:     0 d,  0 h,  0 min,  0.093 sec
 *  cpu-time:     0 d,  0 h,  0 min,  0.361 sec
 * ratio c/w:     3.871 speedup
 SCF:
 * wall-time:     0 d,  0 h,  0 min,  0.022 sec
 *  cpu-time:     0 d,  0 h,  0 min,  0.156 sec
 * ratio c/w:     7.120 speedup
 analytical hessian:
 * wall-time:     0 d,  0 h,  0 min,  0.053 sec
 *  cpu-time:     0 d,  0 h,  0 min,  0.122 sec
 * ratio c/w:     2.296 speedup


-------------------------   --------------------
FINAL SINGLE POINT ENERGY       -11.826797067360
-------------------------   --------------------


-------------
DIPOLE MOMENT
-------------
                                X             Y             Z
Total Dipole Moment    :      0.00000       0.00000       2.13500
                        -----------------------------------------
Magnitude (a.u.)       :      2.13500
Magnitude (Debye)      :      5.42674


-----------------------
VIBRATIONAL FREQUENCIES
-----------------------

Scaling factor for frequencies =  1.000000000  (already applied!)

     0:       0.00 cm**-1
     1:       0.00 cm**-1
     2:       0.00 cm**-1
     3:       0.00 cm**-1
     4:       0.00 cm**-1
     5:       0.00 cm**-1
     6:      89.80 cm**-1
     7:     103.38 cm**-1
     8:     103.41 cm**-1
     9:     426.03 cm**-1
    10:     914.85 cm**-1
    11:     914.91 cm**-1
    12:    1250.94 cm**-1
    13:    1432.85 cm**-1
    14:    1432.92 cm**-1
    15:    3097.20 cm**-1
    16:    3124.40 cm**-1
    17:    3124.61 cm**-1


------------
NORMAL MODES
------------

These modes are the Cartesian displacements weighted by the diagonal matrix
M(i,i)=1/sqrt(m[i]) where m[i] is the mass of the displaced atom
Thus, these vectors are normalized but *not* orthogonal

                  0          1          2          3          4          5    
      0       0.000000   0.000000   0.000000   0.000000   0.000000   0.000000
      1       0.000000   0.000000   0.000000   0.000000   0.000000   0.000000
      2       0.000000   0.000000   0.000000   0.000000   0.000000   0.000000
      3       0.000000   0.000000   0.000000   0.000000   0.000000   0.000000
      4       0.000000   0.000000   0.000000   0.000000   0.000000   0.000000
      5       0.000000   0.000000   0.000000   0.000000   0.000000   0.000000
      6       0.000000   0.000000   0.000000   0.000000   0.000000   0.000000
      7       0.000000   0.000000   0.000000   0.000000   0.000000   0.000000
      8       0.000000   0.000000   0.000000   0.000000   0.000000   0.000000
      9       0.000000   0.000000   0.000000   0.000000   0.000000   0.000000
     10       0.000000   0.000000   0.000000   0.000000   0.000000   0.000000
     11       0.000000   0.000000   0.000000   0.000000   0.000000   0.000000
     12       0.000000   0.000000   0.000000   0.000000   0.000000   0.000000
     13       0.000000   0.000000   0.000000   0.000000   0.000000   0.000000
     14       0.000000   0.000000   0.000000   0.000000   0.000000   0.000000
     15       0.000000   0.000000   0.000000   0.000000   0.000000   0.000000
     16       0.000000   0.000000   0.000000   0.000000   0.000000   0.000000
     17       0.000000   0.000000   0.000000   0.000000   0.000000   0.000000
                  6          7          8          9         10         11    
      0       0.000017   0.437162   0.009318   0.000001  -0.096768   0.003968
      1      -0.001023   0.009318  -0.437171  -0.000010  -0.003968  -0.096771
      2       0.394310  -0.000000  -0.000064   0.671843   0.000001   0.000004
      3       0.000019   0.497926   0.010610   0.000002   0.244448  -0.010024
      4      -0.018468   0.010671  -0.500636  -0.057323   0.006185   0.150873
      5       0.307745   0.004200  -0.197086   0.421618   0.031136   0.759349
      6      -0.014968   0.499949   0.011804  -0.049651   0.175945   0.033413
      7       0.007465   0.009498  -0.498645   0.028668   0.049575   0.219470
      8       0.308438   0.168575   0.102133   0.421545   0.642124  -0.406758
      9       0.015006   0.499997   0.009512   0.049654   0.172616  -0.047707
     10       0.007465   0.011759  -0.498601   0.028668  -0.031441   0.222791
     11       0.308423  -0.172782   0.094857   0.421539  -0.673286  -0.352812
     12      -0.000001  -0.029544  -0.000630  -0.000000   0.004653  -0.000191
     13       0.000071  -0.000630   0.029545   0.000001   0.000191   0.004653
     14       0.365745   0.000000  -0.000054  -0.074876   0.000000   0.000001
     15      -0.000002  -0.037690  -0.000803  -0.000000  -0.000325   0.000013
     16       0.000086  -0.000803   0.037691   0.000000  -0.000013  -0.000325
     17      -0.651829  -0.000000   0.000096   0.001970   0.000000   0.000000
                 12         13         14         15         16         17    
      0      -0.000001   0.000181  -0.074080  -0.000039  -0.003339   0.092800
      1      -0.000007   0.074068   0.000180  -0.000573   0.092800   0.003339
      2      -0.087668  -0.000004   0.000000   0.035498   0.000238   0.000024
      3       0.000003  -0.001824   0.750400  -0.000018  -0.001455   0.040375
      4       0.168297   0.119846   0.000289   0.562478  -0.772847  -0.027559
      5       0.550045   0.292530   0.000710  -0.149582   0.234216   0.008361
      6       0.145739  -0.377117   0.096795   0.480937   0.377586  -0.559271
      7      -0.084114  -0.533698   0.375556  -0.278000  -0.178462   0.347694
      8       0.549912  -0.145638  -0.253612  -0.147471  -0.125931   0.199375
      9      -0.145733   0.376635   0.098624  -0.480456  -0.336392  -0.585410
     10      -0.084114  -0.531872  -0.378147  -0.277701  -0.152992  -0.359869
     11       0.549902  -0.146870   0.252900  -0.147295  -0.111266  -0.208042
     12       0.000000   0.000001  -0.000520  -0.000000  -0.000000   0.000012
     13       0.000000   0.000521   0.000001   0.000000   0.000011   0.000000
     14      -0.003765  -0.000000  -0.000000   0.000102   0.000001   0.000000
     15      -0.000000  -0.000000   0.000030   0.000000   0.000001  -0.000037
     16      -0.000000  -0.000030  -0.000000   0.000001  -0.000037  -0.000001
     17      -0.001655   0.000000  -0.000000   0.000108   0.000001   0.000000


The first frequency considered to be a vibration is 6
The total number of vibrations considered is 12


--------------------------
THERMOCHEMISTRY AT 298.15K
--------------------------

Temperature         ...   298.15 K
Pressure            ...     1.00 atm
Total Mass          ...   221.84 AMU
Quasi RRHO          ...     True
Cut-Off Frequency   ...     1.00 cm^-1

Throughout the following assumptions are being made:
  (1) The electronic state is orbitally nondegenerate
  (2) There are no thermally accessible electronically excited states
  (3) Hindered rotations indicated by low frequency modes are not
      treated as such but are treated as vibrations and this may
      cause some error
  (4) All equations used are the standard statistical mechanics
      equations for an ideal gas
  (5) All vibrations are strictly harmonic

freq.      89.80  E(vib)   ...       0.47 
freq.     103.38  E(vib)   ...       0.46 
freq.     103.41  E(vib)   ...       0.46 
freq.     426.03  E(vib)   ...       0.18 
freq.     914.85  E(vib)   ...       0.03 
freq.     914.91  E(vib)   ...       0.03 
freq.    1250.94  E(vib)   ...       0.01 
freq.    1432.85  E(vib)   ...       0.00 
freq.    1432.92  E(vib)   ...       0.00 
freq.    3097.20  E(vib)   ...       0.00 
freq.    3124.40  E(vib)   ...       0.00 
freq.    3124.61  E(vib)   ...       0.00 

------------
INNER ENERGY
------------

The inner energy is: U= E(el) + E(ZPE) + E(vib) + E(rot) + E(trans)
    E(el)   - is the total energy from the electronic structure calculation
              = E(kin-el) + E(nuc-el) + E(el-el) + E(nuc-nuc)
    E(ZPE)  - the the zero temperature vibrational energy from the frequency calculation
    E(vib)  - the the finite temperature correction to E(ZPE) due to population
              of excited vibrational states
    E(rot)  - is the rotational thermal energy
    E(trans)- is the translational thermal energy

Summary of contributions to the inner energy U:
Electronic energy                ...    -11.82679707 Eh
Zero point energy                ...      0.03648555 Eh      22.89 kcal/mol
Thermal vibrational correction   ...      0.00262432 Eh       1.65 kcal/mol
Thermal rotational correction    ...      0.00141627 Eh       0.89 kcal/mol
Thermal translational correction ...      0.00141627 Eh       0.89 kcal/mol
-----------------------------------------------------------------------
Total thermal energy                    -11.78485465 Eh


Summary of corrections to the electronic energy:
(perhaps to be used in another calculation)
Total thermal correction                  0.00545687 Eh       3.42 kcal/mol
Non-thermal (ZPE) correction              0.03648555 Eh      22.89 kcal/mol
-----------------------------------------------------------------------
Total correction                          0.04194241 Eh      26.32 kcal/mol


--------
ENTHALPY
--------

The enthalpy is H = U + kB*T
                kB is Boltzmann's constant
Total thermal energy              ...    -11.78485465 Eh 
Thermal Enthalpy correction       ...      0.00094421 Eh       0.59 kcal/mol
-----------------------------------------------------------------------
Total Enthalpy                    ...    -11.78391045 Eh


WARNING (ORCA/SYM): The number of Z matrix atoms does not agree with
the number of centers in the basis set. The point group will therefore
be determined without considering basis set information.


Note: Rotational entropy computed according to Herzberg 
Infrared and Raman Spectra, Chapter V,1, Van Nostrand Reinhold, 1945 
Point Group:  C3v, Symmetry Number:   3  
Rotational constants in cm-1:     5.256176     0.012760     0.012760 

Vibrational entropy computed according to the QRRHO of S. Grimme
Chem.Eur.J. 2012 18 9955 using a reference frequency of 100.0 cm-1


-------
ENTROPY
-------

The entropy contributions are T*S = T*(S(el)+S(vib)+S(rot)+S(trans))
     S(el)   - electronic entropy
     S(vib)  - vibrational entropy
     S(rot)  - rotational entropy
     S(trans)- translational entropy
The entropies will be listed as multiplied by the temperature to get
units of energy

Electronic entropy                ...      0.00000000 Eh      0.00 kcal/mol
Vibrational entropy               ...      0.00507883 Eh      3.19 kcal/mol
Rotational entropy                ...      0.01180814 Eh      7.41 kcal/mol
Translational entropy             ...      0.01999968 Eh     12.55 kcal/mol
-----------------------------------------------------------------------
Final entropy term                ...      0.03688664 Eh     23.15 kcal/mol

In case the symmetry of your molecule has not been determined correctly
or in case you have a reason to use a different symmetry number we print 
out the resulting rotational entropy values for sn=1,12:

 non-linear molecules -----------------------------------
|  sn= 1 | S(rot)=       0.01284543 Eh      8.06 kcal/mol|
|  sn= 2 | S(rot)=       0.01219097 Eh      7.65 kcal/mol|
|  sn= 3 | S(rot)=       0.01180814 Eh      7.41 kcal/mol|
|  sn= 4 | S(rot)=       0.01153651 Eh      7.24 kcal/mol|
|  sn= 5 | S(rot)=       0.01132582 Eh      7.11 kcal/mol|
|  sn= 6 | S(rot)=       0.01115368 Eh      7.00 kcal/mol|
|  sn= 7 | S(rot)=       0.01100813 Eh      6.91 kcal/mol|
|  sn= 8 | S(rot)=       0.01088206 Eh      6.83 kcal/mol|
|  sn= 9 | S(rot)=       0.01077085 Eh      6.76 kcal/mol|
|  sn=10 | S(rot)=       0.01067137 Eh      6.70 kcal/mol|
|  sn=11 | S(rot)=       0.01058138 Eh      6.64 kcal/mol|
|  sn=12 | S(rot)=       0.01049922 Eh      6.59 kcal/mol|
 linear molecules ---------------------------------------
|  Dinfh | S(rot)=       0.00944381 Eh      5.93 kcal/mol|
|  Cinfv | S(rot)=       0.01009827 Eh      6.34 kcal/mol|
 --------------------------------------------------------


-------------------
GIBBS FREE ENERGY
-------------------

The Gibbs free energy is G = H - T*S

Total enthalpy                    ...    -11.78391045 Eh 
Total entropy correction          ...     -0.03688664 Eh    -23.15 kcal/mol
-----------------------------------------------------------------------
Final Gibbs free energy         ...    -11.82079709 Eh

For completeness - the Gibbs free energy minus the electronic energy
G-E(el)                           ...      0.00599998 Eh      3.77 kcal/mol


--------------------------------
SUGGESTED CITATIONS FOR THIS RUN
--------------------------------

Below you find a list of papers that are relevant to this ORCA run
We neither can nor want to force you to cite these papers, but we appreciate if you do
You receive ORCA, which is the product of decades of hard work by many enthusiastic individuals, for free
The only thing we kindly ask in return is that you cite our papers,
We deeply appreciate it, if you show your appreciation for ORCA by not just citing the generic ORCA reference.

Please note that relegating all ORCA citations to the supporting information does *not* help us.
SI sections are not indexed - citations you put there will not count into any citation statistics
But we need these citations in order to attract the funding resources that allow us to do what we are doing

Therefore, if you are a happy ORCA user, please consider citing a few of the papers listed below in the main body of your paper

In addition to the list printed below, the program has created the file product_optfreq.bibtex that contains the list in bibtex format
You can import this file easily into all common literature databanks and citation aid programs


List of essential papers. We consider these as the minimum necessary citations

  1. Bannwarth, C.; Ehlert, S.; Grimme, S.
     GFN2-xTB—An Accurate and Broadly Parametrized Self-Consistent Tight-Binding Quantum Chemical Method with Multipole Electrostatics and Density-Dependent Dispersion Contributions
     J. Chem. Theory Comput. 2019 15(3), 1652-1671
     doi.org/10.1021/acs.jctc.8b01176
  2. Neese, F.
     Software update: the ORCA program system, version 6.0
     WIRES Comput. Molec. Sci. 2025 15(1), e70019
     doi.org/10.1002/wcms.7019

List of papers to cite with high priority. The work reported in these papers was absolutely
necessary for this run to complete.
Our perspective: the developers of density functionals and basis sets usually get cited in chemistry papers
Good! But without the algorithms to do something with them, the functionals or basis sets would not do anything.
Hence, in our opinion, the algorithm design and method developments papers are equally worthy of getting cited

  1. Bykov, D.; Petrenko, T.; Izsak, R.; Kossmann, S.; Becker, U.; Valeev, E.; Neese, F.
     Efficient implementation of the analytic second derivatives of Hartree-Fock and hybrid DFT energies: a detailed analysis of different approximations
     Molec. Phys. 2015 113 , 1961-1977
     doi.org/10.1080/00268976.2015.1025114
  2. Bannwarth, C.; Caldeweyher, E.; Ehlert, S.; Hansen, A.; Pracht, P.; Seibert, J.; Spicher, S.; Grimme, S.
     Extended tight-binding quantum chemistry methods
     WIRES Comput. Molec. Sci. 2020 11(2), e1493
     doi.org/10.1002/wcms.1493

List of suggested additional citations. These are papers that are important in the 'surrounding' of 
of this run, or papers that preceded the highly important papers. If you like your results we are grateful for a citation.

  1. Neese, F.
     The ORCA program system
     WIRES Comput. Molec. Sci. 2012 2(1), 73-78
     doi.org/10.1002/wcms.81
  2. Neese, F.
     Software update: the ORCA program system, version 4.0
     WIRES Comput. Molec. Sci. 2018 8(1), 1-6
     doi.org/10.1002/wcms.1327
  3. Neese, F.; Wennmohs, F.; Becker, U.; Riplinger, C.
     The ORCA quantum chemistry program package
     J. Chem. Phys. 2020 152(22), 224108
     doi.org/10.1063/5.0004608
  4. Neese, F.
     Software update: The ORCA program system—Version 5.0
     WIRES Comput. Molec. Sci. 2022 12(1), e1606
     doi.org/10.1002/wcms.1606

List of optional additional citations

  1. Neese, F.
     Approximate second-order SCF convergence for spin unrestricted wavefunctions
     Chem. Phys. Lett. 2000 325(1-3), 93-98
     doi.org/10.1016/s0009-2614(00)00662-x

Timings for individual modules:

Sum of individual times          ...        0.654 sec (=   0.011 min)
Geometry relaxation              ...        0.013 sec (=   0.000 min)   1.9 %
XTB module                       ...        0.641 sec (=   0.011 min)  98.1 %
                             ****ORCA TERMINATED NORMALLY****
TOTAL RUN TIME: 0 days 0 hours 0 minutes 1 seconds 278 msec
