
                                 *****************
                                 * O   R   C   A *
                                 *****************

                                            #,                                       
                                            ###                                      
                                            ####                                     
                                            #####                                    
                                            ######                                   
                                           ########,                                 
                                     ,,################,,,,,                         
                               ,,#################################,,                 
                          ,,##########################################,,             
                       ,#########################################, ''#####,          
                    ,#############################################,,   '####,        
                  ,##################################################,,,,####,       
                ,###########''''           ''''###############################       
              ,#####''   ,,,,##########,,,,          '''####'''          '####       
            ,##' ,,,,###########################,,,                        '##       
           ' ,,###''''                  '''############,,,                           
         ,,##''                                '''############,,,,        ,,,,,,###''
      ,#''                                            '''#######################'''  
     '                                                          ''''####''''         
             ,#######,   #######,   ,#######,      ##                                
            ,#'     '#,  ##    ##  ,#'     '#,    #''#        ,####,    ,#,          
            ##       ##  ##   ,#'  ##            #'  '#       #'       ,# #          
            ##       ##  #######   ##           ,######,      #####,      #          
            '#,     ,#'  ##    ##  '#,     ,#' ,#      #,     #,   #      #          
             '#######'   ##     ##  '#######'  #'      '#     '####' #    #          



                #########################################################
                #                        -***-                          #
                #          Department of theory and spectroscopy        #
                #                                                       #
                #                      Frank Neese                      #
                #                                                       #
                #     Directorship, Architecture, Infrastructure        #
                #                    SHARK, DRIVERS                     #
                #        Core code/Algorithms in most modules           #
                #                                                       #
                #        Max Planck Institute fuer Kohlenforschung      #
                #                Kaiser Wilhelm Platz 1                 #
                #                 D-45470 Muelheim/Ruhr                 #
                #                      Germany                          #
                #                                                       #
                #                  All rights reserved                  #
                #                        -***-                          #
                #########################################################


                         Program Version 6.1.0  -  RELEASE   -
                                (GIT: $679e74b$)
                          ($2025-06-10 18:02:51 +0200$)


 With contributions from (in alphabetic order):
[Max-Planck-Institut fuer Kohlenforschung]                               
  Daniel Aravena         : Magnetic Suceptibility                        
  Michael Atanasov       : Ab Initio Ligand Field Theory (pilot matlab implementation)
  Alexander A. Auer      : GIAO ZORA, VPT2 properties, NMR spectrum      
  Ute Becker             : All parallelization in ORCA, NUMFREQ, NUMCALC 
  Giovanni Bistoni       : ED, misc. LED, open-shell LED, HFLD           
  Dmytro Bykov           : pre 5.0 version of the SCF Hessian            
  Marcos Casanova-Páez   : Triplet and SCS-CIS(D). UHF-(DLPNO)-IP/EA/STEOM-CCSD. UHF-CVS-IP/STEOM-CCSD   
  Vijay G. Chilkuri      : MRCI spin determinant printing, contributions to CSF-ICE 
  Pauline Colinet        : FMM embedding                                 
  Dipayan Datta          : RHF DLPNO-CCSD density                        
  Achintya Kumar Dutta   : EOM-CC, STEOM-CC                              
  Nicolas Foglia         : Exact transition moments, OPA infrastructure, MCD improvements    
  Dmitry Ganyushin       : Spin-Orbit,Spin-Spin,Magnetic field MRCI      
  Miquel Garcia-Rates    : C-PCM and meta-GGA Hessian, CCSD/C-PCM, Gaussian charge scheme 
  Tiago L. C. Gouveia    : GS-ROHF, GS-ROCIS                             
  Yang Guo               : DLPNO-NEVPT2, F12-NEVPT2, CIM, IAO-localization        
  Andreas Hansen         : Spin unrestricted coupled pair/coupled cluster methods 
  Ingolf Harden          : AUTO-CI MPn and infrastructure                
  Benjamin Helmich-Paris : MC-RPA, TRAH-(SCF,CASSCF), AVAS, COSX integrals, SCF dyn. polar., MC-PDFT, srDFT 
  Lee Huntington         : MR-EOM, pCC                                   
  Robert Izsak           : Overlap fitted RIJCOSX, COSX-SCS-MP3, EOM     
  Riya Kayal             : Wick's Theorem for AUTO-CI, AUTO-CI UHF-CCSDT 
  Emily Kempfer          : AUTO-CI RHF CISDT and CCSDT, approximate NEVPT4
  Christian Kollmar      : KDIIS, OOCD, Brueckner-CCSD(T), CCSD density, CASPT2, CASPT2-K, improved NEVPT2 
  Axel Koslowski         : Symmetry handling                             
  Simone Kossmann        : meta-GGA functionals, TD-DFT gradient, OOMP2, (MP2 Hessian; deprecated post 5.0) 
  Lucas Lang             : DCDCAS, Hyperfine gauge corrections, ICE-SOC+SSC
  Marvin Lechner         : AUTO-CI (C++ implementation), FIC-MRCC        
  Spencer Leger          : CASSCF response                               
  Dagmar Lenk            : GEPOL surface, SMD, ORCA-2-JSON               
  Dimitrios Liakos       : Extrapolation schemes; Compound Job, Property file
  Dimitrios Manganas     : Further ROCIS development; embedding schemes. LFT, Crystal Embedding 
  Dimitrios Pantazis     : SARC Basis sets                               
  Anastasios Papadopoulos: AUTO-CI, single reference methods and gradients 
  Taras Petrenko         : pre 6.0 DFT Hessian and TD-DFT gradient,  ECA, NRVS 
  Petra Pikulova         : Analytic Raman intensities                    
  Peter Pinski           : DLPNO-MP2, DLPNO-MP2 Gradient                 
  Shashank Vittal Rao    : ES-AILFT, MagRelax                            
  Christoph Reimann      : Effective Core Potentials                     
  Marius Retegan         : Local ZFS, SOC                                
  Christoph Riplinger    : Optimizer, TS searches, QM/MM, DLPNO-CCSD(T), (RO)-DLPNO pert. Triples 
  Michael Roemelt        : Original ROCIS implementation, recursive CI coupling coefficients
  Masaaki Saitow         : Open-shell DLPNO-CCSD energy and density      
  Barbara Sandhoefer     : DKH picture change effects                    
  Yorick L. A. Schmerwitz: GMF and freeze-and-release deltaSCF, NEB S-IDPP initial path                    
  Kantharuban Sivalingam : CASSCF convergence/infrastructure, NEVPT2, NEVPT3, NEVPT4(SD), FIC-MRCI and CEPA variants
  Bernardo de Souza      : ESD, SOC TD-DFT                               
  Georgi L. Stoychev     : AutoAux, RI-MP2 NMR, DLPNO-MP2 response, X2C  
  Van Anh Tran           : RI-MP2 g-tensors                              
  Willem Van den Heuvel  : Paramagnetic NMR                              
  Zikuan Wang            : NOTCH, Electric field optimization            
  Frank Wennmohs         : Technical directorship and infrastructure     
  Hang Xu                : AUTO-CI-Response properties                   
                                                                         
[FACCTs GmbH]                                                            
  Markus Bursch, Nicolas Foglia, Miquel Garcia-Rates, Ingolf Harden, Hagen Neugebauer, Anastasios Papadopoulos, 
  Christoph Riplinger, Bernardo de Souza, Georgi L. Stoychev                                                    
                                                                 
  APM, various basis sets, CI-OPT, improved COSX, DLPNO-Multilevel,           
  DOCKER, DRACO, updates on ESD, Fragmentator, GOAT, IRC, LR-CPCM, L-BFGS, MBIS, meta-GGA TD-DFT gradient, ML-optimized integration grids, 
  MM, NACMEs, nearIR, NEB, NEB-TS, NL-DFT gradient (VV10), 2- and 3-layer-ONIOM, interface openCOSMO-RS, QMMM,   
  Crystal-QMMM, RESP, rigid body optimization, SF, symmetry and pop. for TD-DFT, various functionals, SOLVATOR                                   
                                                                         
[Other institutions]                                                     
  V. Asgeirsson          : NEB                                           
  Christoph Bannwarth    : sTDA-DFT, sTD-DFT, PBEh-3c, B97-3c, D3        
  Giovanni Bistoni       : ETS/NOCV, ADLD/ADEX, COVALED                  
  Martin Brehm           : Molecular dynamics                            
  Ronald Cardenas        : ETS/NOCV                                      
  Martina Colucci        : COVALED                                       
  Sebastian Ehlert       : rSCAN, r2SCAN, r2SCAN-3c, D4, dhf basis sets  
  Marvin Friede          : D4 for Fr, Ra, Ac-Lr                          
  Lars Goerigk           : TD-DFT with DH, B97 family of functionals     
  Stefan Grimme          : VdW corrections, initial TS optimization, DFT functionals, gCP, sTDA/sTD-DF 
  Waldemar Hujo          : DFT-NL                                        
  H. Jonsson             : NEB                                           
  Holger Kruse           : gCP                                           
  Marcel Mueller         : wB97X-3c, vDZP basis set                      
  Hagen Neugebauer       : wr2SCAN, Native XTB                           
  Gianluca Regni         : ADLD/ADEX                                     
  Tobias Risthaus        : pre 6.0 range-separated hybrid DFT and stability analysis
  Lukas Wittmann         : regularized MP2, r2SCAN double-hybrids, wr2SCAN        
                                                                         
We gratefully acknowledge several colleagues who have allowed us to      
interface, adapt or use parts of their codes:                            
  Ed Valeev, F. Pavosevic, A. Kumar             : LibInt (2-el integral package), F12 methods 
  Garnet Chan, S. Sharma, J. Yang, R. Olivares  : DMRG                   
  Ulf Ekstrom                                   : XCFun DFT Library      
  Mihaly Kallay                                 : mrcc  (arbitrary order and MRCC methods)
  Frank Weinhold                                : gennbo (NPA and NBO analysis)           
  Simon Mueller                                 : openCOSMO-RS                            
  Christopher J. Cramer and Donald G. Truhlar   : smd solvation model                     
  S Lehtola, MJT Oliveira, MAL Marques          : LibXC Library                           
  Liviu Ungur et al                             : ANISO software                          


 Your calculation uses the libint2 library for the computation of 2-el integrals
 For citations please refer to: http://libint.valeyev.net

 Your ORCA version has been built with support for libXC version: 7.0.0
 For citations please refer to: https://libxc.gitlab.io

 This ORCA versions uses:
   CBLAS   interface :  Fast vector & matrix operations
   LAPACKE interface :  Fast linear algebra routines
   SCALAPACK package :  Parallel linear algebra routines
   Shared memory     :  Shared parallel matrices
   BLAS/LAPACK       :  OpenBLAS 0.3.29  USE64BITINT DYNAMIC_ARCH NO_AFFINITY SkylakeX SINGLE_THREADED
        Core in use  :  SkylakeX
   Copyright (c) 2011-2014, The OpenBLAS Project


  ***********************************
  * Starting time: Mon Mar 16 14:19:24 2026
  * Host name:     midway3-login4.rcc.local
  * Process ID:    125661
  * Working dir.:  /home/rzhu16/evans-polanyi-principle-validation/runs/sn2_i_br/geo_opt_reactant_product
  ***********************************

Your calculation utilizes the semiempirical GFN2-xTB method
Please cite in your paper:
Bannwarth, C.; Ehlert S.; Grimme, S. J. Chem. Theory Comput. 2019, 15, 1652.
   

================================================================================

cite the ECPs for I  [Def2-ECP] as follows:
Ce-Yb(ecp-28): M. Dolg, H. Stoll, H.Preuss, J. Chem. Phys., 1989, 90, 1730-1734.
Y-Cd(ecp-28), Hf-Hg(ecp-46): D. Andrae,U. Haeussermann, M. Dolg, H. Stoll, H. Preuss, Theor. Chim. Acta, 1990, 77, 123-141.
In-Sb(ecp-28), Tl-Bi(ecp-46): B. Metz, H. Stoll, M. Dolg, J. Chem. Phys., 2000, 113, 2563-2569.
Te-Xe(ecp-28), Po-Rn(ecp-46): K. A. Peterson, D. Figgen, E. Goll, H. Stoll, M. Dolg, J. Chem. Phys., 2003, 119, 11113-11123.
Rb(ecp-28), Cs(ecp-46): T. Leininger, A. Nicklass, W. Kuechle, H. Stoll, M. Dolg, A. Bergner, Chem. Phys. Lett., 1996, 255, 274-280.
Sr(ecp-28), Ba(ecp-46): M. Kaupp, P. V. Schleyer, H. Stoll and H. Preuss, J. Chem. Phys., 1991, 94, 1360-1366.
La(ecp-46): M. Dolg, H. Stoll, A. Savin, H. Preuss, Theor. Chim. Acta, 1989, 75, 173-194.
Lu(ecp-28): X. Cao, M. Dolg, J. Chem. Phys., 2001, 115, 7348-7355.

ECP parameters for I  [Def2-ECP] have been obtained from:
TURBOMOLE (7.0.2)

================================================================================
                                        WARNINGS
                       Please study these warnings very carefully!
================================================================================


WARNING: Analytical Hessian for XTB is limited in the analysis of the data.
       : If you want to obtain extensive IR and deltaG analysis, please use ! XTB NumFreq. 


WARNING: Geometry Optimization
  ===> : Switching off AutoStart
         For restart on a previous wavefunction, please use MOREAD

WARNING: Found dipole moment calculation with XTB calculation
  ===> : Switching off dipole moment calculation


WARNING: Found frequency calculation in combination with XTB calculation
  ===> : Need to redirect dipole moment calculation to properties.out


================================================================================
                                       INPUT FILE
================================================================================
NAME = reactant_optfreq.inp
|  1> ! XTB2 Opt Freq PAL8
|  2> 
|  3> %geom
|  4>   MaxIter 500
|  5> end
|  6> 
|  7> * xyz -1 1
|  8>   C       0.000070      0.000443     -0.377751
|  9>   H       0.000001      1.030445     -0.055215
| 10>   H       0.892732     -0.515380     -0.055084
| 11>   H      -0.892803     -0.515422     -0.055057
| 12>   I       0.000001      0.000008      2.773980
| 13>   Br     -0.000002     -0.000012     -2.349976
| 14> *
| 15> 
| 16>                          ****END OF INPUT****
================================================================================

                       *****************************
                       * Geometry Optimization Run *
                       *****************************

Geometry optimization settings:
Update method            Update   .... BFGS
Choice of coordinates    CoordSys .... (2022) Redundant Internals
Initial Hessian          InHess   .... Almloef's Model
Max. no of cycles        MaxIter  .... 500

Convergence Tolerances:
Energy Change            TolE     ....  5.0000e-06 Eh
Max. Gradient            TolMAXG  ....  3.0000e-04 Eh/bohr
RMS Gradient             TolRMSG  ....  1.0000e-04 Eh/bohr
Max. Displacement        TolMAXD  ....  4.0000e-03 bohr
RMS Displacement         TolRMSD  ....  2.0000e-03 bohr
Strict Convergence                .... False

------------------------------------------------------------------------------
                        ORCA OPTIMIZATION COORDINATE SETUP
------------------------------------------------------------------------------

The optimization will be done in redundant internal coordinates (2022)
Making redundant internal coordinates   ...  (2022 redundants) done
Evaluating the initial hessian          ...  (Almloef) done
Evaluating the coordinates              ...  done
Calculating the B-matrix                .... done
Calculating the G-matrix                .... done
The number of degrees of freedom        ....   17

    -----------------------------------------------------------------
                    Redundant Internal Coordinates


    -----------------------------------------------------------------
         Definition                    Initial Value    Approx d2E/dq
    -----------------------------------------------------------------
      1. B(H   1,C   0)                  1.0793         0.374508   
      2. B(H   2,C   0)                  1.0803         0.373173   
      3. B(H   3,C   0)                  1.0805         0.372895   
      4. B(I   4,H   2)                  3.0110         0.010000   
      5. B(I   4,H   1)                  3.0110         0.010000   
      6. B(I   4,H   3)                  3.0110         0.010000   
      7. B(I   4,C   0)                  3.1517         0.010000   
      8. B(Br  5,C   0)                  1.9722         0.247360   
      9. A(H   1,C   0,H   3)          111.4887         0.294255   
     10. A(H   2,C   0,H   3)          111.4481         0.294090   
     11. A(H   1,C   0,Br  5)          107.4007         0.323640   
     12. A(H   2,C   0,Br  5)          107.3738         0.323451   
     13. A(H   3,C   0,Br  5)          107.3683         0.323411   
     14. A(H   1,C   0,I   4)           72.6204         0.176998   
     15. A(H   2,C   0,I   4)           72.6185         0.176927   
     16. A(H   3,C   0,I   4)           72.6182         0.176912   
     17. A(H   1,C   0,H   2)          111.4976         0.294290   
    -----------------------------------------------------------------

Number of atoms                         .... 6
Number of degrees of freedom            .... 17


         *************************************************************
         *                GEOMETRY OPTIMIZATION CYCLE   1            *
         *************************************************************
---------------------------------
CARTESIAN COORDINATES (ANGSTROEM)
---------------------------------
  C     0.000070    0.000443   -0.377751
  H     0.000001    1.030445   -0.055215
  H     0.892732   -0.515380   -0.055084
  H    -0.892803   -0.515422   -0.055057
  I     0.000001    0.000008    2.773980
  Br   -0.000002   -0.000012   -2.349976

----------------------------
CARTESIAN COORDINATES (A.U.)
----------------------------
  NO LB    ZA    FRAG    MASS        X           Y           Z
   0 C   6.0000    0    12.011    0.000132    0.000837   -0.713846
   1 H   1.0000    0     1.008    0.000002    1.947259   -0.104341
   2 H   1.0000    0     1.008    1.687019   -0.973927   -0.104094
   3 H   1.0000    0     1.008   -1.687153   -0.974006   -0.104043
   4 I  53.0000    0   126.900    0.000002    0.000015    5.242063
   5 Br 35.0000    0    79.900   -0.000004   -0.000023   -4.440811

      -----------------------------------------------------------      
     |                   =====================                   |     
     |                           x T B                           |     
     |                   =====================                   |     
     |                         S. Grimme                         |     
     |          Mulliken Center for Theoretical Chemistry        |     
     |                    University of Bonn                     |     
      -----------------------------------------------------------      

   * xtb version 6.7.1 (edcfbbe) compiled by 'albert@albert-system' on 2024-07-22

   xtb is free software: you can redistribute it and/or modify it under
   the terms of the GNU Lesser General Public License as published by
   the Free Software Foundation, either version 3 of the License, or
   (at your option) any later version.
   
   xtb is distributed in the hope that it will be useful,
   but WITHOUT ANY WARRANTY; without even the implied warranty of
   MERCHANTABILITY or FITNESS FOR A PARTICULAR PURPOSE.  See the
   GNU Lesser General Public License for more details.
   
   Cite this work as:
   * C. Bannwarth, E. Caldeweyher, S. Ehlert, A. Hansen, P. Pracht,
     J. Seibert, S. Spicher, S. Grimme, WIREs Comput. Mol. Sci., 2020, 11,
     e01493. DOI: 10.1002/wcms.1493
   
   for GFN2-xTB:
   * C. Bannwarth, S. Ehlert and S. Grimme., J. Chem. Theory Comput., 2019,
     15, 1652-1671. DOI: 10.1021/acs.jctc.8b01176
   for GFN1-xTB:
   * S. Grimme, C. Bannwarth, P. Shushkov, J. Chem. Theory Comput., 2017,
     13, 1989-2009. DOI: 10.1021/acs.jctc.7b00118
   for GFN0-xTB:
   * P. Pracht, E. Caldeweyher, S. Ehlert, S. Grimme, ChemRxiv, 2019, preprint.
     DOI: 10.26434/chemrxiv.8326202.v1
   for GFN-FF:
   * S. Spicher and S. Grimme, Angew. Chem. Int. Ed., 2020, 59, 15665-15673.
     DOI: 10.1002/anie.202004239
   
   for ALPB and GBSA implicit solvation:
   * S. Ehlert, M. Stahn, S. Spicher, S. Grimme, J. Chem. Theory Comput.,
     2021, 17, 4250-4261. DOI: 10.1021/acs.jctc.1c00471
   
   for ddCOSMO and CPCM-X implicit solvation:
   * M. Stahn, S. Ehlert, S. Grimme, J. Phys. Chem. A,
     2023, XX, XXXX-XXXX. DOI: 10.1021/acs.jpca.3c04382
   
   for DFT-D4:
   * E. Caldeweyher, C. Bannwarth and S. Grimme, J. Chem. Phys., 2017,
     147, 034112. DOI: 10.1063/1.4993215
   * E. Caldeweyher, S. Ehlert, A. Hansen, H. Neugebauer, S. Spicher,
     C. Bannwarth and S. Grimme, J. Chem. Phys., 2019, 150, 154122.
     DOI: 10.1063/1.5090222
   * E. Caldeweyher, J.-M. Mewes, S. Ehlert and S. Grimme, Phys. Chem. Chem. Phys.
     2020, 22, 8499-8512. DOI: 10.1039/D0CP00502A
   
   for sTDA-xTB:
   * S. Grimme and C. Bannwarth, J. Chem. Phys., 2016, 145, 054103.
     DOI: 10.1063/1.4959605
   
   in the mass-spec context:
   * V. Asgeirsson, C. Bauer and S. Grimme, Chem. Sci., 2017, 8, 4879.
     DOI: 10.1039/c7sc00601b
   * J. Koopman and S. Grimme, ACS Omega 2019, 4, 12, 15120-15133.
     DOI: 10.1021/acsomega.9b02011
   
   for metadynamics refer to:
   * S. Grimme, J. Chem. Theory Comput., 2019, 155, 2847-2862
     DOI: 10.1021/acs.jctc.9b00143
   
   for SPH calculations refer to:
   * S. Spicher and S. Grimme, J. Chem. Theory Comput., 2021, 17, 1701-1714
     DOI: 10.1021/acs.jctc.0c01306
   
   for ONIOM refer to:
   * C. Plett, A. Katbashev, S. Ehlert, S. Grimme, M. Bursch,
     Phys. Chem. Chem. Phys., 2023, 25, 17860-17868. DOI: 10.1039/D3CP02178E
   
   for DIPRO refer to:
   * J. Kohn, N. Gildemeister, S. Grimme, D. Fazzi, A. Hansen,
     J. Chem. Phys., 2023, just accepted.
   
   for PTB refer to:
   * S. Grimme, M. Mueller, A. Hansen, J. Chem. Phys., 2023, 158, 124111.
     DOI: 10.1063/5.0137838
   
   with help from (in alphabetical order)
   P. Atkinson, C. Bannwarth, F. Bohle, G. Brandenburg, E. Caldeweyher
   M. Checinski, S. Dohm, S. Ehlert, S. Ehrlich, I. Gerasimov, C. Hölzer
   A. Katbashev, J. Kohn, J. Koopman, C. Lavigne, S. Lehtola, F. März, M. Müller,
   F. Musil, H. Neugebauer, J. Pisarek, C. Plett, P. Pracht, F. Pultar,
   J. Seibert, P. Shushkov, S. Spicher, M. Stahn, M. Steiner, T. Strunk,
   J. Stückrath, T. Rose, and J. Unsleber
   
 * started run on 2026/03/16 at 14:19:24.689     
   ID    Z sym.   atoms
    1    6 C      1
    2    1 H      2-4
    3   53 I      5
    4   35 Br     6

           -------------------------------------------------
          |                Calculation Setup                |
           -------------------------------------------------

          program call               : /software/orca-6.1.0-el8-x86_64/bin/otool_xtb reactant_optfreq_XTB.xyz --grad -c -1 -u 0 -P 8 --namespace reactant_optfreq --input reactant_optfreq_XTB.input.tmp --acc 0.200000
          hostname                   : midway3-login4.rcc.local
          calculation namespace      : reactant_optfreq
          coordinate file            : reactant_optfreq_XTB.xyz
          omp threads                :                     8


molecular fragmentation (1/2 indicates fragments):
111121
# atoms in fragment 1/2:     5     1
 fragment masses (1/2) :       94.94      126.90
CMA distance (Bohr)    :   9.073
constraining FC (au)   :  0.0500

           -------------------------------------------------
          |                 G F N 2 - x T B                 |
           -------------------------------------------------

        Reference                      10.1021/acs.jctc.8b01176
      * Hamiltonian:
        H0-scaling (s, p, d)           1.850000    2.230000    2.230000
        zeta-weighting                 0.500000
      * Dispersion:
        s8                             2.700000
        a1                             0.520000
        a2                             5.000000
        s9                             5.000000
      * Repulsion:
        kExp                           1.500000    1.000000
        rExp                           1.000000
      * Coulomb:
        alpha                          2.000000
        third order                    shell-resolved
        anisotropic                    true
        a3                             3.000000
        a5                             4.000000
        cn-shift                       1.200000
        cn-exp                         4.000000
        max-rad                        5.000000


          ...................................................
          :                      SETUP                      :
          :.................................................:
          :  # basis functions                  27          :
          :  # atomic orbitals                  25          :
          :  # shells                           11          :
          :  # electrons                        22          :
          :  max. iterations                   250          :
          :  Hamiltonian                  GFN2-xTB          :
          :  restarted?                      false          :
          :  GBSA solvation                  false          :
          :  PC potential                    false          :
          :  electronic temp.          300.0000000     K    :
          :  accuracy                    0.2000000          :
          :  -> integral cutoff          0.3198970E+02      :
          :  -> integral neglect         0.2000000E-08      :
          :  -> SCF convergence          0.2000000E-06 Eh   :
          :  -> wf. convergence          0.2000000E-04 e    :
          :  Broyden damping             0.4000000          :
          :  net charge                         -1          :
          :  unpaired electrons                  0          :
          ...................................................

 iter      E             dE          RMSdq      gap      omega  full diag
   1    -11.8674869 -0.118675E+02  0.717E+00    2.94       0.0  T
   2    -11.8816331 -0.141463E-01  0.454E+00    2.31       1.0  T
   3    -11.8821367 -0.503605E-03  0.175E+00    2.45       1.0  T
   4    -11.8847809 -0.264420E-02  0.102E+00    2.36       1.0  T
   5    -11.8853988 -0.617835E-03  0.548E-01    2.37       1.0  T
   6    -11.8857038 -0.305067E-03  0.248E-01    2.26       1.0  T
   7    -11.8857439 -0.400605E-04  0.823E-02    2.29       1.0  T
   8    -11.8857526 -0.875308E-05  0.365E-02    2.27       1.1  T
   9    -11.8857529 -0.289649E-06  0.818E-03    2.27       5.0  T
  10    -11.8857531 -0.145586E-06  0.233E-03    2.27      17.5  T
  11    -11.8857531 -0.760870E-09  0.205E-04    2.27     198.7  T
  12    -11.8857531  0.832756E-11  0.700E-05    2.27     582.8  T
  13    -11.8857531 -0.120490E-10  0.124E-05    2.27    3301.2  T

   *** convergence criteria satisfied after 13 iterations ***

         #    Occupation            Energy/Eh            Energy/eV
      -------------------------------------------------------------
         1        2.0000           -0.7193488             -19.5745
       ...           ...                  ...                  ...
         5        2.0000           -0.3776218             -10.2756
         6        2.0000           -0.3611806              -9.8282
         7        2.0000           -0.2864337              -7.7943
         8        2.0000           -0.2864264              -7.7941
         9        2.0000           -0.1776413              -4.8339
        10        2.0000           -0.1725631              -4.6957
        11        2.0000           -0.1725630              -4.6957 (HOMO)
        12                         -0.0892150              -2.4277 (LUMO)
        13                          0.1631317               4.4390
        14                          0.1631940               4.4407
        15                          0.1783500               4.8532
        16                          0.1783559               4.8533
       ...                                ...                  ...
        25                          0.4870271              13.2527
      -------------------------------------------------------------
                  HL-Gap            0.0833480 Eh            2.2680 eV
             Fermi-level           -0.1308890 Eh           -3.5617 eV

 SCC (total)                   0 d,  0 h,  0 min,  0.032 sec
 SCC setup                      ...        0 min,  0.000 sec (  0.710%)
 Dispersion                     ...        0 min,  0.000 sec (  0.187%)
 classical contributions        ...        0 min,  0.000 sec (  0.117%)
 integral evaluation            ...        0 min,  0.029 sec ( 90.474%)
 iterations                     ...        0 min,  0.002 sec (  6.018%)
 molecular gradient             ...        0 min,  0.001 sec (  1.951%)
 printout                       ...        0 min,  0.000 sec (  0.484%)

         :::::::::::::::::::::::::::::::::::::::::::::::::::::
         ::                     SUMMARY                     ::
         :::::::::::::::::::::::::::::::::::::::::::::::::::::
         :: total energy             -11.827123173727 Eh    ::
         :: gradient norm              0.001904033428 Eh/a0 ::
         :: HOMO-LUMO gap              2.268014416051 eV    ::
         ::.................................................::
         :: SCC energy               -11.885753958413 Eh    ::
         :: -> isotropic ES            0.145209366556 Eh    ::
         :: -> anisotropic ES         -0.004701903396 Eh    ::
         :: -> anisotropic XC         -0.005010963965 Eh    ::
         :: -> dispersion             -0.003355346523 Eh    ::
         :: repulsion energy           0.058630784686 Eh    ::
         :: add. restraining           0.000000000000 Eh    ::
         :: total charge              -1.000000000000 e     ::
         :::::::::::::::::::::::::::::::::::::::::::::::::::::


Property printout bound to 'properties.out'

           -------------------------------------------------
          | TOTAL ENERGY              -11.827123173727 Eh   |
          | GRADIENT NORM               0.001904033428 Eh/α |
          | HOMO-LUMO GAP               2.268014416051 eV   |
           -------------------------------------------------

------------------------------------------------------------------------
 * finished run on 2026/03/16 at 14:19:24.736     
------------------------------------------------------------------------
 total:
 * wall-time:     0 d,  0 h,  0 min,  0.047 sec
 *  cpu-time:     0 d,  0 h,  0 min,  0.297 sec
 * ratio c/w:     6.363 speedup
 SCF:
 * wall-time:     0 d,  0 h,  0 min,  0.032 sec
 *  cpu-time:     0 d,  0 h,  0 min,  0.227 sec
 * ratio c/w:     7.128 speedup


-------------------------   --------------------
FINAL SINGLE POINT ENERGY       -11.827123173730
-------------------------   --------------------


-------------
DIPOLE MOMENT
-------------
                                X             Y             Z
Total Dipole Moment    :      0.00000       0.00000      -2.66600
                        -----------------------------------------
Magnitude (a.u.)       :      2.66600
Magnitude (Debye)      :      6.77643


------------------
CARTESIAN GRADIENT
------------------

   1   C   :    0.000109638    0.000672056    0.000275294
   2   H   :   -0.000003473   -0.000703789    0.000179321
   3   H   :   -0.000128232    0.000052670    0.000345580
   4   H   :    0.000024950   -0.000002932    0.000380283
   5   I   :   -0.000000443   -0.000002690   -0.001478351
   6   Br  :   -0.000002439   -0.000015315    0.000297873

Difference to translation invariance:
           :   -0.0000000000   -0.0000000000    0.0000000000

Difference to rotation invariance:
           :   -0.0000000044   -0.0000000779   -0.0000000268

Norm of the Cartesian gradient     ...    0.0019040334
RMS gradient                       ...    0.0004487850
MAX gradient                       ...    0.0014783513
------------------------------------------------------------------------------
                         ORCA GEOMETRY RELAXATION STEP
------------------------------------------------------------------------------

Reading the OPT-File                    .... done
Getting information on internals        .... done
Copying old internal coords+grads       .... done
Making the new internal coordinates     .... (2022 redundants) done
Validating the new internal coordinates .... (2022 redundants) done
Calculating the B-matrix                .... done
Calculating the G,G- and P matrices     .... done
Transforming gradient to internals      .... done
Projecting the internal gradient        .... done
Number of atoms                         ....   6
Number of internal coordinates          ....  17
Current Energy                          ....   -11.827123174 Eh
Current gradient norm                   ....     0.001904033 Eh/bohr
Maximum allowed component of the step   ....  0.300
Current trust radius                    ....  0.300
Evaluating the initial hessian          ....  (Almloef) done
Projecting the Hessian                  .... done
Forming the augmented Hessian           .... done
Diagonalizing the augmented Hessian     .... done
Last element of RFO vector              ....  0.997052031
Lowest eigenvalues of augmented Hessian:
 -0.000060908  0.010059540  0.042346444  0.042391280  0.190822916
Length of the computed step             ....  0.076955258
The final length of the internal step   ....  0.076955258
Converting the step to Cartesian space:
 Initial RMS(Int)=    0.0186643917
Transforming coordinates:
 Iter   0:  RMS(Cart)=    0.0087086531 RMS(Int)=    0.0186699672
done
Storing new coordinates                 .... done

                                .--------------------.
          ----------------------|Geometry convergence|-------------------------
          Item                value                   Tolerance       Converged
          ---------------------------------------------------------------------
          RMS gradient        0.0002502639            0.0001000000      NO
          MAX gradient        0.0006006418            0.0003000000      NO
          RMS step            0.0186643917            0.0020000000      NO
          MAX step            0.0402868897            0.0040000000      NO
          -------------------------------------------------------------------------
          ........................................................
          Max(Bonds)      0.0213      Max(Angles)    0.01
          Max(Dihed)        0.00      Max(Improp)    0.00
          ---------------------------------------------------------------------

The optimization has not yet converged - more geometry cycles are needed


    ---------------------------------------------------------------------------
                         Redundant Internal Coordinates
                            (Angstroem and degrees)

        Definition                    Value    dE/dq     Step     New-Value
    ----------------------------------------------------------------------------
     1. B(H   1,C   0)                1.0793 -0.000601  0.0008    1.0802   
     2. B(H   2,C   0)                1.0803 -0.000010  0.0000    1.0803   
     3. B(H   3,C   0)                1.0805  0.000112 -0.0002    1.0803   
     4. B(I   4,H   2)                3.0110 -0.000380  0.0200    3.0310   
     5. B(I   4,H   1)                3.0110 -0.000380  0.0200    3.0310   
     6. B(I   4,H   3)                3.0110 -0.000381  0.0200    3.0311   
     7. B(I   4,C   0)                3.1517 -0.000406  0.0213    3.1730   
     8. B(Br  5,C   0)                1.9722 -0.000298  0.0006    1.9729   
     9. A(H   1,C   0,H   3)          111.49  0.000013   -0.00    111.49   
    10. A(H   2,C   0,H   3)          111.45 -0.000022    0.00    111.45   
    11. A(H   1,C   0,Br  5)          107.40  0.000034   -0.01    107.39   
    12. A(H   2,C   0,Br  5)          107.37 -0.000018    0.00    107.38   
    13. A(H   3,C   0,Br  5)          107.37 -0.000029    0.01    107.37   
    14. A(H   1,C   0,I   4)           72.62  0.000014   -0.00     72.62   
    15. A(H   2,C   0,I   4)           72.62  0.000001    0.00     72.62   
    16. A(H   3,C   0,I   4)           72.62 -0.000002    0.00     72.62   
    17. A(H   1,C   0,H   2)          111.50  0.000021   -0.00    111.49   
    ----------------------------------------------------------------------------

Geometry step timings:
Preparation and reading OPT file:      0.000 s ( 2.865 %)
Internal coordinates            :      0.000 s ( 3.731 %)
B/P matrices and projection     :      0.000 s (11.126 %)
Hessian update/contruction      :      0.000 s (32.045 %)
Making the step                 :      0.000 s (10.260 %)
Converting the step to Cartesian:      0.000 s ( 3.531 %)
Storing new data                :      0.000 s ( 6.929 %)
Checking convergence            :      0.000 s ( 6.795 %)
Final printing                  :      0.000 s (22.385 %)
Total time                      :      0.002 s

Time for energy+gradient        :      0.057 s
Time for complete geometry iter :      0.060 s

         *************************************************************
         *                GEOMETRY OPTIMIZATION CYCLE   2            *
         *************************************************************
---------------------------------
CARTESIAN COORDINATES (ANGSTROEM)
---------------------------------
  C     0.000031    0.000205   -0.381243
  H    -0.000025    1.031019   -0.058460
  H     0.892730   -0.515562   -0.058541
  H    -0.892727   -0.515531   -0.058558
  I     0.000002    0.000020    2.791803
  Br   -0.000012   -0.000069   -2.354105

----------------------------
CARTESIAN COORDINATES (A.U.)
----------------------------
  NO LB    ZA    FRAG    MASS        X           Y           Z
   0 C   6.0000    0    12.011    0.000059    0.000388   -0.720444
   1 H   1.0000    0     1.008   -0.000048    1.948344   -0.110473
   2 H   1.0000    0     1.008    1.687016   -0.974271   -0.110626
   3 H   1.0000    0     1.008   -1.687010   -0.974212   -0.110659
   4 I  53.0000    0   126.900    0.000005    0.000038    5.275743
   5 Br 35.0000    0    79.900   -0.000023   -0.000131   -4.448613

      -----------------------------------------------------------      
     |                   =====================                   |     
     |                           x T B                           |     
     |                   =====================                   |     
     |                         S. Grimme                         |     
     |          Mulliken Center for Theoretical Chemistry        |     
     |                    University of Bonn                     |     
      -----------------------------------------------------------      

   * xtb version 6.7.1 (edcfbbe) compiled by 'albert@albert-system' on 2024-07-22

   xtb is free software: you can redistribute it and/or modify it under
   the terms of the GNU Lesser General Public License as published by
   the Free Software Foundation, either version 3 of the License, or
   (at your option) any later version.
   
   xtb is distributed in the hope that it will be useful,
   but WITHOUT ANY WARRANTY; without even the implied warranty of
   MERCHANTABILITY or FITNESS FOR A PARTICULAR PURPOSE.  See the
   GNU Lesser General Public License for more details.
   
   Cite this work as:
   * C. Bannwarth, E. Caldeweyher, S. Ehlert, A. Hansen, P. Pracht,
     J. Seibert, S. Spicher, S. Grimme, WIREs Comput. Mol. Sci., 2020, 11,
     e01493. DOI: 10.1002/wcms.1493
   
   for GFN2-xTB:
   * C. Bannwarth, S. Ehlert and S. Grimme., J. Chem. Theory Comput., 2019,
     15, 1652-1671. DOI: 10.1021/acs.jctc.8b01176
   for GFN1-xTB:
   * S. Grimme, C. Bannwarth, P. Shushkov, J. Chem. Theory Comput., 2017,
     13, 1989-2009. DOI: 10.1021/acs.jctc.7b00118
   for GFN0-xTB:
   * P. Pracht, E. Caldeweyher, S. Ehlert, S. Grimme, ChemRxiv, 2019, preprint.
     DOI: 10.26434/chemrxiv.8326202.v1
   for GFN-FF:
   * S. Spicher and S. Grimme, Angew. Chem. Int. Ed., 2020, 59, 15665-15673.
     DOI: 10.1002/anie.202004239
   
   for ALPB and GBSA implicit solvation:
   * S. Ehlert, M. Stahn, S. Spicher, S. Grimme, J. Chem. Theory Comput.,
     2021, 17, 4250-4261. DOI: 10.1021/acs.jctc.1c00471
   
   for ddCOSMO and CPCM-X implicit solvation:
   * M. Stahn, S. Ehlert, S. Grimme, J. Phys. Chem. A,
     2023, XX, XXXX-XXXX. DOI: 10.1021/acs.jpca.3c04382
   
   for DFT-D4:
   * E. Caldeweyher, C. Bannwarth and S. Grimme, J. Chem. Phys., 2017,
     147, 034112. DOI: 10.1063/1.4993215
   * E. Caldeweyher, S. Ehlert, A. Hansen, H. Neugebauer, S. Spicher,
     C. Bannwarth and S. Grimme, J. Chem. Phys., 2019, 150, 154122.
     DOI: 10.1063/1.5090222
   * E. Caldeweyher, J.-M. Mewes, S. Ehlert and S. Grimme, Phys. Chem. Chem. Phys.
     2020, 22, 8499-8512. DOI: 10.1039/D0CP00502A
   
   for sTDA-xTB:
   * S. Grimme and C. Bannwarth, J. Chem. Phys., 2016, 145, 054103.
     DOI: 10.1063/1.4959605
   
   in the mass-spec context:
   * V. Asgeirsson, C. Bauer and S. Grimme, Chem. Sci., 2017, 8, 4879.
     DOI: 10.1039/c7sc00601b
   * J. Koopman and S. Grimme, ACS Omega 2019, 4, 12, 15120-15133.
     DOI: 10.1021/acsomega.9b02011
   
   for metadynamics refer to:
   * S. Grimme, J. Chem. Theory Comput., 2019, 155, 2847-2862
     DOI: 10.1021/acs.jctc.9b00143
   
   for SPH calculations refer to:
   * S. Spicher and S. Grimme, J. Chem. Theory Comput., 2021, 17, 1701-1714
     DOI: 10.1021/acs.jctc.0c01306
   
   for ONIOM refer to:
   * C. Plett, A. Katbashev, S. Ehlert, S. Grimme, M. Bursch,
     Phys. Chem. Chem. Phys., 2023, 25, 17860-17868. DOI: 10.1039/D3CP02178E
   
   for DIPRO refer to:
   * J. Kohn, N. Gildemeister, S. Grimme, D. Fazzi, A. Hansen,
     J. Chem. Phys., 2023, just accepted.
   
   for PTB refer to:
   * S. Grimme, M. Mueller, A. Hansen, J. Chem. Phys., 2023, 158, 124111.
     DOI: 10.1063/5.0137838
   
   with help from (in alphabetical order)
   P. Atkinson, C. Bannwarth, F. Bohle, G. Brandenburg, E. Caldeweyher
   M. Checinski, S. Dohm, S. Ehlert, S. Ehrlich, I. Gerasimov, C. Hölzer
   A. Katbashev, J. Kohn, J. Koopman, C. Lavigne, S. Lehtola, F. März, M. Müller,
   F. Musil, H. Neugebauer, J. Pisarek, C. Plett, P. Pracht, F. Pultar,
   J. Seibert, P. Shushkov, S. Spicher, M. Stahn, M. Steiner, T. Strunk,
   J. Stückrath, T. Rose, and J. Unsleber
   
 * started run on 2026/03/16 at 14:19:24.749     
   ID    Z sym.   atoms
    1    6 C      1
    2    1 H      2-4
    3   53 I      5
    4   35 Br     6

           -------------------------------------------------
          |                Calculation Setup                |
           -------------------------------------------------

          program call               : /software/orca-6.1.0-el8-x86_64/bin/otool_xtb reactant_optfreq_XTB.xyz --grad -c -1 -u 0 -P 8 --namespace reactant_optfreq --input reactant_optfreq_XTB.input.tmp --acc 0.200000
          hostname                   : midway3-login4.rcc.local
          calculation namespace      : reactant_optfreq
          coordinate file            : reactant_optfreq_XTB.xyz
          omp threads                :                     8


molecular fragmentation (1/2 indicates fragments):
111121
# atoms in fragment 1/2:     5     1
 fragment masses (1/2) :       94.94      126.90
CMA distance (Bohr)    :   9.115
constraining FC (au)   :  0.0500

           -------------------------------------------------
          |                 G F N 2 - x T B                 |
           -------------------------------------------------

        Reference                      10.1021/acs.jctc.8b01176
      * Hamiltonian:
        H0-scaling (s, p, d)           1.850000    2.230000    2.230000
        zeta-weighting                 0.500000
      * Dispersion:
        s8                             2.700000
        a1                             0.520000
        a2                             5.000000
        s9                             5.000000
      * Repulsion:
        kExp                           1.500000    1.000000
        rExp                           1.000000
      * Coulomb:
        alpha                          2.000000
        third order                    shell-resolved
        anisotropic                    true
        a3                             3.000000
        a5                             4.000000
        cn-shift                       1.200000
        cn-exp                         4.000000
        max-rad                        5.000000

q/qsh data taken from xtbrestart
CAMM data taken from xtbrestart

          ...................................................
          :                      SETUP                      :
          :.................................................:
          :  # basis functions                  27          :
          :  # atomic orbitals                  25          :
          :  # shells                           11          :
          :  # electrons                        22          :
          :  max. iterations                   250          :
          :  Hamiltonian                  GFN2-xTB          :
          :  restarted?                       true          :
          :  GBSA solvation                  false          :
          :  PC potential                    false          :
          :  electronic temp.          300.0000000     K    :
          :  accuracy                    0.2000000          :
          :  -> integral cutoff          0.3198970E+02      :
          :  -> integral neglect         0.2000000E-08      :
          :  -> SCF convergence          0.2000000E-06 Eh   :
          :  -> wf. convergence          0.2000000E-04 e    :
          :  Broyden damping             0.4000000          :
          :  net charge                         -1          :
          :  unpaired electrons                  0          :
          ...................................................

 iter      E             dE          RMSdq      gap      omega  full diag
   1    -11.8856756 -0.118857E+02  0.176E-01    2.24       0.0  T
   2    -11.8856784 -0.274243E-05  0.854E-02    2.22       1.0  T
   3    -11.8856787 -0.355074E-06  0.199E-02    2.21       2.1  T
   4    -11.8856788 -0.870598E-07  0.121E-02    2.21       3.4  T
   5    -11.8856789 -0.381318E-07  0.595E-03    2.21       6.9  T
   6    -11.8856789 -0.168427E-07  0.131E-03    2.22      31.3  T
   7    -11.8856789 -0.949971E-09  0.646E-04    2.22      63.2  T
   8    -11.8856789 -0.366796E-09  0.354E-04    2.22     115.4  T
   9    -11.8856789 -0.122316E-09  0.646E-05    2.22     632.1  T
  10    -11.8856789 -0.107647E-11  0.209E-06    2.22   19510.2  T

   *** convergence criteria satisfied after 10 iterations ***

         #    Occupation            Energy/Eh            Energy/eV
      -------------------------------------------------------------
         1        2.0000           -0.7200913             -19.5947
       ...           ...                  ...                  ...
         5        2.0000           -0.3783749             -10.2961
         6        2.0000           -0.3619805              -9.8500
         7        2.0000           -0.2872640              -7.8169
         8        2.0000           -0.2872584              -7.8167
         9        2.0000           -0.1769133              -4.8141
        10        2.0000           -0.1718919              -4.6774
        11        2.0000           -0.1718918              -4.6774 (HOMO)
        12                         -0.0904830              -2.4622 (LUMO)
        13                          0.1623256               4.4171
        14                          0.1623442               4.4176
        15                          0.1775251               4.8307
        16                          0.1775320               4.8309
       ...                                ...                  ...
        25                          0.4853724              13.2077
      -------------------------------------------------------------
                  HL-Gap            0.0814087 Eh            2.2152 eV
             Fermi-level           -0.1311874 Eh           -3.5698 eV

 SCC (total)                   0 d,  0 h,  0 min,  0.018 sec
 SCC setup                      ...        0 min,  0.000 sec (  1.216%)
 Dispersion                     ...        0 min,  0.000 sec (  0.311%)
 classical contributions        ...        0 min,  0.000 sec (  0.153%)
 integral evaluation            ...        0 min,  0.015 sec ( 84.622%)
 iterations                     ...        0 min,  0.002 sec (  9.094%)
 molecular gradient             ...        0 min,  0.001 sec (  3.336%)
 printout                       ...        0 min,  0.000 sec (  1.170%)

         :::::::::::::::::::::::::::::::::::::::::::::::::::::
         ::                     SUMMARY                     ::
         :::::::::::::::::::::::::::::::::::::::::::::::::::::
         :: total energy             -11.827166908607 Eh    ::
         :: gradient norm              0.001007805158 Eh/a0 ::
         :: HOMO-LUMO gap              2.215244016047 eV    ::
         ::.................................................::
         :: SCC energy               -11.885679795312 Eh    ::
         :: -> isotropic ES            0.145756158169 Eh    ::
         :: -> anisotropic ES         -0.004642057138 Eh    ::
         :: -> anisotropic XC         -0.004904145321 Eh    ::
         :: -> dispersion             -0.003339131586 Eh    ::
         :: repulsion energy           0.058512886705 Eh    ::
         :: add. restraining           0.000000000000 Eh    ::
         :: total charge              -1.000000000000 e     ::
         :::::::::::::::::::::::::::::::::::::::::::::::::::::


Property printout bound to 'properties.out'

           -------------------------------------------------
          | TOTAL ENERGY              -11.827166908607 Eh   |
          | GRADIENT NORM               0.001007805158 Eh/α |
          | HOMO-LUMO GAP               2.215244016047 eV   |
           -------------------------------------------------

------------------------------------------------------------------------
 * finished run on 2026/03/16 at 14:19:24.792     
------------------------------------------------------------------------
 total:
 * wall-time:     0 d,  0 h,  0 min,  0.043 sec
 *  cpu-time:     0 d,  0 h,  0 min,  0.195 sec
 * ratio c/w:     4.576 speedup
 SCF:
 * wall-time:     0 d,  0 h,  0 min,  0.018 sec
 *  cpu-time:     0 d,  0 h,  0 min,  0.129 sec
 * ratio c/w:     7.225 speedup


-------------------------   --------------------
FINAL SINGLE POINT ENERGY       -11.827166908610
-------------------------   --------------------


-------------
DIPOLE MOMENT
-------------
                                X             Y             Z
Total Dipole Moment    :      0.00000       0.00000      -2.71200
                        -----------------------------------------
Magnitude (a.u.)       :      2.71200
Magnitude (Debye)      :      6.89336


------------------
CARTESIAN GRADIENT
------------------

   1   C   :    0.000022945    0.000138976    0.000473286
   2   H   :   -0.000005912   -0.000231435    0.000167892
   3   H   :   -0.000159466    0.000053822    0.000182945
   4   H   :    0.000144575    0.000052050    0.000186266
   5   I   :   -0.000000090   -0.000000595   -0.000677433
   6   Br  :   -0.000002052   -0.000012817   -0.000332957

Difference to translation invariance:
           :   -0.0000000000    0.0000000000    0.0000000000

Difference to rotation invariance:
           :    0.0000000064   -0.0000000011    0.0000000000

Norm of the Cartesian gradient     ...    0.0010078052
RMS gradient                       ...    0.0002375420
MAX gradient                       ...    0.0006774328
------------------------------------------------------------------------------
                         ORCA GEOMETRY RELAXATION STEP
------------------------------------------------------------------------------

Reading the OPT-File                    .... done
Getting information on internals        .... done
Copying old internal coords+grads       .... done
Making the new internal coordinates     .... (2022 redundants) done
Validating the new internal coordinates .... (2022 redundants) done
Calculating the B-matrix                .... done
Calculating the G,G- and P matrices     .... done
Transforming gradient to internals      .... done
Projecting the internal gradient        .... done
Number of atoms                         ....   6
Number of internal coordinates          ....  17
Current Energy                          ....   -11.827166909 Eh
Current gradient norm                   ....     0.001007805 Eh/bohr
Maximum allowed component of the step   ....  0.300
Current trust radius                    ....  0.300
Updating the Hessian (BFGS)             .... done
Forming the augmented Hessian           .... done
Diagonalizing the augmented Hessian     .... done
Last element of RFO vector              ....  0.997730459
Lowest eigenvalues of augmented Hessian:
 -0.000025006  0.005364218  0.042346443  0.042391257  0.191071750
Length of the computed step             ....  0.067487637
The final length of the internal step   ....  0.067487637
Converting the step to Cartesian space:
 Initial RMS(Int)=    0.0163681563
Transforming coordinates:
 Iter   0:  RMS(Cart)=    0.0074687861 RMS(Int)=    0.0163721512
done
Storing new coordinates                 .... done
The predicted energy change is          ....    -0.000012560
Previously predicted energy change      ....    -0.000030634
Actually observed energy change         ....    -0.000043735
Ratio of predicted to observed change   ....     1.427651331
New trust radius                        ....     0.300000000

                                .--------------------.
          ----------------------|Geometry convergence|-------------------------
          Item                value                   Tolerance       Converged
          ---------------------------------------------------------------------
          Energy change      -0.0000437349            0.0000050000      NO
          RMS gradient        0.0001309147            0.0001000000      NO
          MAX gradient        0.0003329589            0.0003000000      NO
          RMS step            0.0163681563            0.0020000000      NO
          MAX step            0.0348874415            0.0040000000      NO
          -------------------------------------------------------------------------
          ........................................................
          Max(Bonds)      0.0185      Max(Angles)    0.03
          Max(Dihed)        0.00      Max(Improp)    0.00
          ---------------------------------------------------------------------

The optimization has not yet converged - more geometry cycles are needed


    ---------------------------------------------------------------------------
                         Redundant Internal Coordinates
                            (Angstroem and degrees)

        Definition                    Value    dE/dq     Step     New-Value
    ----------------------------------------------------------------------------
     1. B(H   1,C   0)                1.0802 -0.000162  0.0005    1.0806   
     2. B(H   2,C   0)                1.0803 -0.000095  0.0002    1.0806   
     3. B(H   3,C   0)                1.0803 -0.000080  0.0002    1.0805   
     4. B(I   4,H   2)                3.0310 -0.000190  0.0176    3.0487   
     5. B(I   4,H   1)                3.0310 -0.000189  0.0176    3.0486   
     6. B(I   4,H   3)                3.0311 -0.000190  0.0176    3.0487   
     7. B(I   4,C   0)                3.1730 -0.000141  0.0185    3.1915   
     8. B(Br  5,C   0)                1.9729  0.000333 -0.0012    1.9716   
     9. A(H   1,C   0,H   3)          111.49 -0.000007    0.01    111.49   
    10. A(H   2,C   0,H   3)          111.45 -0.000070    0.03    111.48   
    11. A(H   1,C   0,Br  5)          107.40  0.000057   -0.02    107.37   
    12. A(H   2,C   0,Br  5)          107.38  0.000014   -0.01    107.37   
    13. A(H   3,C   0,Br  5)          107.37  0.000005   -0.01    107.37   
    14. A(H   1,C   0,I   4)           72.62 -0.000024    0.01     72.63   
    15. A(H   2,C   0,I   4)           72.62 -0.000026    0.01     72.63   
    16. A(H   3,C   0,I   4)           72.62 -0.000026    0.01     72.63   
    17. A(H   1,C   0,H   2)          111.49  0.000006    0.00    111.50   
    ----------------------------------------------------------------------------

Geometry step timings:
Preparation and reading OPT file:      0.000 s ( 2.589 %)
Internal coordinates            :      0.000 s ( 3.960 %)
B/P matrices and projection     :      0.000 s (12.643 %)
Hessian update/contruction      :      0.000 s (28.713 %)
Making the step                 :      0.000 s ( 8.606 %)
Converting the step to Cartesian:      0.000 s ( 3.046 %)
Storing new data                :      0.000 s ( 7.007 %)
Checking convergence            :      0.000 s ( 8.682 %)
Final printing                  :      0.000 s (24.676 %)
Total time                      :      0.001 s

Time for energy+gradient        :      0.052 s
Time for complete geometry iter :      0.055 s

         *************************************************************
         *                GEOMETRY OPTIMIZATION CYCLE   3            *
         *************************************************************
---------------------------------
CARTESIAN COORDINATES (ANGSTROEM)
---------------------------------
  C     0.000002    0.000027   -0.384447
  H    -0.000018    1.031374   -0.061825
  H     0.893068   -0.515714   -0.061903
  H    -0.893064   -0.515690   -0.061919
  I     0.000009    0.000068    2.807053
  Br    0.000001    0.000017   -2.356063

----------------------------
CARTESIAN COORDINATES (A.U.)
----------------------------
  NO LB    ZA    FRAG    MASS        X           Y           Z
   0 C   6.0000    0    12.011    0.000004    0.000051   -0.726499
   1 H   1.0000    0     1.008   -0.000033    1.949014   -0.116832
   2 H   1.0000    0     1.008    1.687654   -0.974557   -0.116979
   3 H   1.0000    0     1.008   -1.687646   -0.974514   -0.117010
   4 I  53.0000    0   126.900    0.000018    0.000128    5.304562
   5 Br 35.0000    0    79.900    0.000002    0.000033   -4.452314

      -----------------------------------------------------------      
     |                   =====================                   |     
     |                           x T B                           |     
     |                   =====================                   |     
     |                         S. Grimme                         |     
     |          Mulliken Center for Theoretical Chemistry        |     
     |                    University of Bonn                     |     
      -----------------------------------------------------------      

   * xtb version 6.7.1 (edcfbbe) compiled by 'albert@albert-system' on 2024-07-22

   xtb is free software: you can redistribute it and/or modify it under
   the terms of the GNU Lesser General Public License as published by
   the Free Software Foundation, either version 3 of the License, or
   (at your option) any later version.
   
   xtb is distributed in the hope that it will be useful,
   but WITHOUT ANY WARRANTY; without even the implied warranty of
   MERCHANTABILITY or FITNESS FOR A PARTICULAR PURPOSE.  See the
   GNU Lesser General Public License for more details.
   
   Cite this work as:
   * C. Bannwarth, E. Caldeweyher, S. Ehlert, A. Hansen, P. Pracht,
     J. Seibert, S. Spicher, S. Grimme, WIREs Comput. Mol. Sci., 2020, 11,
     e01493. DOI: 10.1002/wcms.1493
   
   for GFN2-xTB:
   * C. Bannwarth, S. Ehlert and S. Grimme., J. Chem. Theory Comput., 2019,
     15, 1652-1671. DOI: 10.1021/acs.jctc.8b01176
   for GFN1-xTB:
   * S. Grimme, C. Bannwarth, P. Shushkov, J. Chem. Theory Comput., 2017,
     13, 1989-2009. DOI: 10.1021/acs.jctc.7b00118
   for GFN0-xTB:
   * P. Pracht, E. Caldeweyher, S. Ehlert, S. Grimme, ChemRxiv, 2019, preprint.
     DOI: 10.26434/chemrxiv.8326202.v1
   for GFN-FF:
   * S. Spicher and S. Grimme, Angew. Chem. Int. Ed., 2020, 59, 15665-15673.
     DOI: 10.1002/anie.202004239
   
   for ALPB and GBSA implicit solvation:
   * S. Ehlert, M. Stahn, S. Spicher, S. Grimme, J. Chem. Theory Comput.,
     2021, 17, 4250-4261. DOI: 10.1021/acs.jctc.1c00471
   
   for ddCOSMO and CPCM-X implicit solvation:
   * M. Stahn, S. Ehlert, S. Grimme, J. Phys. Chem. A,
     2023, XX, XXXX-XXXX. DOI: 10.1021/acs.jpca.3c04382
   
   for DFT-D4:
   * E. Caldeweyher, C. Bannwarth and S. Grimme, J. Chem. Phys., 2017,
     147, 034112. DOI: 10.1063/1.4993215
   * E. Caldeweyher, S. Ehlert, A. Hansen, H. Neugebauer, S. Spicher,
     C. Bannwarth and S. Grimme, J. Chem. Phys., 2019, 150, 154122.
     DOI: 10.1063/1.5090222
   * E. Caldeweyher, J.-M. Mewes, S. Ehlert and S. Grimme, Phys. Chem. Chem. Phys.
     2020, 22, 8499-8512. DOI: 10.1039/D0CP00502A
   
   for sTDA-xTB:
   * S. Grimme and C. Bannwarth, J. Chem. Phys., 2016, 145, 054103.
     DOI: 10.1063/1.4959605
   
   in the mass-spec context:
   * V. Asgeirsson, C. Bauer and S. Grimme, Chem. Sci., 2017, 8, 4879.
     DOI: 10.1039/c7sc00601b
   * J. Koopman and S. Grimme, ACS Omega 2019, 4, 12, 15120-15133.
     DOI: 10.1021/acsomega.9b02011
   
   for metadynamics refer to:
   * S. Grimme, J. Chem. Theory Comput., 2019, 155, 2847-2862
     DOI: 10.1021/acs.jctc.9b00143
   
   for SPH calculations refer to:
   * S. Spicher and S. Grimme, J. Chem. Theory Comput., 2021, 17, 1701-1714
     DOI: 10.1021/acs.jctc.0c01306
   
   for ONIOM refer to:
   * C. Plett, A. Katbashev, S. Ehlert, S. Grimme, M. Bursch,
     Phys. Chem. Chem. Phys., 2023, 25, 17860-17868. DOI: 10.1039/D3CP02178E
   
   for DIPRO refer to:
   * J. Kohn, N. Gildemeister, S. Grimme, D. Fazzi, A. Hansen,
     J. Chem. Phys., 2023, just accepted.
   
   for PTB refer to:
   * S. Grimme, M. Mueller, A. Hansen, J. Chem. Phys., 2023, 158, 124111.
     DOI: 10.1063/5.0137838
   
   with help from (in alphabetical order)
   P. Atkinson, C. Bannwarth, F. Bohle, G. Brandenburg, E. Caldeweyher
   M. Checinski, S. Dohm, S. Ehlert, S. Ehrlich, I. Gerasimov, C. Hölzer
   A. Katbashev, J. Kohn, J. Koopman, C. Lavigne, S. Lehtola, F. März, M. Müller,
   F. Musil, H. Neugebauer, J. Pisarek, C. Plett, P. Pracht, F. Pultar,
   J. Seibert, P. Shushkov, S. Spicher, M. Stahn, M. Steiner, T. Strunk,
   J. Stückrath, T. Rose, and J. Unsleber
   
 * started run on 2026/03/16 at 14:19:24.803     
   ID    Z sym.   atoms
    1    6 C      1
    2    1 H      2-4
    3   53 I      5
    4   35 Br     6

           -------------------------------------------------
          |                Calculation Setup                |
           -------------------------------------------------

          program call               : /software/orca-6.1.0-el8-x86_64/bin/otool_xtb reactant_optfreq_XTB.xyz --grad -c -1 -u 0 -P 8 --namespace reactant_optfreq --input reactant_optfreq_XTB.input.tmp --acc 0.200000
          hostname                   : midway3-login4.rcc.local
          calculation namespace      : reactant_optfreq
          coordinate file            : reactant_optfreq_XTB.xyz
          omp threads                :                     8


molecular fragmentation (1/2 indicates fragments):
111121
# atoms in fragment 1/2:     5     1
 fragment masses (1/2) :       94.94      126.90
CMA distance (Bohr)    :   9.147
constraining FC (au)   :  0.0500

           -------------------------------------------------
          |                 G F N 2 - x T B                 |
           -------------------------------------------------

        Reference                      10.1021/acs.jctc.8b01176
      * Hamiltonian:
        H0-scaling (s, p, d)           1.850000    2.230000    2.230000
        zeta-weighting                 0.500000
      * Dispersion:
        s8                             2.700000
        a1                             0.520000
        a2                             5.000000
        s9                             5.000000
      * Repulsion:
        kExp                           1.500000    1.000000
        rExp                           1.000000
      * Coulomb:
        alpha                          2.000000
        third order                    shell-resolved
        anisotropic                    true
        a3                             3.000000
        a5                             4.000000
        cn-shift                       1.200000
        cn-exp                         4.000000
        max-rad                        5.000000

q/qsh data taken from xtbrestart
CAMM data taken from xtbrestart

          ...................................................
          :                      SETUP                      :
          :.................................................:
          :  # basis functions                  27          :
          :  # atomic orbitals                  25          :
          :  # shells                           11          :
          :  # electrons                        22          :
          :  max. iterations                   250          :
          :  Hamiltonian                  GFN2-xTB          :
          :  restarted?                       true          :
          :  GBSA solvation                  false          :
          :  PC potential                    false          :
          :  electronic temp.          300.0000000     K    :
          :  accuracy                    0.2000000          :
          :  -> integral cutoff          0.3198970E+02      :
          :  -> integral neglect         0.2000000E-08      :
          :  -> SCF convergence          0.2000000E-06 Eh   :
          :  -> wf. convergence          0.2000000E-04 e    :
          :  Broyden damping             0.4000000          :
          :  net charge                         -1          :
          :  unpaired electrons                  0          :
          ...................................................

 iter      E             dE          RMSdq      gap      omega  full diag
   1    -11.8856006 -0.118856E+02  0.154E-01    2.20       0.0  T
   2    -11.8856032 -0.264961E-05  0.714E-02    2.19       1.0  T
   3    -11.8856035 -0.305075E-06  0.172E-02    2.18       2.4  T
   4    -11.8856036 -0.453089E-07  0.885E-03    2.18       4.6  T
   5    -11.8856036 -0.152929E-07  0.464E-03    2.18       8.8  T
   6    -11.8856036 -0.104978E-07  0.536E-04    2.18      76.1  T
   7    -11.8856036 -0.101370E-09  0.270E-04    2.18     151.3  T
   8    -11.8856036 -0.536424E-10  0.196E-04    2.18     208.2  T
   9    -11.8856036 -0.388560E-10  0.490E-05    2.18     832.4  T

   *** convergence criteria satisfied after 9 iterations ***

         #    Occupation            Energy/Eh            Energy/eV
      -------------------------------------------------------------
         1        2.0000           -0.7208856             -19.6163
       ...           ...                  ...                  ...
         5        2.0000           -0.3791447             -10.3171
         6        2.0000           -0.3628625              -9.8740
         7        2.0000           -0.2880724              -7.8388
         8        2.0000           -0.2880708              -7.8388
         9        2.0000           -0.1762046              -4.7948
        10        2.0000           -0.1712552              -4.6601
        11        2.0000           -0.1712551              -4.6601 (HOMO)
        12                         -0.0912151              -2.4821 (LUMO)
        13                          0.1614511               4.3933
        14                          0.1614513               4.3933
        15                          0.1767769               4.8103
        16                          0.1767804               4.8104
       ...                                ...                  ...
        25                          0.4857377              13.2176
      -------------------------------------------------------------
                  HL-Gap            0.0800400 Eh            2.1780 eV
             Fermi-level           -0.1312351 Eh           -3.5711 eV

 SCC (total)                   0 d,  0 h,  0 min,  0.037 sec
 SCC setup                      ...        0 min,  0.000 sec (  0.573%)
 Dispersion                     ...        0 min,  0.000 sec (  0.140%)
 classical contributions        ...        0 min,  0.000 sec (  0.073%)
 integral evaluation            ...        0 min,  0.035 sec ( 93.252%)
 iterations                     ...        0 min,  0.001 sec (  3.898%)
 molecular gradient             ...        0 min,  0.001 sec (  1.594%)
 printout                       ...        0 min,  0.000 sec (  0.427%)

         :::::::::::::::::::::::::::::::::::::::::::::::::::::
         ::                     SUMMARY                     ::
         :::::::::::::::::::::::::::::::::::::::::::::::::::::
         :: total energy             -11.827181159341 Eh    ::
         :: gradient norm              0.000655423337 Eh/a0 ::
         :: HOMO-LUMO gap              2.177998684426 eV    ::
         ::.................................................::
         :: SCC energy               -11.885604547300 Eh    ::
         :: -> isotropic ES            0.146293114565 Eh    ::
         :: -> anisotropic ES         -0.004623033514 Eh    ::
         :: -> anisotropic XC         -0.004913753132 Eh    ::
         :: -> dispersion             -0.003326224109 Eh    ::
         :: repulsion energy           0.058423387959 Eh    ::
         :: add. restraining           0.000000000000 Eh    ::
         :: total charge              -1.000000000000 e     ::
         :::::::::::::::::::::::::::::::::::::::::::::::::::::


Property printout bound to 'properties.out'

           -------------------------------------------------
          | TOTAL ENERGY              -11.827181159341 Eh   |
          | GRADIENT NORM               0.000655423337 Eh/α |
          | HOMO-LUMO GAP               2.177998684426 eV   |
           -------------------------------------------------

------------------------------------------------------------------------
 * finished run on 2026/03/16 at 14:19:24.853     
------------------------------------------------------------------------
 total:
 * wall-time:     0 d,  0 h,  0 min,  0.049 sec
 *  cpu-time:     0 d,  0 h,  0 min,  0.207 sec
 * ratio c/w:     4.181 speedup
 SCF:
 * wall-time:     0 d,  0 h,  0 min,  0.037 sec
 *  cpu-time:     0 d,  0 h,  0 min,  0.147 sec
 * ratio c/w:     3.963 speedup


-------------------------   --------------------
FINAL SINGLE POINT ENERGY       -11.827181159340
-------------------------   --------------------


-------------
DIPOLE MOMENT
-------------
                                X             Y             Z
Total Dipole Moment    :     -0.00000      -0.00000      -2.75500
                        -----------------------------------------
Magnitude (a.u.)       :      2.75500
Magnitude (Debye)      :      7.00265


------------------
CARTESIAN GRADIENT
------------------

   1   C   :   -0.000005424   -0.000033693    0.000486048
   2   H   :   -0.000002579    0.000023072    0.000018625
   3   H   :   -0.000033869    0.000002676    0.000002366
   4   H   :    0.000042280    0.000010510   -0.000000975
   5   I   :    0.000000059    0.000000337   -0.000079582
   6   Br  :   -0.000000466   -0.000002903   -0.000426481

Difference to translation invariance:
           :    0.0000000000   -0.0000000000   -0.0000000000

Difference to rotation invariance:
           :   -0.0000000043    0.0000000037   -0.0000000000

Norm of the Cartesian gradient     ...    0.0006554233
RMS gradient                       ...    0.0001544848
MAX gradient                       ...    0.0004860476
------------------------------------------------------------------------------
                         ORCA GEOMETRY RELAXATION STEP
------------------------------------------------------------------------------

Reading the OPT-File                    .... done
Getting information on internals        .... done
Copying old internal coords+grads       .... done
Making the new internal coordinates     .... (2022 redundants) done
Validating the new internal coordinates .... (2022 redundants) done
Calculating the B-matrix                .... done
Calculating the G,G- and P matrices     .... done
Transforming gradient to internals      .... done
Projecting the internal gradient        .... done
Number of atoms                         ....   6
Number of internal coordinates          ....  17
Current Energy                          ....   -11.827181159 Eh
Current gradient norm                   ....     0.000655423 Eh/bohr
Maximum allowed component of the step   ....  0.300
Current trust radius                    ....  0.300
Updating the Hessian (BFGS)             .... done
Forming the augmented Hessian           .... done
Diagonalizing the augmented Hessian     .... done
Last element of RFO vector              ....  0.999916170
Lowest eigenvalues of augmented Hessian:
 -0.000001479  0.004607211  0.042346447  0.042391319  0.191336615
Length of the computed step             ....  0.012949187
The final length of the internal step   ....  0.012949187
Converting the step to Cartesian space:
 Initial RMS(Int)=    0.0031406391
Transforming coordinates:
 Iter   0:  RMS(Cart)=    0.0014140983 RMS(Int)=    0.0031407821
done
Storing new coordinates                 .... done
The predicted energy change is          ....    -0.000000740
Previously predicted energy change      ....    -0.000012560
Actually observed energy change         ....    -0.000014251
Ratio of predicted to observed change   ....     1.134608180
New trust radius                        ....     0.450000000

                                .--------------------.
          ----------------------|Geometry convergence|-------------------------
          Item                value                   Tolerance       Converged
          ---------------------------------------------------------------------
          Energy change      -0.0000142507            0.0000050000      NO
          RMS gradient        0.0001050895            0.0001000000      NO
          MAX gradient        0.0004264810            0.0003000000      NO
          RMS step            0.0031406391            0.0020000000      NO
          MAX step            0.0066870650            0.0040000000      NO
          -------------------------------------------------------------------------
          ........................................................
          Max(Bonds)      0.0035      Max(Angles)    0.01
          Max(Dihed)        0.00      Max(Improp)    0.00
          ---------------------------------------------------------------------

The optimization has not yet converged - more geometry cycles are needed


    ---------------------------------------------------------------------------
                         Redundant Internal Coordinates
                            (Angstroem and degrees)

        Definition                    Value    dE/dq     Step     New-Value
    ----------------------------------------------------------------------------
     1. B(H   1,C   0)                1.0806  0.000028  0.0000    1.0806   
     2. B(H   2,C   0)                1.0806 -0.000028  0.0001    1.0806   
     3. B(H   3,C   0)                1.0805 -0.000040  0.0001    1.0806   
     4. B(I   4,H   2)                3.0487 -0.000018  0.0033    3.0520   
     5. B(I   4,H   1)                3.0486 -0.000018  0.0033    3.0519   
     6. B(I   4,H   3)                3.0487 -0.000018  0.0033    3.0520   
     7. B(I   4,C   0)                3.1915 -0.000029  0.0035    3.1950   
     8. B(Br  5,C   0)                1.9716  0.000426 -0.0012    1.9705   
     9. A(H   1,C   0,H   3)          111.49  0.000012   -0.00    111.49   
    10. A(H   2,C   0,H   3)          111.48 -0.000016    0.01    111.49   
    11. A(H   1,C   0,Br  5)          107.37  0.000002   -0.00    107.37   
    12. A(H   2,C   0,Br  5)          107.37 -0.000007    0.00    107.37   
    13. A(H   3,C   0,Br  5)          107.37 -0.000009    0.00    107.37   
    14. A(H   1,C   0,I   4)           72.63  0.000004   -0.00     72.63   
    15. A(H   2,C   0,I   4)           72.63  0.000005   -0.00     72.63   
    16. A(H   3,C   0,I   4)           72.63  0.000005   -0.00     72.63   
    17. A(H   1,C   0,H   2)          111.50  0.000018   -0.00    111.49   
    ----------------------------------------------------------------------------

Geometry step timings:
Preparation and reading OPT file:      0.000 s ( 2.663 %)
Internal coordinates            :      0.000 s ( 4.278 %)
B/P matrices and projection     :      0.000 s (12.349 %)
Hessian update/contruction      :      0.000 s (26.473 %)
Making the step                 :      0.000 s ( 8.959 %)
Converting the step to Cartesian:      0.000 s ( 2.744 %)
Storing new data                :      0.000 s ( 7.829 %)
Checking convergence            :      0.000 s ( 9.524 %)
Final printing                  :      0.000 s (25.101 %)
Total time                      :      0.001 s

Time for energy+gradient        :      0.058 s
Time for complete geometry iter :      0.061 s

         *************************************************************
         *                GEOMETRY OPTIMIZATION CYCLE   4            *
         *************************************************************
---------------------------------
CARTESIAN COORDINATES (ANGSTROEM)
---------------------------------
  C    -0.000003   -0.000001   -0.385243
  H    -0.000009    1.031363   -0.062621
  H     0.893153   -0.515704   -0.062663
  H    -0.893158   -0.515697   -0.062672
  I     0.000010    0.000075    2.809795
  Br    0.000006    0.000048   -2.355699

----------------------------
CARTESIAN COORDINATES (A.U.)
----------------------------
  NO LB    ZA    FRAG    MASS        X           Y           Z
   0 C   6.0000    0    12.011   -0.000005   -0.000002   -0.728004
   1 H   1.0000    0     1.008   -0.000016    1.948993   -0.118337
   2 H   1.0000    0     1.008    1.687814   -0.974540   -0.118415
[...]
        25                          0.4876300              13.2691
      -------------------------------------------------------------
                  HL-Gap            0.0799744 Eh            2.1762 eV
             Fermi-level           -0.1310453 Eh           -3.5659 eV

 SCC (total)                   0 d,  0 h,  0 min,  0.023 sec
 SCC setup                      ...        0 min,  0.000 sec (  0.964%)
 Dispersion                     ...        0 min,  0.000 sec (  0.257%)
 classical contributions        ...        0 min,  0.000 sec (  0.156%)
 integral evaluation            ...        0 min,  0.021 sec ( 91.249%)
 iterations                     ...        0 min,  0.001 sec (  4.130%)
 molecular gradient             ...        0 min,  0.001 sec (  2.531%)
 printout                       ...        0 min,  0.000 sec (  0.652%)

         :::::::::::::::::::::::::::::::::::::::::::::::::::::
         ::                     SUMMARY                     ::
         :::::::::::::::::::::::::::::::::::::::::::::::::::::
         :: total energy             -11.827182458705 Eh    ::
         :: gradient norm              0.000303780566 Eh/a0 ::
         :: HOMO-LUMO gap              2.176215118125 eV    ::
         ::.................................................::
         :: SCC energy               -11.885631891467 Eh    ::
         :: -> isotropic ES            0.146491248269 Eh    ::
         :: -> anisotropic ES         -0.004646496251 Eh    ::
         :: -> anisotropic XC         -0.005009831043 Eh    ::
         :: -> dispersion             -0.003324170793 Eh    ::
         :: repulsion energy           0.058449432762 Eh    ::
         :: add. restraining           0.000000000000 Eh    ::
         :: total charge              -1.000000000000 e     ::
         :::::::::::::::::::::::::::::::::::::::::::::::::::::

           ------------------------------------------------- 
          |                Numerical Hessian                |
           ------------------------------------------------- 
step length          :   0.00500
SCC accuracy         :   0.30000
Hessian scale factor :   1.00000
frozen atoms in %    :   0.00000    0
RMS gradient         :   0.00030
estimated CPU  time      0.00 min
estimated wall time      0.00 min

writing file <hessian>.

 projected vibrational frequencies (cm⁻¹)
eigval :       -0.00    -0.00    -0.00    -0.00     0.00     0.00
eigval :       88.39   103.70   103.72   456.73   949.34   949.34
eigval :     1275.09  1433.56  1433.59  3078.55  3101.78  3101.84

Property printout bound to 'properties.out'
Molecule has the following symmetry elements: (C3) 3*(sigma) 
It seems to be the C3v point group

           -------------------------------------------------
          | TOTAL ENERGY              -11.827182458705 Eh   |
          | TOTAL ENTHALPY            -11.784197388374 Eh   |
          | TOTAL FREE ENERGY         -11.821421648257 Eh   |
          | GRADIENT NORM               0.000303785250 Eh/α |
          | HOMO-LUMO GAP               2.176215165950 eV   |
           -------------------------------------------------

------------------------------------------------------------------------
 * finished run on 2026/03/16 at 14:19:25.153     
------------------------------------------------------------------------
 total:
 * wall-time:     0 d,  0 h,  0 min,  0.147 sec
 *  cpu-time:     0 d,  0 h,  0 min,  0.367 sec
 * ratio c/w:     2.504 speedup
 SCF:
 * wall-time:     0 d,  0 h,  0 min,  0.023 sec
 *  cpu-time:     0 d,  0 h,  0 min,  0.162 sec
 * ratio c/w:     7.143 speedup
 analytical hessian:
 * wall-time:     0 d,  0 h,  0 min,  0.061 sec
 *  cpu-time:     0 d,  0 h,  0 min,  0.123 sec
 * ratio c/w:     2.007 speedup


-------------------------   --------------------
FINAL SINGLE POINT ENERGY       -11.827182458710
-------------------------   --------------------


-------------
DIPOLE MOMENT
-------------
                                X             Y             Z
Total Dipole Moment    :     -0.00000      -0.00000      -2.76700
                        -----------------------------------------
Magnitude (a.u.)       :      2.76700
Magnitude (Debye)      :      7.03316


-----------------------
VIBRATIONAL FREQUENCIES
-----------------------

Scaling factor for frequencies =  1.000000000  (already applied!)

     0:       0.00 cm**-1
     1:       0.00 cm**-1
     2:       0.00 cm**-1
     3:       0.00 cm**-1
     4:       0.00 cm**-1
     5:       0.00 cm**-1
     6:      88.39 cm**-1
     7:     103.70 cm**-1
     8:     103.71 cm**-1
     9:     456.73 cm**-1
    10:     949.31 cm**-1
    11:     949.32 cm**-1
    12:    1275.05 cm**-1
    13:    1433.52 cm**-1
    14:    1433.55 cm**-1
    15:    3078.46 cm**-1
    16:    3101.69 cm**-1
    17:    3101.75 cm**-1


------------
NORMAL MODES
------------

These modes are the Cartesian displacements weighted by the diagonal matrix
M(i,i)=1/sqrt(m[i]) where m[i] is the mass of the displaced atom
Thus, these vectors are normalized but *not* orthogonal

                  0          1          2          3          4          5    
      0       0.000000   0.000000   0.000000   0.000000   0.000000   0.000000
      1       0.000000   0.000000   0.000000   0.000000   0.000000   0.000000
      2       0.000000   0.000000   0.000000   0.000000   0.000000   0.000000
      3       0.000000   0.000000   0.000000   0.000000   0.000000   0.000000
      4       0.000000   0.000000   0.000000   0.000000   0.000000   0.000000
      5       0.000000   0.000000   0.000000   0.000000   0.000000   0.000000
      6       0.000000   0.000000   0.000000   0.000000   0.000000   0.000000
      7       0.000000   0.000000   0.000000   0.000000   0.000000   0.000000
      8       0.000000   0.000000   0.000000   0.000000   0.000000   0.000000
      9       0.000000   0.000000   0.000000   0.000000   0.000000   0.000000
     10       0.000000   0.000000   0.000000   0.000000   0.000000   0.000000
     11       0.000000   0.000000   0.000000   0.000000   0.000000   0.000000
     12       0.000000   0.000000   0.000000   0.000000   0.000000   0.000000
     13       0.000000   0.000000   0.000000   0.000000   0.000000   0.000000
     14       0.000000   0.000000   0.000000   0.000000   0.000000   0.000000
     15       0.000000   0.000000   0.000000   0.000000   0.000000   0.000000
     16       0.000000   0.000000   0.000000   0.000000   0.000000   0.000000
     17       0.000000   0.000000   0.000000   0.000000   0.000000   0.000000
                  6          7          8          9         10         11    
      0       0.000039   0.422843   0.004891  -0.000003  -0.010124   0.103824
      1       0.000279  -0.004891   0.422843  -0.000030   0.103826   0.010123
      2       0.454620  -0.000003  -0.000012   0.674627   0.000006   0.000001
      3       0.000046   0.494464   0.005697  -0.000001   0.023885  -0.244963
      4       0.009155  -0.005758   0.497827   0.053689  -0.149822  -0.014608
      5       0.402377   0.002667  -0.230897   0.417235   0.755456   0.073667
      6       0.007686   0.496898   0.004243   0.046509  -0.024280  -0.177620
      7      -0.004081  -0.007352   0.495197  -0.026867  -0.217159  -0.062785
      8       0.402604  -0.201283   0.113115   0.417282  -0.441508   0.617407
      9      -0.007593   0.496863   0.007273  -0.046511   0.058135  -0.169584
     10      -0.004081  -0.004104   0.495196  -0.026867  -0.225202   0.019652
     11       0.402645   0.198607   0.117738   0.417292  -0.313917  -0.691067
     12      -0.000002  -0.021054  -0.000244  -0.000000  -0.000013   0.000138
     13      -0.000016   0.000244  -0.021054   0.000000   0.000138   0.000013
     14      -0.331931   0.000003   0.000022   0.000395  -0.000000  -0.000000
     15      -0.000004  -0.048901  -0.000566   0.000000   0.000815  -0.008355
     16      -0.000030   0.000566  -0.048901   0.000005  -0.008356  -0.000815
     17       0.443608  -0.000004  -0.000032  -0.117833  -0.000001  -0.000000
                 12         13         14         15         16         17    
      0      -0.000000   0.000705  -0.072493  -0.000019  -0.092185  -0.004641
      1       0.000002  -0.072491  -0.000705  -0.000165  -0.004641   0.092184
      2      -0.088919  -0.000003   0.000000   0.035331  -0.000011   0.000069
      3       0.000000  -0.007278   0.748382  -0.000009  -0.041142  -0.002076
      4      -0.173136  -0.121237  -0.001184  -0.554996   0.039166  -0.775415
      5       0.548346   0.297228   0.002890  -0.152385   0.012175  -0.241132
      6      -0.149950   0.375607   0.099832  -0.482364   0.552854   0.380923
      7       0.086548   0.527322   0.381710   0.278409  -0.345016  -0.179976
      8       0.548381  -0.151087   0.255947  -0.152979   0.202545   0.130620
      9       0.149951  -0.377472   0.092506   0.482597   0.588111  -0.323475
     10       0.086548   0.534647  -0.371384   0.278554   0.361221  -0.144412
     11       0.548382  -0.146081  -0.258836  -0.153065  -0.214574   0.109618
     12      -0.000000  -0.000000   0.000007   0.000000   0.000023   0.000001
     13      -0.000000   0.000007   0.000000   0.000000   0.000001  -0.000023
     14      -0.000858  -0.000000  -0.000000   0.000089  -0.000000   0.000000
     15       0.000000   0.000010  -0.000982  -0.000000  -0.000053  -0.000003
     16       0.000000  -0.000982  -0.000010  -0.000000  -0.000003   0.000053
     17      -0.006024  -0.000000  -0.000000   0.000330  -0.000000   0.000001


The first frequency considered to be a vibration is 6
The total number of vibrations considered is 12


--------------------------
THERMOCHEMISTRY AT 298.15K
--------------------------

Temperature         ...   298.15 K
Pressure            ...     1.00 atm
Total Mass          ...   221.84 AMU
Quasi RRHO          ...     True
Cut-Off Frequency   ...     1.00 cm^-1

Throughout the following assumptions are being made:
  (1) The electronic state is orbitally nondegenerate
  (2) There are no thermally accessible electronically excited states
  (3) Hindered rotations indicated by low frequency modes are not
      treated as such but are treated as vibrations and this may
      cause some error
  (4) All equations used are the standard statistical mechanics
      equations for an ideal gas
  (5) All vibrations are strictly harmonic

freq.      88.39  E(vib)   ...       0.48 
freq.     103.70  E(vib)   ...       0.46 
freq.     103.71  E(vib)   ...       0.46 
freq.     456.73  E(vib)   ...       0.16 
freq.     949.31  E(vib)   ...       0.03 
freq.     949.32  E(vib)   ...       0.03 
freq.    1275.05  E(vib)   ...       0.01 
freq.    1433.52  E(vib)   ...       0.00 
freq.    1433.55  E(vib)   ...       0.00 
freq.    3078.46  E(vib)   ...       0.00 
freq.    3101.69  E(vib)   ...       0.00 
freq.    3101.75  E(vib)   ...       0.00 

------------
INNER ENERGY
------------

The inner energy is: U= E(el) + E(ZPE) + E(vib) + E(rot) + E(trans)
    E(el)   - is the total energy from the electronic structure calculation
              = E(kin-el) + E(nuc-el) + E(el-el) + E(nuc-nuc)
    E(ZPE)  - the the zero temperature vibrational energy from the frequency calculation
    E(vib)  - the the finite temperature correction to E(ZPE) due to population
              of excited vibrational states
    E(rot)  - is the rotational thermal energy
    E(trans)- is the translational thermal energy

Summary of contributions to the inner energy U:
Electronic energy                ...    -11.82718246 Eh
Zero point energy                ...      0.03662199 Eh      22.98 kcal/mol
Thermal vibrational correction   ...      0.00258529 Eh       1.62 kcal/mol
Thermal rotational correction    ...      0.00141627 Eh       0.89 kcal/mol
Thermal translational correction ...      0.00141627 Eh       0.89 kcal/mol
-----------------------------------------------------------------------
Total thermal energy                    -11.78514263 Eh


Summary of corrections to the electronic energy:
(perhaps to be used in another calculation)
Total thermal correction                  0.00541784 Eh       3.40 kcal/mol
Non-thermal (ZPE) correction              0.03662199 Eh      22.98 kcal/mol
-----------------------------------------------------------------------
Total correction                          0.04203983 Eh      26.38 kcal/mol


--------
ENTHALPY
--------

The enthalpy is H = U + kB*T
                kB is Boltzmann's constant
Total thermal energy              ...    -11.78514263 Eh 
Thermal Enthalpy correction       ...      0.00094421 Eh       0.59 kcal/mol
-----------------------------------------------------------------------
Total Enthalpy                    ...    -11.78419842 Eh


WARNING (ORCA/SYM): The number of Z matrix atoms does not agree with
the number of centers in the basis set. The point group will therefore
be determined without considering basis set information.


Note: Rotational entropy computed according to Herzberg 
Infrared and Raman Spectra, Chapter V,1, Van Nostrand Reinhold, 1945 
Point Group:  Cs, Symmetry Number:   1  
Rotational constants in cm-1:     5.241173     0.012691     0.012691 

Vibrational entropy computed according to the QRRHO of S. Grimme
Chem.Eur.J. 2012 18 9955 using a reference frequency of 100.0 cm-1


-------
ENTROPY
-------

The entropy contributions are T*S = T*(S(el)+S(vib)+S(rot)+S(trans))
     S(el)   - electronic entropy
     S(vib)  - vibrational entropy
     S(rot)  - rotational entropy
     S(trans)- translational entropy
The entropies will be listed as multiplied by the temperature to get
units of energy

Electronic entropy                ...      0.00000000 Eh      0.00 kcal/mol
Vibrational entropy               ...      0.00501788 Eh      3.15 kcal/mol
Rotational entropy                ...      0.01285186 Eh      8.06 kcal/mol
Translational entropy             ...      0.01999968 Eh     12.55 kcal/mol
-----------------------------------------------------------------------
Final entropy term                ...      0.03786941 Eh     23.76 kcal/mol

In case the symmetry of your molecule has not been determined correctly
or in case you have a reason to use a different symmetry number we print 
out the resulting rotational entropy values for sn=1,12:

 non-linear molecules -----------------------------------
|  sn= 1 | S(rot)=       0.01285186 Eh      8.06 kcal/mol|
|  sn= 2 | S(rot)=       0.01219740 Eh      7.65 kcal/mol|
|  sn= 3 | S(rot)=       0.01181457 Eh      7.41 kcal/mol|
|  sn= 4 | S(rot)=       0.01154295 Eh      7.24 kcal/mol|
|  sn= 5 | S(rot)=       0.01133226 Eh      7.11 kcal/mol|
|  sn= 6 | S(rot)=       0.01116011 Eh      7.00 kcal/mol|
|  sn= 7 | S(rot)=       0.01101457 Eh      6.91 kcal/mol|
|  sn= 8 | S(rot)=       0.01088849 Eh      6.83 kcal/mol|
|  sn= 9 | S(rot)=       0.01077728 Eh      6.76 kcal/mol|
|  sn=10 | S(rot)=       0.01067780 Eh      6.70 kcal/mol|
|  sn=11 | S(rot)=       0.01058781 Eh      6.64 kcal/mol|
|  sn=12 | S(rot)=       0.01050566 Eh      6.59 kcal/mol|
 linear molecules ---------------------------------------
|  Dinfh | S(rot)=       0.00944889 Eh      5.93 kcal/mol|
|  Cinfv | S(rot)=       0.01010335 Eh      6.34 kcal/mol|
 --------------------------------------------------------


-------------------
GIBBS FREE ENERGY
-------------------

The Gibbs free energy is G = H - T*S

Total enthalpy                    ...    -11.78419842 Eh 
Total entropy correction          ...     -0.03786941 Eh    -23.76 kcal/mol
-----------------------------------------------------------------------
Final Gibbs free energy         ...    -11.82206784 Eh

For completeness - the Gibbs free energy minus the electronic energy
G-E(el)                           ...      0.00511462 Eh      3.21 kcal/mol


--------------------------------
SUGGESTED CITATIONS FOR THIS RUN
--------------------------------

Below you find a list of papers that are relevant to this ORCA run
We neither can nor want to force you to cite these papers, but we appreciate if you do
You receive ORCA, which is the product of decades of hard work by many enthusiastic individuals, for free
The only thing we kindly ask in return is that you cite our papers,
We deeply appreciate it, if you show your appreciation for ORCA by not just citing the generic ORCA reference.

Please note that relegating all ORCA citations to the supporting information does *not* help us.
SI sections are not indexed - citations you put there will not count into any citation statistics
But we need these citations in order to attract the funding resources that allow us to do what we are doing

Therefore, if you are a happy ORCA user, please consider citing a few of the papers listed below in the main body of your paper

In addition to the list printed below, the program has created the file reactant_optfreq.bibtex that contains the list in bibtex format
You can import this file easily into all common literature databanks and citation aid programs


List of essential papers. We consider these as the minimum necessary citations

  1. Bannwarth, C.; Ehlert, S.; Grimme, S.
     GFN2-xTB—An Accurate and Broadly Parametrized Self-Consistent Tight-Binding Quantum Chemical Method with Multipole Electrostatics and Density-Dependent Dispersion Contributions
     J. Chem. Theory Comput. 2019 15(3), 1652-1671
     doi.org/10.1021/acs.jctc.8b01176
  2. Neese, F.
     Software update: the ORCA program system, version 6.0
     WIRES Comput. Molec. Sci. 2025 15(1), e70019
     doi.org/10.1002/wcms.7019

List of papers to cite with high priority. The work reported in these papers was absolutely
necessary for this run to complete.
Our perspective: the developers of density functionals and basis sets usually get cited in chemistry papers
Good! But without the algorithms to do something with them, the functionals or basis sets would not do anything.
Hence, in our opinion, the algorithm design and method developments papers are equally worthy of getting cited

  1. Bykov, D.; Petrenko, T.; Izsak, R.; Kossmann, S.; Becker, U.; Valeev, E.; Neese, F.
     Efficient implementation of the analytic second derivatives of Hartree-Fock and hybrid DFT energies: a detailed analysis of different approximations
     Molec. Phys. 2015 113 , 1961-1977
     doi.org/10.1080/00268976.2015.1025114
  2. Bannwarth, C.; Caldeweyher, E.; Ehlert, S.; Hansen, A.; Pracht, P.; Seibert, J.; Spicher, S.; Grimme, S.
     Extended tight-binding quantum chemistry methods
     WIRES Comput. Molec. Sci. 2020 11(2), e1493
     doi.org/10.1002/wcms.1493

List of suggested additional citations. These are papers that are important in the 'surrounding' of 
of this run, or papers that preceded the highly important papers. If you like your results we are grateful for a citation.

  1. Neese, F.
     The ORCA program system
     WIRES Comput. Molec. Sci. 2012 2(1), 73-78
     doi.org/10.1002/wcms.81
  2. Neese, F.
     Software update: the ORCA program system, version 4.0
     WIRES Comput. Molec. Sci. 2018 8(1), 1-6
     doi.org/10.1002/wcms.1327
  3. Neese, F.; Wennmohs, F.; Becker, U.; Riplinger, C.
     The ORCA quantum chemistry program package
     J. Chem. Phys. 2020 152(22), 224108
     doi.org/10.1063/5.0004608
  4. Neese, F.
     Software update: The ORCA program system—Version 5.0
     WIRES Comput. Molec. Sci. 2022 12(1), e1606
     doi.org/10.1002/wcms.1606

List of optional additional citations

  1. Neese, F.
     Approximate second-order SCF convergence for spin unrestricted wavefunctions
     Chem. Phys. Lett. 2000 325(1-3), 93-98
     doi.org/10.1016/s0009-2614(00)00662-x

Timings for individual modules:

Sum of individual times          ...        0.466 sec (=   0.008 min)
Geometry relaxation              ...        0.011 sec (=   0.000 min)   2.3 %
XTB module                       ...        0.456 sec (=   0.008 min)  97.7 %
                             ****ORCA TERMINATED NORMALLY****
TOTAL RUN TIME: 0 days 0 hours 0 minutes 0 seconds 915 msec
