
                                 *****************
                                 * O   R   C   A *
                                 *****************

                                            #,                                       
                                            ###                                      
                                            ####                                     
                                            #####                                    
                                            ######                                   
                                           ########,                                 
                                     ,,################,,,,,                         
                               ,,#################################,,                 
                          ,,##########################################,,             
                       ,#########################################, ''#####,          
                    ,#############################################,,   '####,        
                  ,##################################################,,,,####,       
                ,###########''''           ''''###############################       
              ,#####''   ,,,,##########,,,,          '''####'''          '####       
            ,##' ,,,,###########################,,,                        '##       
           ' ,,###''''                  '''############,,,                           
         ,,##''                                '''############,,,,        ,,,,,,###''
      ,#''                                            '''#######################'''  
     '                                                          ''''####''''         
             ,#######,   #######,   ,#######,      ##                                
            ,#'     '#,  ##    ##  ,#'     '#,    #''#        ,####,    ,#,          
            ##       ##  ##   ,#'  ##            #'  '#       #'       ,# #          
            ##       ##  #######   ##           ,######,      #####,      #          
            '#,     ,#'  ##    ##  '#,     ,#' ,#      #,     #,   #      #          
             '#######'   ##     ##  '#######'  #'      '#     '####' #    #          



                #########################################################
                #                        -***-                          #
                #          Department of theory and spectroscopy        #
                #                                                       #
                #                      Frank Neese                      #
                #                                                       #
                #     Directorship, Architecture, Infrastructure        #
                #                    SHARK, DRIVERS                     #
                #        Core code/Algorithms in most modules           #
                #                                                       #
                #        Max Planck Institute fuer Kohlenforschung      #
                #                Kaiser Wilhelm Platz 1                 #
                #                 D-45470 Muelheim/Ruhr                 #
                #                      Germany                          #
                #                                                       #
                #                  All rights reserved                  #
                #                        -***-                          #
                #########################################################


                         Program Version 6.1.0  -  RELEASE   -
                                (GIT: $679e74b$)
                          ($2025-06-10 18:02:51 +0200$)


 With contributions from (in alphabetic order):
[Max-Planck-Institut fuer Kohlenforschung]                               
  Daniel Aravena         : Magnetic Suceptibility                        
  Michael Atanasov       : Ab Initio Ligand Field Theory (pilot matlab implementation)
  Alexander A. Auer      : GIAO ZORA, VPT2 properties, NMR spectrum      
  Ute Becker             : All parallelization in ORCA, NUMFREQ, NUMCALC 
  Giovanni Bistoni       : ED, misc. LED, open-shell LED, HFLD           
  Dmytro Bykov           : pre 5.0 version of the SCF Hessian            
  Marcos Casanova-Páez   : Triplet and SCS-CIS(D). UHF-(DLPNO)-IP/EA/STEOM-CCSD. UHF-CVS-IP/STEOM-CCSD   
  Vijay G. Chilkuri      : MRCI spin determinant printing, contributions to CSF-ICE 
  Pauline Colinet        : FMM embedding                                 
  Dipayan Datta          : RHF DLPNO-CCSD density                        
  Achintya Kumar Dutta   : EOM-CC, STEOM-CC                              
  Nicolas Foglia         : Exact transition moments, OPA infrastructure, MCD improvements    
  Dmitry Ganyushin       : Spin-Orbit,Spin-Spin,Magnetic field MRCI      
  Miquel Garcia-Rates    : C-PCM and meta-GGA Hessian, CCSD/C-PCM, Gaussian charge scheme 
  Tiago L. C. Gouveia    : GS-ROHF, GS-ROCIS                             
  Yang Guo               : DLPNO-NEVPT2, F12-NEVPT2, CIM, IAO-localization        
  Andreas Hansen         : Spin unrestricted coupled pair/coupled cluster methods 
  Ingolf Harden          : AUTO-CI MPn and infrastructure                
  Benjamin Helmich-Paris : MC-RPA, TRAH-(SCF,CASSCF), AVAS, COSX integrals, SCF dyn. polar., MC-PDFT, srDFT 
  Lee Huntington         : MR-EOM, pCC                                   
  Robert Izsak           : Overlap fitted RIJCOSX, COSX-SCS-MP3, EOM     
  Riya Kayal             : Wick's Theorem for AUTO-CI, AUTO-CI UHF-CCSDT 
  Emily Kempfer          : AUTO-CI RHF CISDT and CCSDT, approximate NEVPT4
  Christian Kollmar      : KDIIS, OOCD, Brueckner-CCSD(T), CCSD density, CASPT2, CASPT2-K, improved NEVPT2 
  Axel Koslowski         : Symmetry handling                             
  Simone Kossmann        : meta-GGA functionals, TD-DFT gradient, OOMP2, (MP2 Hessian; deprecated post 5.0) 
  Lucas Lang             : DCDCAS, Hyperfine gauge corrections, ICE-SOC+SSC
  Marvin Lechner         : AUTO-CI (C++ implementation), FIC-MRCC        
  Spencer Leger          : CASSCF response                               
  Dagmar Lenk            : GEPOL surface, SMD, ORCA-2-JSON               
  Dimitrios Liakos       : Extrapolation schemes; Compound Job, Property file
  Dimitrios Manganas     : Further ROCIS development; embedding schemes. LFT, Crystal Embedding 
  Dimitrios Pantazis     : SARC Basis sets                               
  Anastasios Papadopoulos: AUTO-CI, single reference methods and gradients 
  Taras Petrenko         : pre 6.0 DFT Hessian and TD-DFT gradient,  ECA, NRVS 
  Petra Pikulova         : Analytic Raman intensities                    
  Peter Pinski           : DLPNO-MP2, DLPNO-MP2 Gradient                 
  Shashank Vittal Rao    : ES-AILFT, MagRelax                            
  Christoph Reimann      : Effective Core Potentials                     
  Marius Retegan         : Local ZFS, SOC                                
  Christoph Riplinger    : Optimizer, TS searches, QM/MM, DLPNO-CCSD(T), (RO)-DLPNO pert. Triples 
  Michael Roemelt        : Original ROCIS implementation, recursive CI coupling coefficients
  Masaaki Saitow         : Open-shell DLPNO-CCSD energy and density      
  Barbara Sandhoefer     : DKH picture change effects                    
  Yorick L. A. Schmerwitz: GMF and freeze-and-release deltaSCF, NEB S-IDPP initial path                    
  Kantharuban Sivalingam : CASSCF convergence/infrastructure, NEVPT2, NEVPT3, NEVPT4(SD), FIC-MRCI and CEPA variants
  Bernardo de Souza      : ESD, SOC TD-DFT                               
  Georgi L. Stoychev     : AutoAux, RI-MP2 NMR, DLPNO-MP2 response, X2C  
  Van Anh Tran           : RI-MP2 g-tensors                              
  Willem Van den Heuvel  : Paramagnetic NMR                              
  Zikuan Wang            : NOTCH, Electric field optimization            
  Frank Wennmohs         : Technical directorship and infrastructure     
  Hang Xu                : AUTO-CI-Response properties                   
                                                                         
[FACCTs GmbH]                                                            
  Markus Bursch, Nicolas Foglia, Miquel Garcia-Rates, Ingolf Harden, Hagen Neugebauer, Anastasios Papadopoulos, 
  Christoph Riplinger, Bernardo de Souza, Georgi L. Stoychev                                                    
                                                                 
  APM, various basis sets, CI-OPT, improved COSX, DLPNO-Multilevel,           
  DOCKER, DRACO, updates on ESD, Fragmentator, GOAT, IRC, LR-CPCM, L-BFGS, MBIS, meta-GGA TD-DFT gradient, ML-optimized integration grids, 
  MM, NACMEs, nearIR, NEB, NEB-TS, NL-DFT gradient (VV10), 2- and 3-layer-ONIOM, interface openCOSMO-RS, QMMM,   
  Crystal-QMMM, RESP, rigid body optimization, SF, symmetry and pop. for TD-DFT, various functionals, SOLVATOR                                   
                                                                         
[Other institutions]                                                     
  V. Asgeirsson          : NEB                                           
  Christoph Bannwarth    : sTDA-DFT, sTD-DFT, PBEh-3c, B97-3c, D3        
  Giovanni Bistoni       : ETS/NOCV, ADLD/ADEX, COVALED                  
  Martin Brehm           : Molecular dynamics                            
  Ronald Cardenas        : ETS/NOCV                                      
  Martina Colucci        : COVALED                                       
  Sebastian Ehlert       : rSCAN, r2SCAN, r2SCAN-3c, D4, dhf basis sets  
  Marvin Friede          : D4 for Fr, Ra, Ac-Lr                          
  Lars Goerigk           : TD-DFT with DH, B97 family of functionals     
  Stefan Grimme          : VdW corrections, initial TS optimization, DFT functionals, gCP, sTDA/sTD-DF 
  Waldemar Hujo          : DFT-NL                                        
  H. Jonsson             : NEB                                           
  Holger Kruse           : gCP                                           
  Marcel Mueller         : wB97X-3c, vDZP basis set                      
  Hagen Neugebauer       : wr2SCAN, Native XTB                           
  Gianluca Regni         : ADLD/ADEX                                     
  Tobias Risthaus        : pre 6.0 range-separated hybrid DFT and stability analysis
  Lukas Wittmann         : regularized MP2, r2SCAN double-hybrids, wr2SCAN        
                                                                         
We gratefully acknowledge several colleagues who have allowed us to      
interface, adapt or use parts of their codes:                            
  Ed Valeev, F. Pavosevic, A. Kumar             : LibInt (2-el integral package), F12 methods 
  Garnet Chan, S. Sharma, J. Yang, R. Olivares  : DMRG                   
  Ulf Ekstrom                                   : XCFun DFT Library      
  Mihaly Kallay                                 : mrcc  (arbitrary order and MRCC methods)
  Frank Weinhold                                : gennbo (NPA and NBO analysis)           
  Simon Mueller                                 : openCOSMO-RS                            
  Christopher J. Cramer and Donald G. Truhlar   : smd solvation model                     
  S Lehtola, MJT Oliveira, MAL Marques          : LibXC Library                           
  Liviu Ungur et al                             : ANISO software                          


 Your calculation uses the libint2 library for the computation of 2-el integrals
 For citations please refer to: http://libint.valeyev.net

 Your ORCA version has been built with support for libXC version: 7.0.0
 For citations please refer to: https://libxc.gitlab.io

 This ORCA versions uses:
   CBLAS   interface :  Fast vector & matrix operations
   LAPACKE interface :  Fast linear algebra routines
   SCALAPACK package :  Parallel linear algebra routines
   Shared memory     :  Shared parallel matrices
   BLAS/LAPACK       :  OpenBLAS 0.3.29  USE64BITINT DYNAMIC_ARCH NO_AFFINITY SkylakeX SINGLE_THREADED
        Core in use  :  SkylakeX
   Copyright (c) 2011-2014, The OpenBLAS Project


  ***********************************
  * Starting time: Fri Mar  6 16:00:07 2026
  * Host name:     midway3-login3.rcc.local
  * Process ID:    1093406
  * Working dir.:  /home/rzhu16/orca_TS_search/sn2/IRC
  ***********************************



***************************************
The coordinates will be read from file: ../TS_search/sn2.xyz
***************************************


Warning: RI is on but no J-basis has been assigned. Assigning Def2/J (nothing to worry about!)
================================================================================

----- Orbital basis set information -----
Your calculation utilizes the basis: def2-SVP
   F. Weigend and R. Ahlrichs, Phys. Chem. Chem. Phys. 7, 3297 (2005).

----- AuxJ basis set information -----
Your calculation utilizes the auxiliary basis: def2/J
   H-Rn: F. Weigend, Phys. Chem. Chem. Phys. 8, 1057 (2006).
   Fr-Lr: K. Eichkorn, F. Weigend, O. Treutler, R. Ahlrichs; Theor. Chem. Acc. 97, 119 (1997).

================================================================================
                                        WARNINGS
                       Please study these warnings very carefully!
================================================================================

WARNING: SinglePoint found together with IRC
         Switching on EnGrad - energy plus gradient calculation
WARNING: Old DensityContainer found on disk!
         Will remove this file - 
         If you want to keep old densities, please start your calculation with a different basename. 


WARNING: MOInp is set but Guess=PModel. MOInp will be ignored!
         To read the initial guess from a file you must also specify
         'MORead' in the simple input or 'Guess MORead' in the %scf block


================================================================================
                                       INPUT FILE
================================================================================
NAME = sn2.inp
|  1> ! B3LYP def2-SVP TightSCF IRC
|  2> 
|  3> %pal
|  4>   nprocs 1
|  5> end
|  6> 
|  7> %moinp "../TS_search/sn2.gbw"
|  8> 
|  9> %irc
| 10>   Direction both
| 11>   MaxIter 70
| 12>   InitHess read
| 13>   Hess_Filename "../TS_search/sn2.hess"
| 14> end
| 15> 
| 16> * xyzfile -1 1 ../TS_search/sn2.xyz
| 17> 
| 18>                          ****END OF INPUT****
================================================================================

                     *******************************
                     * Energy+Gradient Calculation *
                     *******************************

---------------------------------
CARTESIAN COORDINATES (ANGSTROEM)
---------------------------------
  C     -0.000000    0.000033    0.000000
  H     -0.000000    1.085633    0.000001
  H      0.940141   -0.542803   -0.000001
  H     -0.940141   -0.542803    0.000000
  F     -0.000000   -0.000030    1.804482
  F      0.000000   -0.000030   -1.804481

----------------------------
CARTESIAN COORDINATES (A.U.)
----------------------------
  NO LB      ZA    FRAG     MASS         X           Y           Z
   0 C     6.0000    0    12.011   -0.000000    0.000062    0.000000
   1 H     1.0000    0     1.008   -0.000000    2.051548    0.000001
   2 H     1.0000    0     1.008    1.776610   -1.025748   -0.000002
   3 H     1.0000    0     1.008   -1.776610   -1.025748    0.000000
   4 F     9.0000    0    18.998   -0.000000   -0.000056    3.409976
   5 F     9.0000    0    18.998    0.000001   -0.000057   -3.409975

--------------------------------
INTERNAL COORDINATES (ANGSTROEM)
--------------------------------
 C      0   0   0     0.000000000000     0.00000000     0.00000000
 H      1   0   0     1.085599913693     0.00000000     0.00000000
 H      1   2   0     1.085603906136   120.00203821     0.00000000
 H      1   2   3     1.085603942057   120.00202621   180.00006237
 F      1   2   3     1.804481339907    90.00194807    90.00007224
 F      1   2   3     1.804481462959    90.00202574   270.00008085

---------------------------
INTERNAL COORDINATES (A.U.)
---------------------------
 C      0   0   0     0.000000000000     0.00000000     0.00000000
 H      1   0   0     2.051486527889     0.00000000     0.00000000
 H      1   2   0     2.051494072512   120.00203821     0.00000000
 H      1   2   3     2.051494140393   120.00202621   180.00006237
 F      1   2   3     3.409975546196    90.00194807    90.00007224
 F      1   2   3     3.409975778731    90.00202574   270.00008085

---------------------
BASIS SET INFORMATION
---------------------
There are 3 groups of distinct atoms

 Group   1 Type C   : 7s4p1d contracted to 3s2p1d pattern {511/31/1}
 Group   2 Type H   : 4s1p contracted to 2s1p pattern {31/1}
 Group   3 Type F   : 7s4p1d contracted to 3s2p1d pattern {511/31/1}

Atom   0C    basis set group =>   1
Atom   1H    basis set group =>   2
Atom   2H    basis set group =>   2
Atom   3H    basis set group =>   2
Atom   4F    basis set group =>   3
Atom   5F    basis set group =>   3
---------------------------------
AUXILIARY/J BASIS SET INFORMATION
---------------------------------
There are 3 groups of distinct atoms

 Group   1 Type C   : 12s5p4d2f1g contracted to 6s4p3d1f1g pattern {711111/2111/211/2/1}
 Group   2 Type H   : 5s2p1d contracted to 3s1p1d pattern {311/2/1}
 Group   3 Type F   : 12s5p4d2f1g contracted to 6s4p3d1f1g pattern {711111/2111/211/2/1}

Atom   0C    basis set group =>   1
Atom   1H    basis set group =>   2
Atom   2H    basis set group =>   2
Atom   3H    basis set group =>   2
Atom   4F    basis set group =>   3
Atom   5F    basis set group =>   3
------------------------------------------------------------------------------
                             ORCA STARTUP CALCULATIONS
                           -- RI-GTO INTEGRALS CHOSEN --
------------------------------------------------------------------------------
------------------------------------------------------------------------------
                   ___                                                        
                  /   \      - P O W E R E D   B Y -                         
                 /     \                                                     
                 |  |  |   _    _      __       _____    __    __             
                 |  |  |  | |  | |    /  \     |  _  \  |  |  /  |          
                  \  \/   | |  | |   /    \    | | | |  |  | /  /          
                 / \  \   | |__| |  /  /\  \   | |_| |  |  |/  /          
                |  |  |   |  __  | /  /__\  \  |    /   |      \           
                |  |  |   | |  | | |   __   |  |    \   |  |\   \          
                \     /   | |  | | |  |  |  |  | |\  \  |  | \   \       
                 \___/    |_|  |_| |__|  |__|  |_| \__\ |__|  \__/        
                                                                              
                      - O R C A' S   B I G   F R I E N D -                    
                                      &                                       
                       - I N T E G R A L  F E E D E R -                       
                                                                              
 v1 FN, 2020, v2 2021, v3 2022-2024                                           
------------------------------------------------------------------------------


----------------------
SHARK INTEGRAL PACKAGE
----------------------

Number of atoms                             ...      6
Number of basis functions                   ...     57
Number of shells                            ...     27
Maximum angular momentum                    ...      2
Integral batch strategy                     ... SHARK/LIBINT Hybrid
RI-J (if used) integral strategy            ... SPLIT-RIJ (Revised 2003 algorithm where possible)
Printlevel                                  ...      1
Contraction scheme used                     ... SEGMENTED contraction
Prescreening option                         ... SCHWARTZ
   Thresh                                   ... 2.500e-11
   Tcut                                     ... 2.500e-12
   Tpresel                                  ... 2.500e-12 
Coulomb Range Separation                    ... NOT USED
Exchange Range Separation                   ... NOT USED
Multipole approximations                    ... NOT USED
Finite Nucleus Model                        ... NOT USED
CABS basis                                  ... NOT available
Auxiliary Coulomb fitting basis             ... AVAILABLE
   # of basis functions in Aux-J            ...    180
   # of shells in Aux-J                     ...     60
   Maximum angular momentum in Aux-J        ...      4
Auxiliary J/K fitting basis                 ... NOT available
Auxiliary Correlation fitting basis         ... NOT available
Auxiliary 'external' fitting basis          ... NOT available

Checking pre-screening integrals            ... done (  0.0 sec) Dimension = 27
   => SHARK Basis and OBASIS are compatible. Storing Pre-screening
Shell pair information
Shell pair cut-off parameter TPreSel        ...   2.5e-12
Total number of shell pairs                 ...       378
Shell pairs after pre-screening             ...       368
Total number of primitive shell pairs       ...      1374
Primitive shell pairs kept                  ...      1125
          la=0 lb=0:    115 shell pairs
          la=1 lb=0:    133 shell pairs
          la=1 lb=1:     44 shell pairs
          la=2 lb=0:     43 shell pairs
          la=2 lb=1:     27 shell pairs
          la=2 lb=2:      6 shell pairs

Checking whether 4 symmetric matrices of dimension 57 fit in memory
:Max Core in MB      =   4096.00
 MB in use           =      3.68
 MB left             =   4092.32
 MB needed           =      0.05
 Data fit in memory  = YES
Calculating RI/J V-Matrix + Cholesky decomp.... done (  0.2 sec)
Calculating Nuclear repulsion               ... done (  0.0 sec) ENN=     66.736577803533 Eh

Diagonalization of the overlap matrix:
Smallest eigenvalue                        ... 1.192e-02
Time for diagonalization                   ...    0.001 sec
Threshold for overlap eigenvalues          ... 1.000e-07
Number of eigenvalues below threshold      ... 0
Time for construction of square roots      ...    0.002 sec
Total time needed                          ...    0.003 sec

-------------------
DFT GRID GENERATION
-------------------

General Integration Accuracy     IntAcc      ... 4.388
Radial Grid Type                 RadialGrid  ... OptM3 with GC (2021)
Angular Grid (max. ang.)         AngularGrid ... 4 (Lebedev-302)
Angular grid pruning method      GridPruning ... 4 (adaptive)
Weight generation scheme         WeightScheme... mBecke (2022)
Basis function cutoff            BFCut       ... 1.0000e-11
Integration weight cutoff        WCut        ... 1.0000e-14
Partially contracted basis set               ... off
Rotationally invariant grid construction     ... off
Angular grids for H and He will be reduced by one unit

Total number of grid points                  ...    28200
Total number of batches                      ...      445
Average number of points per batch           ...       63
Average number of grid points per atom       ...     4700

--------------------
COSX GRID GENERATION
--------------------

GRIDX 1
-------
General Integration Accuracy     IntAcc      ... 3.816
Radial Grid Type                 RadialGrid  ... OptM3 with GC (2021)
Angular Grid (max. ang.)         AngularGrid ... 1 (Lebedev-50)
Angular grid pruning method      GridPruning ... 4 (adaptive)
Weight generation scheme         WeightScheme... mBecke (2022)
Basis function cutoff            BFCut       ... 1.0000e-11
Integration weight cutoff        WCut        ... 1.0000e-14
Partially contracted basis set               ... on
Rotationally invariant grid construction     ... off
Angular grids for H and He will be reduced by one unit

Total number of grid points                  ...     3611
Total number of batches                      ...       30
Average number of points per batch           ...      120
Average number of grid points per atom       ...      602
UseSFitting                                  ... on

GRIDX 2
-------
General Integration Accuracy     IntAcc      ... 4.020
Radial Grid Type                 RadialGrid  ... OptM3 with GC (2021)
Angular Grid (max. ang.)         AngularGrid ... 2 (Lebedev-110)
Angular grid pruning method      GridPruning ... 4 (adaptive)
Weight generation scheme         WeightScheme... mBecke (2022)
Basis function cutoff            BFCut       ... 1.0000e-11
Integration weight cutoff        WCut        ... 1.0000e-14
Partially contracted basis set               ... on
Rotationally invariant grid construction     ... off
Angular grids for H and He will be reduced by one unit

Total number of grid points                  ...     7977
Total number of batches                      ...       65
Average number of points per batch           ...      122
Average number of grid points per atom       ...     1330
UseSFitting                                  ... on

GRIDX 3
-------
General Integration Accuracy     IntAcc      ... 4.338
Radial Grid Type                 RadialGrid  ... OptM3 with GC (2021)
Angular Grid (max. ang.)         AngularGrid ... 3 (Lebedev-194)
Angular grid pruning method      GridPruning ... 4 (adaptive)
Weight generation scheme         WeightScheme... mBecke (2022)
Basis function cutoff            BFCut       ... 1.0000e-11
Integration weight cutoff        WCut        ... 1.0000e-14
Partially contracted basis set               ... on
Rotationally invariant grid construction     ... off
Angular grids for H and He will be reduced by one unit

Total number of grid points                  ...    17670
Total number of batches                      ...      142
Average number of points per batch           ...      124
Average number of grid points per atom       ...     2945
UseSFitting                                  ... on
Grids setup in   0.2 sec
Initializing property integral containers    ... done (  0.0 sec)

SHARK setup successfully completed in   0.9 seconds

Maximum memory used throughout the entire STARTUP-calculation: 12.8 MB
-------------------------------------------------------------------------------
                                 ORCA GUESS
                   Start orbitals & Density for SCF / CASSCF
-------------------------------------------------------------------------------

------------
SCF SETTINGS
------------
Hamiltonian:
 Density Functional     Method          .... DFT(GTOs)
 Exchange Functional    Exchange        .... B88
   X-Alpha parameter    XAlpha          ....  0.666667
   Becke's b parameter  XBeta           ....  0.004200
 Correlation Functional Correlation     .... LYP
 LDA part of GGA corr.  LDAOpt          .... VWN-5
 Gradients option       PostSCFGGA      .... off
 Hybrid DFT is turned on
   Fraction HF Exchange ScalHFX         ....  0.200000
   Scaling of DF-GGA-X  ScalDFX         ....  0.720000
   Scaling of DF-GGA-C  ScalDFC         ....  0.810000
   Scaling of DF-LDA-C  ScalLDAC        ....  1.000000
   Perturbative correction              ....  0.000000
   NL short-range parameter             ....  4.800000
 RI-approximation to the Coulomb term is turned on
   Number of AuxJ basis functions       .... 180
   RIJ-COSX (HFX calculated with COS-X)).... on


General Settings:
 Integral files         IntName         .... sn2
 Hartree-Fock type      HFTyp           .... RHF
 Total Charge           Charge          ....   -1
 Multiplicity           Mult            ....    1
 Number of Electrons    NEL             ....   28
 Basis Dimension        Dim             ....   57
 Nuclear Repulsion      ENuc            ....     66.7365778035 Eh

Convergence Acceleration:
 AO-DIIS                CNVDIIS         .... on
   Start iteration      DIISMaxIt       ....    12
   Startup error        DIISStart       ....  0.200000
   # of expansion vecs  DIISMaxEq       ....     5
   Bias factor          DIISBfac        ....   1.050
   Max. coefficient     DIISMaxC        ....  10.000
 MO-DIIS                CNVKDIIS        .... off
 Trust-Rad. Augm. Hess. CNVTRAH         .... auto
   Auto Start mean grad. ratio tolernc. ....  1.125000
   Auto Start start iteration           ....    50
   Auto Start num. interpolation iter.  ....    10
   Max. Number of Micro iterations      ....    24
   Max. Number of Macro iterations      .... Maxiter - #DIIS iter
   Number of Davidson start vectors     ....     2
   Converg. threshold    (grad. norm)   ....   1.000e-05
   Grad. Scal. Fac. for Micro threshold ....   0.100
   Minimum threshold for Micro iter.    ....   1.000e-02
   NR start threshold (gradient norm)   ....   1.000e-04
   Initial trust radius                 ....   0.400
   Minimum AH scaling param. (alpha)    ....   1.000
   Maximum AH scaling param. (alpha)    .... 1000.000
   Quad. conv. algorithm                .... NR
   White noise on init. David. guess    .... on
   Maximum white noise                  ....   0.010
   Pseudo random numbers                .... off
   Inactive MOs                         .... canonical
   Orbital update algorithm             .... Taylor
   Preconditioner                       .... Diag
   Full preconditioner red. dimension   ....   250
 SOSCF                 CNVSOSCF           .... on
   Start iteration     SOSCFMaxIt         ....   150
   Startup grad/error  SOSCFStart         ....  0.003300
   Hessian update      SOSCFHessUp        .... L-BFGS
   Autom. constraints  SOSCFAutoConstrain .... off
 Level Shifting         CNVShift        .... on
   Level shift para.    LevelShift      ....    0.2500
   Turn off err/grad.   ShiftErr        ....    0.0010
 Zerner damping         CNVZerner       .... off
 Static damping         CNVDamp         .... on
   Fraction old density DampFac         ....    0.7000
   Max. Damping (<1)    DampMax         ....    0.9800
   Min. Damping (>=0)   DampMin         ....    0.0000
   Turn off err/grad.   DampErr         ....    0.1000

SCF Procedure:
 Maximum # iterations   MaxIter         ....   125
 SCF integral mode      SCFMode         .... Direct
   Integral package                     .... SHARK and LIBINT hybrid scheme
 Reset frequency        DirectResetFreq ....    20
 Integral Threshold     Thresh          ....  2.500e-11 Eh
 Primitive CutOff       TCut            ....  2.500e-12 Eh

Convergence Tolerance:
 Convergence Check Mode ConvCheckMode   .... Total+1el-Energy
 Convergence forced     ConvForced      .... 0
 Energy Change          TolE            ....  1.000e-08 Eh
 1-El. energy change                    ....  1.000e-05 Eh
 Orbital Gradient       TolG            ....  1.000e-05
 Orbital Rotation angle TolX            ....  1.000e-05
 DIIS Error             TolErr          ....  5.000e-07

------------------------------
INITIAL GUESS: MODEL POTENTIAL
------------------------------
Loading Hartree-Fock densities                     ... done
Calculating cut-offs                               ... done
Initializing the effective Hamiltonian             ... done
Setting up the integral package (SHARK)            ... done
Starting the Coulomb interaction                   ... done (   0.1 sec)
Making the grid                                    ... done (   0.0 sec)
Mapping shells                                     ... done
Starting the XC term evaluation                    ... done (   0.0 sec)
  promolecular density results
     # of electrons  =     26.999280797
     EX              =    -25.993210523
     EC              =     -0.946976040
     EX+EC           =    -26.940186563
Transforming the Hamiltonian                       ... done (   0.0 sec)
Diagonalizing the Hamiltonian                      ... done (   0.0 sec)
Back transforming the eigenvectors                 ... done (   0.0 sec)
Now organizing SCF variables                       ... done
                      ------------------
                      INITIAL GUESS DONE (   0.1 sec)
                      ------------------
             **** ENERGY FILE WAS UPDATED (sn2.en.tmp) ****
Finished Guess after   0.1 sec
Maximum memory used throughout the entire GUESS-calculation: 6.3 MB

-------------------------------------------------------------------------------------------
                                      ORCA LEAN-SCF
                              memory conserving SCF solver
-------------------------------------------------------------------------------------------

----------------------------------------D-I-I-S--------------------------------------------
Iteration    Energy (Eh)           Delta-E    RMSDP     MaxDP     DIISErr   Damp  Time(sec)
-------------------------------------------------------------------------------------------
               ***  Starting incremental Fock matrix formation  ***
    1    -239.1212176294655478     0.00e+00  6.95e-03  6.86e-02  2.69e-01  0.700   0.5
    2    -239.1807593771977736    -5.95e-02  4.55e-03  4.16e-02  1.12e-01  0.700   0.2
                               ***Turning on AO-DIIS***
    3    -239.2034986838892792    -2.27e-02  2.02e-03  2.41e-02  3.54e-02  0.700   0.2
    4    -239.2177169078508996    -1.42e-02  3.83e-03  4.55e-02  1.79e-02  0.000   0.2
    5    -239.2493591633667052    -3.16e-02  4.15e-04  6.07e-03  6.78e-03  0.000   0.2
                              *** Initializing SOSCF ***
---------------------------------------S-O-S-C-F--------------------------------------
Iteration    Energy (Eh)           Delta-E    RMSDP     MaxDP     MaxGrad    Time(sec)
--------------------------------------------------------------------------------------
    6    -239.2494487235568386    -8.96e-05  1.28e-04  1.60e-03  6.90e-04     0.2
               *** Restarting incremental Fock matrix formation ***
    7    -239.2494430966257823     5.63e-06  1.05e-04  1.41e-03  1.69e-04     0.3
    8    -239.2494433171800665    -2.21e-07  3.06e-05  3.69e-04  1.29e-04     0.2
    9    -239.2494434504212677    -1.33e-07  2.06e-05  2.76e-04  5.33e-05     0.2
   10    -239.2494434580610232    -7.64e-09  3.97e-06  4.64e-05  4.15e-05     0.2
                 **** Energy Check signals convergence ****

               *****************************************************
               *                     SUCCESS                       *
               *           SCF CONVERGED AFTER  10 CYCLES          *
               *****************************************************

Recomputing exchange energy using gridx3       ... done (    0.333 sec)
Old exchange energy                            :     -5.320115177 Eh
New exchange energy                            :     -5.320004475 Eh
Exchange energy change after final integration :      0.000110703 Eh
Total energy after final integration           :   -239.249332766 Eh
             **** ENERGY FILE WAS UPDATED (sn2.en.tmp) ****

----------------
TOTAL SCF ENERGY
----------------

Total Energy       :       -239.24933276591426 Eh           -6510.30532 eV

Components:
Nuclear Repulsion  :         66.73657780353329 Eh            1815.99461 eV
Electronic Energy  :       -305.98602127220920 Eh           -8326.30294 eV
One Electron Energy:       -473.43813594698446 Eh          -12882.90663 eV
Two Electron Energy:        167.45211467477523 Eh            4556.60369 eV

Virial components:
Potential Energy   :       -477.12574079397990 Eh          -12983.25146 eV
Kinetic Energy     :        237.87640802806564 Eh            6472.94614 eV
Virial Ratio       :          2.00577158848677

DFT components:
N(Alpha)           :       14.000006526778 electrons
N(Beta)            :       14.000006526778 electrons
N(Total)           :       28.000013053557 electrons
E(X)               :      -21.180182824545 Eh       
E(C)               :       -1.160351840160 Eh       
E(XC)              :      -22.340534664705 Eh       

---------------
SCF CONVERGENCE
---------------

  Last Energy change         ...    7.6398e-09  Tolerance :   1.0000e-08
  Last MAX-Density change    ...    4.6356e-05  Tolerance :   1.0000e-07
  Last RMS-Density change    ...    3.9739e-06  Tolerance :   5.0000e-09
  Last DIIS Error            ...    6.9013e-04  Tolerance :   5.0000e-07
  Last Orbital Gradient      ...    4.1547e-05  Tolerance :   1.0000e-05
  Last Orbital Rotation      ...    1.6174e-05  Tolerance :   1.0000e-05


----------------
ORBITAL ENERGIES
----------------

  NO   OCC          E(Eh)            E(eV) 
   0   2.0000     -24.295797      -661.1222 
   1   2.0000     -24.295658      -661.1185 
   2   2.0000     -10.022854      -272.7357 
   3   2.0000      -0.755798       -20.5663 
   4   2.0000      -0.749173       -20.3860 
   5   2.0000      -0.436815       -11.8863 
   6   2.0000      -0.216416        -5.8890 
   7   2.0000      -0.216397        -5.8885 
   8   2.0000      -0.124343        -3.3836 
   9   2.0000      -0.043148        -1.1741 
  10   2.0000      -0.043125        -1.1735 
  11   2.0000      -0.025386        -0.6908 
  12   2.0000      -0.025363        -0.6902 
  13   2.0000      -0.015612        -0.4248 
  14   0.0000       0.271118         7.3775 
  15   0.0000       0.312869         8.5136 
  16   0.0000       0.330450         8.9920 
  17   0.0000       0.330473         8.9926 
  18   0.0000       0.677401        18.4330 
  19   0.0000       0.677445        18.4342 
  20   0.0000       0.786576        21.4038 
  21   0.0000       0.794601        21.6222 
  22   0.0000       0.878411        23.9028 
  23   0.0000       0.878421        23.9030 
  24   0.0000       0.975425        26.5427 
*Only the first 10 virtual orbitals were printed.

                    ********************************
                    * MULLIKEN POPULATION ANALYSIS *
                    ********************************

-----------------------
MULLIKEN ATOMIC CHARGES
-----------------------
   0 C :    0.372911
   1 H :   -0.035798
   2 H :   -0.035948
   3 H :   -0.035948
   4 F :   -0.632609
   5 F :   -0.632609
Sum of atomic charges:   -1.0000000

--------------------------------
MULLIKEN REDUCED ORBITAL CHARGES
--------------------------------
  0 C s       :     3.033588  s :     3.033588
      pz      :     0.582192  p :     2.552676
      px      :     0.985178
      py      :     0.985306
      dz2     :     0.021526  d :     0.040826
      dxz     :     0.002706
      dyz     :     0.002706
      dx2y2   :     0.006944
      dxy     :     0.006944

  1 H s       :     1.012323  s :     1.012323
      pz      :     0.005674  p :     0.023475
      px      :     0.004689
      py      :     0.013112

  2 H s       :     1.012472  s :     1.012472
      pz      :     0.005673  p :     0.023476
      px      :     0.011008
      py      :     0.006795

  3 H s       :     1.012472  s :     1.012472
      pz      :     0.005673  p :     0.023476
      px      :     0.011008
      py      :     0.006795

  4 F s       :     3.962131  s :     3.962131
      pz      :     1.700430  p :     5.669163
      px      :     1.984365
      py      :     1.984369
      dz2     :     0.000804  d :     0.001315
      dxz     :     0.000252
      dyz     :     0.000252
      dx2y2   :     0.000003
      dxy     :     0.000003

  5 F s       :     3.962131  s :     3.962131
      pz      :     1.700430  p :     5.669164
      px      :     1.984365
      py      :     1.984369
      dz2     :     0.000804  d :     0.001315
      dxz     :     0.000252
      dyz     :     0.000252
      dx2y2   :     0.000003
      dxy     :     0.000003



                     *******************************
                     * LOEWDIN POPULATION ANALYSIS *
                     *******************************

----------------------
LOEWDIN ATOMIC CHARGES
----------------------
   0 C :    0.163311
   1 H :   -0.011720
   2 H :   -0.011759
   3 H :   -0.011759
   4 F :   -0.564036
   5 F :   -0.564037

-------------------------------
LOEWDIN REDUCED ORBITAL CHARGES
-------------------------------
  0 C s       :     2.922429  s :     2.922429
      pz      :     0.661435  p :     2.819568
      px      :     1.079052
      py      :     1.079080
      dz2     :     0.051911  d :     0.094693
      dxz     :     0.004502
      dyz     :     0.004502
      dx2y2   :     0.016887
      dxy     :     0.016890

  1 H s       :     0.945532  s :     0.945532
      pz      :     0.012753  p :     0.066188
      px      :     0.010437
      py      :     0.042999

  2 H s       :     0.945572  s :     0.945572
      pz      :     0.012754  p :     0.066187
      px      :     0.034856
      py      :     0.018578

  3 H s       :     0.945572  s :     0.945572
      pz      :     0.012754  p :     0.066187
      px      :     0.034856
      py      :     0.018578

  4 F s       :     3.891903  s :     3.891903
      pz      :     1.707576  p :     5.670464
      px      :     1.981443
      py      :     1.981445
      dz2     :     0.001161  d :     0.001670
      dxz     :     0.000249
      dyz     :     0.000249
      dx2y2   :     0.000006
      dxy     :     0.000006

  5 F s       :     3.891903  s :     3.891903
      pz      :     1.707576  p :     5.670464
      px      :     1.981443
      py      :     1.981445
      dz2     :     0.001161  d :     0.001670
      dxz     :     0.000249
      dyz     :     0.000249
      dx2y2   :     0.000006
      dxy     :     0.000006



                      *****************************
                      * MAYER POPULATION ANALYSIS *
                      *****************************

  NA   - Mulliken gross atomic population
  ZA   - Total nuclear charge
  QA   - Mulliken gross atomic charge
  VA   - Mayer's total valence
  BVA  - Mayer's bonded valence
  FA   - Mayer's free valence

  ATOM       NA         ZA         QA         VA         BVA        FA
  0 C      5.6271     6.0000     0.3729     3.9464     3.9464     0.0000
  1 H      1.0358     1.0000    -0.0358     1.0185     1.0185     0.0000
  2 H      1.0359     1.0000    -0.0359     1.0185     1.0185     0.0000
  3 H      1.0359     1.0000    -0.0359     1.0185     1.0185    -0.0000
  4 F      9.6326     9.0000    -0.6326     0.6014     0.6014    -0.0000
  5 F      9.6326     9.0000    -0.6326     0.6014     0.6014    -0.0000

  Mayer bond orders larger than 0.100000
B(  0-C ,  1-H ) :   0.9812 B(  0-C ,  2-H ) :   0.9812 B(  0-C ,  3-H ) :   0.9812 
B(  0-C ,  4-F ) :   0.5015 B(  0-C ,  5-F ) :   0.5015 

-------
TIMINGS
-------

Total SCF time: 0 days 0 hours 0 min 2 sec 

Total time                  ....       2.870 sec
Sum of individual times     ....       2.635 sec  ( 91.8%)

SCF preparation             ....       0.059 sec  (  2.1%)
Fock matrix formation       ....       2.537 sec  ( 88.4%)
  Startup                   ....       0.002 sec  (  0.1% of F)
  Split-RI-J                ....       0.322 sec  ( 12.7% of F)
  Chain of spheres X        ....       1.629 sec  ( 64.2% of F)
  XC integration            ....       0.758 sec  ( 29.9% of F)
    XC Preparation          ....       0.000 sec  (  0.0% of XC)
    Basis function eval.    ....       0.310 sec  ( 41.0% of XC)
    Density eval.           ....       0.091 sec  ( 12.0% of XC)
    XC-Functional eval.     ....       0.162 sec  ( 21.4% of XC)
    XC-Potential eval.      ....       0.103 sec  ( 13.6% of XC)
Diagonalization             ....       0.000 sec  (  0.0%)
Density matrix formation    ....       0.006 sec  (  0.2%)
Total Energy calculation    ....       0.002 sec  (  0.1%)
Population analysis         ....       0.004 sec  (  0.1%)
Orbital Transformation      ....       0.002 sec  (  0.1%)
Orbital Orthonormalization  ....       0.000 sec  (  0.0%)
DIIS solution               ....       0.017 sec  (  0.6%)
SOSCF solution              ....       0.008 sec  (  0.3%)
Finished LeanSCF after   2.9 sec

Maximum memory used throughout the entire LEANSCF-calculation: 7.0 MB

-------------------------   --------------------
FINAL SINGLE POINT ENERGY      -239.249332765914
-------------------------   --------------------

------------------------------------------------------------------------------
                         ORCA SCF GRADIENT CALCULATION
------------------------------------------------------------------------------

Nuc. rep. gradient        (SHARK) ... done (  0.0 sec)
HCore & Overlap gradient  (SHARK) ... done (  0.0 sec)
Split-RIJ-J gradient      (SHARK) ... done (  0.5 sec)
done (  1.6 sec)
XC gradient                       ... done (  0.3 sec)

------------------
CARTESIAN GRADIENT
------------------

   1   C   :    0.000000026    0.000000147   -0.000000111
   2   H   :   -0.000000014    0.000000034    0.000000055
   3   H   :   -0.000000337   -0.000000074   -0.000000083
   4   H   :    0.000000339   -0.000000068   -0.000000086
   5   F   :   -0.000000009    0.000000039    0.000000977
   6   F   :   -0.000000005   -0.000000079   -0.000000753

Difference to translation invariance:
           :   -0.0000000000    0.0000000000    0.0000000000

Difference to rotation invariance:
           :   -0.0000001163   -0.0000000172    0.0000000209

Norm of the Cartesian gradient     ...    0.0000013495
RMS gradient                       ...    0.0000003181
MAX gradient                       ...    0.0000009772

-------
TIMINGS
-------

Total SCF gradient time     ....        2.513 sec

Densities                   ....       0.000 sec  (  0.0%)
One electron gradient       ....       0.011 sec  (  0.4%)
RI-J Coulomb gradient       ....       0.548 sec  ( 21.8%)
COSX gradient               ....       1.637 sec  ( 65.2%)
XC gradient                 ....       0.316 sec  ( 12.6%)

Maximum memory used throughout the entire SCFGRAD-calculation: 8.8 MB

------------------------------------------------------------------------------
                              ORCA PROPERTY CALCULATIONS
------------------------------------------------------------------------------

GBWName                                 ... sn2.gbw
Number of atoms                         ...      6
Number of basis functions               ...     57
Max core memory                         ...   4096 MB

Electric properties:
Dipole moment                           ... YES
Quadrupole moment                       ...  NO
Static polarizability (Dipole/Dipole)   ...  NO
Static polarizability (Dipole/Quad.)    ...  NO
Static polarizability (Quad./Quad.)     ...  NO
Static polarizability (Velocity)        ...  NO
Static hyperpolarizability              ...  NO

Atomic electric properties:
Dipole moment                           ...  NO
Quadrupole moment                       ...  NO
Static polarizability                   ...  NO

Choice of electric origin               ... Center of mass
Position of electric origin             ...     0.000000    -0.000026     0.000000

General magnetic properties:
Magnetizability                         ...  NO

EPR properties:
g-Tensor (aka g-matrix)                 ...  NO
Zero-Field splitting spin-orbit         ...  NO
Zero-field splitting spin-spin          ...  NO
Hyperfine couplings                     ...  NO (   0 nuclei)
Quadrupole couplings                    ...  NO (   0 nuclei)
Contact density                         ...  NO (   0 nuclei)

NMR properties:
Chemical shifts                         ...  NO (   0 nuclei)
Spin-rotation constants                 ...  NO (   0 nuclei)
Spin-spin couplings                     ...  NO (   0 nuclei,    0 pairs)

Choice of magnetic origin               ... GIAO
Position of magnetic origin             ...     0.000000     0.000000     0.000000

Properties with geometric perturbations:
SCF Hessian                             ...  NO
IR spectrum                             ...  NO
VCD spectrum                            ...  NO
X-ray spectroscopy properties:
SCF XES/XAS/RIXS spectra                ...  NO

SCF SOC stabilization energy            ...  NO
Diagonal Born-Oppenheimer correction    ...  NO

-------------
DIPOLE MOMENT
-------------

Method             : SCF
Type of density    : Electron Density
Multiplicity       :   1
Irrep              :   0
Energy             :  -239.2493327659142608 Eh
Basis              : AO
                                X                 Y                 Z
Electronic contribution:      0.000000358       0.000130795       0.000001191
Nuclear contribution   :     -0.000000477       0.000094025      -0.000000785
                        -----------------------------------------
Total Dipole Moment    :     -0.000000120       0.000224820       0.000000406
                        -----------------------------------------
Magnitude (a.u.)       :      0.000224820
Magnitude (Debye)      :      0.000571448



--------------------
Rotational spectrum 
--------------------
 
Rotational constants in cm-1:             4.730129             0.134321             0.134321 
Rotational constants in MHz :        141805.702446          4026.839035          4026.834632 

Dipole components along the rotational axes: 
x,y,z [a.u.] :     0.000000     0.000225    -0.000000 
x,y,z [Debye]:     0.000001     0.000571    -0.000000 

 

Dipole moment calculation done in   0.1 sec 

Maximum memory used throughout the entire PROP-calculation: 4.1 MB



--------------------------------------------------------------------------------
                   Intrinsic Reaction Coordinate Calculation
--------------------------------------------------------------------------------

System:
Nr. of atoms                        .... 6
Algorithm: SD (steepest descent step) plus correction
Settings:
Max. no of cycles        MaxIter    .... 70
Direction                           .... Forward and backward
Initial displacement Hessian type   .... Read
Hessian Filename                    .... ../TS_search/sn2.hess
Following Hessian mode              .... 0
Initial displacement type           .... Energy
  Initial displacement energy change.... 2.000 mEh
Coordinate system following type    .... Cartesian
Length of steepest descent step     .... 0.150 bohr
Do parabolic fit 
  if SD step is uphill              .... YES
Do Correction to SD step            .... YES
Scaling for length of correction
  compared to SD step               .... 0.333
Do parabolic fit to SD correction   .... YES
Only interpolate for parabolic fit  .... YES
Do update to length of
  SD step and correction            .... YES
Convergence Tolerances:
  Max. Gradient            TolMAXG  ....  2.0000e-03 Eh/bohr
  RMS Gradient             TolRMSG  ....  5.0000e-04 Eh/bohr
Storing full IRC trajectory in      .... sn2_IRC_Full_trj.xyz
Storing forward trajectory in       .... sn2_IRC_F_trj.xyz
Storing backward trajectory in      .... sn2_IRC_B_trj.xyz


 ...good, the file ../TS_search/sn2.hess exists
Reading the hessian file           ...... done
Determining length of initial displacement:
  Requested energy change (quadratic behavior): 2.000 mEh
  Resulting scaling factor for initial displacement along normalized TS mode: 0.2002

         *************************************************************
         *                          FORWARD IRC                      *
         *************************************************************

Iteration    E(Eh)      dE(kcal/mol)  max(|G|)   RMS(G) 
Convergence thresholds                0.002000  0.000500            
    0      -239.251222   -1.185348    0.017305  0.005230
    1      -239.256512   -4.505118    0.021203  0.008759
    2      -239.260944   -7.286452    0.024045  0.006746
    3      -239.264070   -9.247449    0.011481  0.004423
    4      -239.265870   -10.376971    0.006880  0.002275
    5      -239.266187   -10.576330    0.005013  0.001690
    6      -239.266334   -10.668622    0.003972  0.001165
    7      -239.266444   -10.737522    0.002692  0.000768
    8      -239.266523   -10.787082    0.001386  0.000387

                      ***********************HURRAY********************
                      ***            THE IRC HAS CONVERGED          ***
                      *************************************************


         *************************************************************
         *                          BACKWARD IRC                     *
         *************************************************************

Iteration    E(Eh)      dE(kcal/mol)  max(|G|)   RMS(G) 
Convergence thresholds                0.002000  0.000500            
    0      -239.251222   -1.185351    0.017305  0.005230
    1      -239.256512   -4.505106    0.021203  0.008759
    2      -239.260944   -7.286439    0.024045  0.006746
    3      -239.264070   -9.247445    0.011481  0.004423
    4      -239.265870   -10.376971    0.006880  0.002275
    5      -239.266187   -10.576327    0.005013  0.001690
    6      -239.266334   -10.668630    0.003972  0.001165
    7      -239.266444   -10.737529    0.002692  0.000768
    8      -239.266523   -10.787091    0.001386  0.000387

                      ***********************HURRAY********************
                      ***            THE IRC HAS CONVERGED          ***
                      *************************************************


---------------------------------------------------------------
                       IRC PATH SUMMARY              
---------------------------------------------------------------
All gradients are in Eh/Bohr.

Step        E(Eh)      dE(kcal/mol)  max(|G|)   RMS(G) 
   1      -239.266523   -10.787091    0.001386  0.000387
   2      -239.266444   -10.737529    0.002692  0.000768
   3      -239.266334   -10.668630    0.003972  0.001165
   4      -239.266187   -10.576327    0.005013  0.001690
   5      -239.265870   -10.376971    0.006880  0.002275
   6      -239.264070   -9.247445    0.011481  0.004423
   7      -239.260944   -7.286439    0.024045  0.006746
   8      -239.256512   -4.505106    0.021203  0.008759
   9      -239.251222   -1.185351    0.017305  0.005230
  10      -239.249333    0.000000    0.000001  0.000000 <= TS
  11      -239.251222   -1.185348    0.017305  0.005230
  12      -239.256512   -4.505118    0.021203  0.008759
  13      -239.260944   -7.286452    0.024045  0.006746
  14      -239.264070   -9.247449    0.011481  0.004423
  15      -239.265870   -10.376971    0.006880  0.002275
  16      -239.266187   -10.576330    0.005013  0.001690
  17      -239.266334   -10.668622    0.003972  0.001165
  18      -239.266444   -10.737522    0.002692  0.000768
  19      -239.266523   -10.787082    0.001386  0.000387

--------------------------------
SUGGESTED CITATIONS FOR THIS RUN
--------------------------------

Below you find a list of papers that are relevant to this ORCA run
We neither can nor want to force you to cite these papers, but we appreciate if you do
You receive ORCA, which is the product of decades of hard work by many enthusiastic individuals, for free
The only thing we kindly ask in return is that you cite our papers,
We deeply appreciate it, if you show your appreciation for ORCA by not just citing the generic ORCA reference.

Please note that relegating all ORCA citations to the supporting information does *not* help us.
SI sections are not indexed - citations you put there will not count into any citation statistics
But we need these citations in order to attract the funding resources that allow us to do what we are doing

Therefore, if you are a happy ORCA user, please consider citing a few of the papers listed below in the main body of your paper

In addition to the list printed below, the program has created the file sn2.bibtex that contains the list in bibtex format
You can import this file easily into all common literature databanks and citation aid programs


List of essential papers. We consider these as the minimum necessary citations

  1. Neese, F.
     Software update: the ORCA program system, version 6.0
     WIRES Comput. Molec. Sci. 2025 15(1), e70019
     doi.org/10.1002/wcms.7019

List of papers to cite with high priority. The work reported in these papers was absolutely
necessary for this run to complete.
Our perspective: the developers of density functionals and basis sets usually get cited in chemistry papers
Good! But without the algorithms to do something with them, the functionals or basis sets would not do anything.
Hence, in our opinion, the algorithm design and method developments papers are equally worthy of getting cited

  1. Neese, F.
     An improvement of the resolution of the identity approximation for the formation of the Coulomb matrix
     J. Comp. Chem. 2003 24(14), 1740-1747
     doi.org/10.1002/jcc.10318
  2. Neese, F.; Wennmohs, F.; Hansen, A.; Becker, U.
     Efficient, approximate and parallel Hartree-Fock and hybrid DFT calculations. A 'chain-of-spheres' algorithm for the Hartree-Fock exchange
     Chem. Phys. 2009 356(1-3), 98-109
     doi.org/10.1016/j.chemphys.2008.10.036
  3. Helmich-Paris, B.; de Souza, B.; Neese, F.; Izsák, R.
     An improved chain of spheres for exchange algorithm
     J. Chem. Phys. 2021 155(10), 104109
     doi.org/10.1063/5.0058766
  4. Neese, F.
     The SHARK Integral Generation and Digestion System
     J. Comp. Chem. 2022 44(3), 381
     doi.org/10.1002/jcc.26942

List of suggested additional citations. These are papers that are important in the 'surrounding' of 
of this run, or papers that preceded the highly important papers. If you like your results we are grateful for a citation.

  1. Izsak, R.; Neese, F.
     An overlap fitted chain of spheres exchange method
     J. Chem. Phys. 2011 135 , 144105
     doi.org/10.1063/1.3646921
  2. Izsak, R.; Hansen, A.; Neese, F.
     The resolution of identity and chain of spheres approximations for the LPNO-CCSD singles Fock term
     Molec. Phys. 2012 110 , 2413-2417
     doi.org/10.1080/00268976.2012.687466
  3. Neese, F.
     The ORCA program system
     WIRES Comput. Molec. Sci. 2012 2(1), 73-78
     doi.org/10.1002/wcms.81
  4. Izsak, R.; Neese, F.; Klopper, W.
     Robust fitting techniques in the chain of spheres approximation to the Fock exchange: The role of the complementary space
     J. Chem. Phys. 2013 139 , 
     doi.org/10.1063/1.4819264
  5. Neese, F.
     Software update: the ORCA program system, version 4.0
     WIRES Comput. Molec. Sci. 2018 8(1), 1-6
     doi.org/10.1002/wcms.1327
  6. Neese, F.; Wennmohs, F.; Becker, U.; Riplinger, C.
     The ORCA quantum chemistry program package
     J. Chem. Phys. 2020 152(22), 224108
     doi.org/10.1063/5.0004608
  7. Neese, F.
     Software update: The ORCA program system—Version 5.0
     WIRES Comput. Molec. Sci. 2022 12(1), e1606
     doi.org/10.1002/wcms.1606

List of optional additional citations

  1. Neese, F.
     Approximate second-order SCF convergence for spin unrestricted wavefunctions
     Chem. Phys. Lett. 2000 325(1-3), 93-98
     doi.org/10.1016/s0009-2614(00)00662-x

Timings for individual modules:

Sum of individual times          ...      266.546 sec (=   4.442 min)
Startup calculation              ...       20.906 sec (=   0.348 min)   7.8 %
SCF iterations                   ...      171.282 sec (=   2.855 min)  64.3 %
Property calculations            ...        0.292 sec (=   0.005 min)   0.1 %
SCF Gradient evaluation          ...       74.066 sec (=   1.234 min)  27.8 %
                             ****ORCA TERMINATED NORMALLY****
TOTAL RUN TIME: 0 days 0 hours 4 minutes 28 seconds 659 msec
