
                                 *****************
                                 * O   R   C   A *
                                 *****************

                                            #,                                       
                                            ###                                      
                                            ####                                     
                                            #####                                    
                                            ######                                   
                                           ########,                                 
                                     ,,################,,,,,                         
                               ,,#################################,,                 
                          ,,##########################################,,             
                       ,#########################################, ''#####,          
                    ,#############################################,,   '####,        
                  ,##################################################,,,,####,       
                ,###########''''           ''''###############################       
              ,#####''   ,,,,##########,,,,          '''####'''          '####       
            ,##' ,,,,###########################,,,                        '##       
           ' ,,###''''                  '''############,,,                           
         ,,##''                                '''############,,,,        ,,,,,,###''
      ,#''                                            '''#######################'''  
     '                                                          ''''####''''         
             ,#######,   #######,   ,#######,      ##                                
            ,#'     '#,  ##    ##  ,#'     '#,    #''#        ,####,    ,#,          
            ##       ##  ##   ,#'  ##            #'  '#       #'       ,# #          
            ##       ##  #######   ##           ,######,      #####,      #          
            '#,     ,#'  ##    ##  '#,     ,#' ,#      #,     #,   #      #          
             '#######'   ##     ##  '#######'  #'      '#     '####' #    #          



                #########################################################
                #                        -***-                          #
                #          Department of theory and spectroscopy        #
                #                                                       #
                #                      Frank Neese                      #
                #                                                       #
                #     Directorship, Architecture, Infrastructure        #
                #                    SHARK, DRIVERS                     #
                #        Core code/Algorithms in most modules           #
                #                                                       #
                #        Max Planck Institute fuer Kohlenforschung      #
                #                Kaiser Wilhelm Platz 1                 #
                #                 D-45470 Muelheim/Ruhr                 #
                #                      Germany                          #
                #                                                       #
                #                  All rights reserved                  #
                #                        -***-                          #
                #########################################################


                         Program Version 6.1.0  -  RELEASE   -
                                (GIT: $679e74b$)
                          ($2025-06-10 18:02:51 +0200$)


 With contributions from (in alphabetic order):
[Max-Planck-Institut fuer Kohlenforschung]                               
  Daniel Aravena         : Magnetic Suceptibility                        
  Michael Atanasov       : Ab Initio Ligand Field Theory (pilot matlab implementation)
  Alexander A. Auer      : GIAO ZORA, VPT2 properties, NMR spectrum      
  Ute Becker             : All parallelization in ORCA, NUMFREQ, NUMCALC 
  Giovanni Bistoni       : ED, misc. LED, open-shell LED, HFLD           
  Dmytro Bykov           : pre 5.0 version of the SCF Hessian            
  Marcos Casanova-Páez   : Triplet and SCS-CIS(D). UHF-(DLPNO)-IP/EA/STEOM-CCSD. UHF-CVS-IP/STEOM-CCSD   
  Vijay G. Chilkuri      : MRCI spin determinant printing, contributions to CSF-ICE 
  Pauline Colinet        : FMM embedding                                 
  Dipayan Datta          : RHF DLPNO-CCSD density                        
  Achintya Kumar Dutta   : EOM-CC, STEOM-CC                              
  Nicolas Foglia         : Exact transition moments, OPA infrastructure, MCD improvements    
  Dmitry Ganyushin       : Spin-Orbit,Spin-Spin,Magnetic field MRCI      
  Miquel Garcia-Rates    : C-PCM and meta-GGA Hessian, CCSD/C-PCM, Gaussian charge scheme 
  Tiago L. C. Gouveia    : GS-ROHF, GS-ROCIS                             
  Yang Guo               : DLPNO-NEVPT2, F12-NEVPT2, CIM, IAO-localization        
  Andreas Hansen         : Spin unrestricted coupled pair/coupled cluster methods 
  Ingolf Harden          : AUTO-CI MPn and infrastructure                
  Benjamin Helmich-Paris : MC-RPA, TRAH-(SCF,CASSCF), AVAS, COSX integrals, SCF dyn. polar., MC-PDFT, srDFT 
  Lee Huntington         : MR-EOM, pCC                                   
  Robert Izsak           : Overlap fitted RIJCOSX, COSX-SCS-MP3, EOM     
  Riya Kayal             : Wick's Theorem for AUTO-CI, AUTO-CI UHF-CCSDT 
  Emily Kempfer          : AUTO-CI RHF CISDT and CCSDT, approximate NEVPT4
  Christian Kollmar      : KDIIS, OOCD, Brueckner-CCSD(T), CCSD density, CASPT2, CASPT2-K, improved NEVPT2 
  Axel Koslowski         : Symmetry handling                             
  Simone Kossmann        : meta-GGA functionals, TD-DFT gradient, OOMP2, (MP2 Hessian; deprecated post 5.0) 
  Lucas Lang             : DCDCAS, Hyperfine gauge corrections, ICE-SOC+SSC
  Marvin Lechner         : AUTO-CI (C++ implementation), FIC-MRCC        
  Spencer Leger          : CASSCF response                               
  Dagmar Lenk            : GEPOL surface, SMD, ORCA-2-JSON               
  Dimitrios Liakos       : Extrapolation schemes; Compound Job, Property file
  Dimitrios Manganas     : Further ROCIS development; embedding schemes. LFT, Crystal Embedding 
  Dimitrios Pantazis     : SARC Basis sets                               
  Anastasios Papadopoulos: AUTO-CI, single reference methods and gradients 
  Taras Petrenko         : pre 6.0 DFT Hessian and TD-DFT gradient,  ECA, NRVS 
  Petra Pikulova         : Analytic Raman intensities                    
  Peter Pinski           : DLPNO-MP2, DLPNO-MP2 Gradient                 
  Shashank Vittal Rao    : ES-AILFT, MagRelax                            
  Christoph Reimann      : Effective Core Potentials                     
  Marius Retegan         : Local ZFS, SOC                                
  Christoph Riplinger    : Optimizer, TS searches, QM/MM, DLPNO-CCSD(T), (RO)-DLPNO pert. Triples 
  Michael Roemelt        : Original ROCIS implementation, recursive CI coupling coefficients
  Masaaki Saitow         : Open-shell DLPNO-CCSD energy and density      
  Barbara Sandhoefer     : DKH picture change effects                    
  Yorick L. A. Schmerwitz: GMF and freeze-and-release deltaSCF, NEB S-IDPP initial path                    
  Kantharuban Sivalingam : CASSCF convergence/infrastructure, NEVPT2, NEVPT3, NEVPT4(SD), FIC-MRCI and CEPA variants
  Bernardo de Souza      : ESD, SOC TD-DFT                               
  Georgi L. Stoychev     : AutoAux, RI-MP2 NMR, DLPNO-MP2 response, X2C  
  Van Anh Tran           : RI-MP2 g-tensors                              
  Willem Van den Heuvel  : Paramagnetic NMR                              
  Zikuan Wang            : NOTCH, Electric field optimization            
  Frank Wennmohs         : Technical directorship and infrastructure     
  Hang Xu                : AUTO-CI-Response properties                   
                                                                         
[FACCTs GmbH]                                                            
  Markus Bursch, Nicolas Foglia, Miquel Garcia-Rates, Ingolf Harden, Hagen Neugebauer, Anastasios Papadopoulos, 
  Christoph Riplinger, Bernardo de Souza, Georgi L. Stoychev                                                    
                                                                 
  APM, various basis sets, CI-OPT, improved COSX, DLPNO-Multilevel,           
  DOCKER, DRACO, updates on ESD, Fragmentator, GOAT, IRC, LR-CPCM, L-BFGS, MBIS, meta-GGA TD-DFT gradient, ML-optimized integration grids, 
  MM, NACMEs, nearIR, NEB, NEB-TS, NL-DFT gradient (VV10), 2- and 3-layer-ONIOM, interface openCOSMO-RS, QMMM,   
  Crystal-QMMM, RESP, rigid body optimization, SF, symmetry and pop. for TD-DFT, various functionals, SOLVATOR                                   
                                                                         
[Other institutions]                                                     
  V. Asgeirsson          : NEB                                           
  Christoph Bannwarth    : sTDA-DFT, sTD-DFT, PBEh-3c, B97-3c, D3        
  Giovanni Bistoni       : ETS/NOCV, ADLD/ADEX, COVALED                  
  Martin Brehm           : Molecular dynamics                            
  Ronald Cardenas        : ETS/NOCV                                      
  Martina Colucci        : COVALED                                       
  Sebastian Ehlert       : rSCAN, r2SCAN, r2SCAN-3c, D4, dhf basis sets  
  Marvin Friede          : D4 for Fr, Ra, Ac-Lr                          
  Lars Goerigk           : TD-DFT with DH, B97 family of functionals     
  Stefan Grimme          : VdW corrections, initial TS optimization, DFT functionals, gCP, sTDA/sTD-DF 
  Waldemar Hujo          : DFT-NL                                        
  H. Jonsson             : NEB                                           
  Holger Kruse           : gCP                                           
  Marcel Mueller         : wB97X-3c, vDZP basis set                      
  Hagen Neugebauer       : wr2SCAN, Native XTB                           
  Gianluca Regni         : ADLD/ADEX                                     
  Tobias Risthaus        : pre 6.0 range-separated hybrid DFT and stability analysis
  Lukas Wittmann         : regularized MP2, r2SCAN double-hybrids, wr2SCAN        
                                                                         
We gratefully acknowledge several colleagues who have allowed us to      
interface, adapt or use parts of their codes:                            
  Ed Valeev, F. Pavosevic, A. Kumar             : LibInt (2-el integral package), F12 methods 
  Garnet Chan, S. Sharma, J. Yang, R. Olivares  : DMRG                   
  Ulf Ekstrom                                   : XCFun DFT Library      
  Mihaly Kallay                                 : mrcc  (arbitrary order and MRCC methods)
  Frank Weinhold                                : gennbo (NPA and NBO analysis)           
  Simon Mueller                                 : openCOSMO-RS                            
  Christopher J. Cramer and Donald G. Truhlar   : smd solvation model                     
  S Lehtola, MJT Oliveira, MAL Marques          : LibXC Library                           
  Liviu Ungur et al                             : ANISO software                          


 Your calculation uses the libint2 library for the computation of 2-el integrals
 For citations please refer to: http://libint.valeyev.net

 Your ORCA version has been built with support for libXC version: 7.0.0
 For citations please refer to: https://libxc.gitlab.io

 This ORCA versions uses:
   CBLAS   interface :  Fast vector & matrix operations
   LAPACKE interface :  Fast linear algebra routines
   SCALAPACK package :  Parallel linear algebra routines
   Shared memory     :  Shared parallel matrices
   BLAS/LAPACK       :  OpenBLAS 0.3.29  USE64BITINT DYNAMIC_ARCH NO_AFFINITY SkylakeX SINGLE_THREADED
        Core in use  :  SkylakeX
   Copyright (c) 2011-2014, The OpenBLAS Project


  ***********************************
  * Starting time: Sun Mar 15 23:50:45 2026
  * Host name:     midway3-login3.rcc.local
  * Process ID:    3679247
  * Working dir.:  /home/rzhu16/orca_TS_search/runs/da_i/TS_search
  ***********************************

Your calculation utilizes the semiempirical GFN2-xTB method
Please cite in your paper:
Bannwarth, C.; Ehlert S.; Grimme, S. J. Chem. Theory Comput. 2019, 15, 1652.
   

================================================================================

cite the ECPs for I  [Def2-ECP] as follows:
Ce-Yb(ecp-28): M. Dolg, H. Stoll, H.Preuss, J. Chem. Phys., 1989, 90, 1730-1734.
Y-Cd(ecp-28), Hf-Hg(ecp-46): D. Andrae,U. Haeussermann, M. Dolg, H. Stoll, H. Preuss, Theor. Chim. Acta, 1990, 77, 123-141.
In-Sb(ecp-28), Tl-Bi(ecp-46): B. Metz, H. Stoll, M. Dolg, J. Chem. Phys., 2000, 113, 2563-2569.
Te-Xe(ecp-28), Po-Rn(ecp-46): K. A. Peterson, D. Figgen, E. Goll, H. Stoll, M. Dolg, J. Chem. Phys., 2003, 119, 11113-11123.
Rb(ecp-28), Cs(ecp-46): T. Leininger, A. Nicklass, W. Kuechle, H. Stoll, M. Dolg, A. Bergner, Chem. Phys. Lett., 1996, 255, 274-280.
Sr(ecp-28), Ba(ecp-46): M. Kaupp, P. V. Schleyer, H. Stoll and H. Preuss, J. Chem. Phys., 1991, 94, 1360-1366.
La(ecp-46): M. Dolg, H. Stoll, A. Savin, H. Preuss, Theor. Chim. Acta, 1989, 75, 173-194.
Lu(ecp-28): X. Cao, M. Dolg, J. Chem. Phys., 2001, 115, 7348-7355.

ECP parameters for I  [Def2-ECP] have been obtained from:
TURBOMOLE (7.0.2)

================================================================================
                                        WARNINGS
                       Please study these warnings very carefully!
================================================================================


WARNING: Analytical Hessian for XTB is limited in the analysis of the data.
       : If you want to obtain extensive IR and deltaG analysis, please use ! XTB NumFreq. 


WARNING: Geometry Optimization
  ===> : Switching off AutoStart
         For restart on a previous wavefunction, please use MOREAD

WARNING: Found dipole moment calculation with XTB calculation
  ===> : Switching off dipole moment calculation


WARNING: Found frequency calculation in combination with XTB calculation
  ===> : Need to redirect dipole moment calculation to properties.out


================================================================================
                                       INPUT FILE
================================================================================
NAME = da_i.inp
|  1> ! XTB2 OptTS Freq PAL8
|  2> 
|  3> %geom
|  4>   Calc_Hess true
|  5>   Recalc_Hess 3
|  6>   MaxIter 200
|  7>   Trust -0.1
|  8> end
|  9> 
| 10> * xyz 0 1
| 11> C    0.233208   0.174684   0.275571
| 12> C    1.343729   0.079183  -0.539237
| 13> C    2.187803   1.208561  -0.500870
| 14> C    3.375494   1.075019   0.142327
| 15> C    2.310461   0.885780   2.140672
| 16> C    1.122845   0.166032   2.042922
| 17> H   -0.434542  -0.667827   0.382348
| 18> H   -0.255722   1.136991   0.341456
| 19> H    1.793122  -0.890893  -0.707840
| 20> H    1.730612   2.188425  -0.560862
| 21> H    4.004337   1.926627   0.347404
| 22> H    3.854341   0.109540   0.198864
| 23> H    0.240392   0.594873   2.490022
| 24> H    1.217804  -0.904288   2.155554
| 25> H    3.243637   0.432712   2.419529
| 26> I    2.210226   2.918439   2.678692
| 27> *
| 28> 
| 29>                          ****END OF INPUT****
================================================================================

                       *****************************
                       * Geometry Optimization Run *
                       *****************************

Geometry optimization settings:
Update method            Update   .... Bofill
Choice of coordinates    CoordSys .... (2022) Redundant Internals
Initial Hessian          InHess   .... Almloef's Model
Max. no of cycles        MaxIter  .... 200

Convergence Tolerances:
Energy Change            TolE     ....  5.0000e-06 Eh
Max. Gradient            TolMAXG  ....  3.0000e-04 Eh/bohr
RMS Gradient             TolRMSG  ....  1.0000e-04 Eh/bohr
Max. Displacement        TolMAXD  ....  4.0000e-03 bohr
RMS Displacement         TolRMSD  ....  2.0000e-03 bohr
Strict Convergence                .... False

------------------------------------------------------------------------------
                        ORCA OPTIMIZATION COORDINATE SETUP
------------------------------------------------------------------------------

The optimization will be done in redundant internal coordinates (2022)
Making redundant internal coordinates   ...  (2022 redundants) done
Following TS mode number                ...     0
Evaluating the initial hessian          ...  (Is done on the fly) done
Evaluating the coordinates              ...  done
Calculating the B-matrix                .... done
Calculating the G-matrix                .... done
The number of degrees of freedom        ....   63

    -----------------------------------------------------------------
                    Redundant Internal Coordinates


    -----------------------------------------------------------------
         Definition                    Initial Value    d2E/dq (diagonal element)
    -----------------------------------------------------------------
      1. B(C   1,C   0)                  1.3807         0.000000   
      2. B(C   2,C   1)                  1.4105         0.000000   
      3. B(C   3,C   2)                  1.3573         0.000000   
      4. B(C   5,C   4)                  1.3921         0.000000   
      5. B(C   5,C   0)                  1.9787         0.000000   
      6. B(H   6,C   0)                  1.0803         0.000000   
      7. B(H   7,C   0)                  1.0814         0.000000   
      8. B(H   8,C   1)                  1.0823         0.000000   
      9. B(H   9,C   2)                  1.0829         0.000000   
     10. B(H  10,C   3)                  1.0783         0.000000   
     11. B(H  11,C   3)                  1.0792         0.000000   
     12. B(H  12,C   5)                  1.0782         0.000000   
     13. B(H  13,C   5)                  1.0804         0.000000   
     14. B(H  14,C   4)                  1.0742         0.000000   
     15. B(I  15,C   4)                  2.1050         0.000000   
     16. A(H   6,C   0,H   7)          114.1105         0.000000   
     17. A(C   1,C   0,H   6)          120.1018         0.000000   
     18. A(C   5,C   0,H   6)          100.7320         0.000000   
     19. A(C   1,C   0,H   7)          117.4623         0.000000   
     20. A(C   1,C   0,C   5)           99.5079         0.000000   
     21. A(C   5,C   0,H   7)           98.7867         0.000000   
     22. A(C   2,C   1,H   8)          118.2571         0.000000   
     23. A(C   0,C   1,C   2)          114.1985         0.000000   
     24. A(C   0,C   1,H   8)          119.2022         0.000000   
     25. A(C   3,C   2,H   9)          118.9936         0.000000   
     26. A(C   1,C   2,H   9)          118.0568         0.000000   
     27. A(C   1,C   2,C   3)          117.2438         0.000000   
     28. A(C   2,C   3,H  11)          120.0747         0.000000   
     29. A(C   2,C   3,H  10)          121.5164         0.000000   
     30. A(H  10,C   3,H  11)          115.9654         0.000000   
     31. A(H  14,C   4,I  15)          112.4759         0.000000   
     32. A(C   5,C   4,H  14)          122.7706         0.000000   
     33. A(C   5,C   4,I  15)          118.4609         0.000000   
     34. A(H  12,C   5,H  13)          115.0068         0.000000   
     35. A(C   4,C   5,H  13)          115.4602         0.000000   
     36. A(C   0,C   5,H  13)           97.8723         0.000000   
     37. A(C   4,C   5,H  12)          117.6106         0.000000   
     38. A(C   0,C   5,H  12)           90.0379         0.000000   
     39. A(C   0,C   5,C   4)          116.3609         0.000000   
     40. D(H   8,C   1,C   0,C   5)     81.1766         0.000000   
     41. D(C   2,C   1,C   0,H   7)     38.5856         0.000000   
     42. D(C   2,C   1,C   0,C   5)    -66.5794         0.000000   
     43. D(C   2,C   1,C   0,H   6)   -174.9606         0.000000   
     44. D(H   8,C   1,C   0,H   6)    -27.2045         0.000000   
     45. D(C   3,C   2,C   1,H   8)    -40.6194         0.000000   
     46. D(C   3,C   2,C   1,C   0)    107.4614         0.000000   
     47. D(H   9,C   2,C   1,H   8)    166.2265         0.000000   
     48. D(H   9,C   2,C   1,C   0)    -45.6927         0.000000   
     49. D(H  11,C   3,C   2,H   9)   -179.0221         0.000000   
     50. D(H  11,C   3,C   2,C   1)     28.0829         0.000000   
     51. D(H  10,C   3,C   2,C   1)   -170.3705         0.000000   
     52. D(H  10,C   3,C   2,H   9)    -17.4756         0.000000   
     53. D(C   4,C   5,C   0,H   6)    162.7774         0.000000   
     54. D(C   4,C   5,C   0,C   1)     39.4570         0.000000   
     55. D(H  13,C   5,C   4,H  14)     -6.7347         0.000000   
     56. D(H  12,C   5,C   4,H  14)    134.2876         0.000000   
     57. D(C   0,C   5,C   4,I  15)     89.3495         0.000000   
     58. D(C   0,C   5,C   4,H  14)   -120.6413         0.000000   
     59. D(H  12,C   5,C   0,H   7)     40.6908         0.000000   
     60. D(H  12,C   5,C   0,H   6)    -76.0530         0.000000   
     61. D(H  12,C   5,C   4,I  15)    -15.7216         0.000000   
     62. D(H  12,C   5,C   0,C   1)    160.6266         0.000000   
     63. D(C   4,C   5,C   0,H   7)    -80.4788         0.000000   
    -----------------------------------------------------------------

Number of atoms                         .... 16
Number of degrees of freedom            .... 63


         *************************************************************
         *                GEOMETRY OPTIMIZATION CYCLE   1            *
         *************************************************************
---------------------------------
CARTESIAN COORDINATES (ANGSTROEM)
---------------------------------
  C     0.233208    0.174684    0.275571
  C     1.343729    0.079183   -0.539237
  C     2.187803    1.208561   -0.500870
  C     3.375494    1.075019    0.142327
  C     2.310461    0.885780    2.140672
  C     1.122845    0.166032    2.042922
  H    -0.434542   -0.667827    0.382348
  H    -0.255722    1.136991    0.341456
  H     1.793122   -0.890893   -0.707840
  H     1.730612    2.188425   -0.560862
  H     4.004337    1.926627    0.347404
  H     3.854341    0.109540    0.198864
  H     0.240392    0.594873    2.490022
  H     1.217804   -0.904288    2.155554
  H     3.243637    0.432712    2.419529
  I     2.210226    2.918439    2.678692

----------------------------
CARTESIAN COORDINATES (A.U.)
----------------------------
  NO LB    ZA    FRAG    MASS        X           Y           Z
   0 C   6.0000    0    12.011    0.440699    0.330105    0.520754
   1 C   6.0000    0    12.011    2.539280    0.149634   -1.019010
   2 C   6.0000    0    12.011    4.134349    2.283849   -0.946507
   3 C   6.0000    0    12.011    6.378759    2.031491    0.268959
   4 C   6.0000    0    12.011    4.366139    1.673882    4.045284
   5 C   6.0000    0    12.011    2.121870    0.313755    3.860563
   6 H   1.0000    0     1.008   -0.821165   -1.262010    0.722533
   7 H   1.0000    0     1.008   -0.483245    2.148602    0.645258
   8 H   1.0000    0     1.008    3.388510   -1.683544   -1.337624
   9 H   1.0000    0     1.008    3.270383    4.135524   -1.059876
  10 H   1.0000    0     1.008    7.567100    3.640797    0.656498
  11 H   1.0000    0     1.008    7.283649    0.207001    0.375798
  12 H   1.0000    0     1.008    0.454275    1.124147    4.705460
  13 H   1.0000    0     1.008    2.301316   -1.708857    4.073407
  14 H   1.0000    0     1.008    6.129586    0.817707    4.572247
  15 I  53.0000    0   126.900    4.176722    5.515050    5.061994

      -----------------------------------------------------------      
     |                   =====================                   |     
     |                           x T B                           |     
     |                   =====================                   |     
     |                         S. Grimme                         |     
     |          Mulliken Center for Theoretical Chemistry        |     
     |                    University of Bonn                     |     
      -----------------------------------------------------------      

   * xtb version 6.7.1 (edcfbbe) compiled by 'albert@albert-system' on 2024-07-22

   xtb is free software: you can redistribute it and/or modify it under
   the terms of the GNU Lesser General Public License as published by
   the Free Software Foundation, either version 3 of the License, or
   (at your option) any later version.
   
   xtb is distributed in the hope that it will be useful,
   but WITHOUT ANY WARRANTY; without even the implied warranty of
   MERCHANTABILITY or FITNESS FOR A PARTICULAR PURPOSE.  See the
   GNU Lesser General Public License for more details.
   
   Cite this work as:
   * C. Bannwarth, E. Caldeweyher, S. Ehlert, A. Hansen, P. Pracht,
     J. Seibert, S. Spicher, S. Grimme, WIREs Comput. Mol. Sci., 2020, 11,
     e01493. DOI: 10.1002/wcms.1493
   
   for GFN2-xTB:
   * C. Bannwarth, S. Ehlert and S. Grimme., J. Chem. Theory Comput., 2019,
     15, 1652-1671. DOI: 10.1021/acs.jctc.8b01176
   for GFN1-xTB:
   * S. Grimme, C. Bannwarth, P. Shushkov, J. Chem. Theory Comput., 2017,
     13, 1989-2009. DOI: 10.1021/acs.jctc.7b00118
   for GFN0-xTB:
   * P. Pracht, E. Caldeweyher, S. Ehlert, S. Grimme, ChemRxiv, 2019, preprint.
     DOI: 10.26434/chemrxiv.8326202.v1
   for GFN-FF:
   * S. Spicher and S. Grimme, Angew. Chem. Int. Ed., 2020, 59, 15665-15673.
     DOI: 10.1002/anie.202004239
   
   for ALPB and GBSA implicit solvation:
   * S. Ehlert, M. Stahn, S. Spicher, S. Grimme, J. Chem. Theory Comput.,
     2021, 17, 4250-4261. DOI: 10.1021/acs.jctc.1c00471
   
   for ddCOSMO and CPCM-X implicit solvation:
   * M. Stahn, S. Ehlert, S. Grimme, J. Phys. Chem. A,
     2023, XX, XXXX-XXXX. DOI: 10.1021/acs.jpca.3c04382
   
   for DFT-D4:
   * E. Caldeweyher, C. Bannwarth and S. Grimme, J. Chem. Phys., 2017,
     147, 034112. DOI: 10.1063/1.4993215
   * E. Caldeweyher, S. Ehlert, A. Hansen, H. Neugebauer, S. Spicher,
     C. Bannwarth and S. Grimme, J. Chem. Phys., 2019, 150, 154122.
     DOI: 10.1063/1.5090222
   * E. Caldeweyher, J.-M. Mewes, S. Ehlert and S. Grimme, Phys. Chem. Chem. Phys.
     2020, 22, 8499-8512. DOI: 10.1039/D0CP00502A
   
   for sTDA-xTB:
   * S. Grimme and C. Bannwarth, J. Chem. Phys., 2016, 145, 054103.
     DOI: 10.1063/1.4959605
   
   in the mass-spec context:
   * V. Asgeirsson, C. Bauer and S. Grimme, Chem. Sci., 2017, 8, 4879.
     DOI: 10.1039/c7sc00601b
   * J. Koopman and S. Grimme, ACS Omega 2019, 4, 12, 15120-15133.
     DOI: 10.1021/acsomega.9b02011
   
   for metadynamics refer to:
   * S. Grimme, J. Chem. Theory Comput., 2019, 155, 2847-2862
     DOI: 10.1021/acs.jctc.9b00143
   
   for SPH calculations refer to:
   * S. Spicher and S. Grimme, J. Chem. Theory Comput., 2021, 17, 1701-1714
     DOI: 10.1021/acs.jctc.0c01306
   
   for ONIOM refer to:
   * C. Plett, A. Katbashev, S. Ehlert, S. Grimme, M. Bursch,
     Phys. Chem. Chem. Phys., 2023, 25, 17860-17868. DOI: 10.1039/D3CP02178E
   
   for DIPRO refer to:
   * J. Kohn, N. Gildemeister, S. Grimme, D. Fazzi, A. Hansen,
     J. Chem. Phys., 2023, just accepted.
   
   for PTB refer to:
   * S. Grimme, M. Mueller, A. Hansen, J. Chem. Phys., 2023, 158, 124111.
     DOI: 10.1063/5.0137838
   
   with help from (in alphabetical order)
   P. Atkinson, C. Bannwarth, F. Bohle, G. Brandenburg, E. Caldeweyher
   M. Checinski, S. Dohm, S. Ehlert, S. Ehrlich, I. Gerasimov, C. Hölzer
   A. Katbashev, J. Kohn, J. Koopman, C. Lavigne, S. Lehtola, F. März, M. Müller,
   F. Musil, H. Neugebauer, J. Pisarek, C. Plett, P. Pracht, F. Pultar,
   J. Seibert, P. Shushkov, S. Spicher, M. Stahn, M. Steiner, T. Strunk,
   J. Stückrath, T. Rose, and J. Unsleber
   
 * started run on 2026/03/15 at 23:50:49.407     
   ID    Z sym.   atoms
    1    6 C      1-6
    2    1 H      7-15
    3   53 I      16

           -------------------------------------------------
          |                Calculation Setup                |
           -------------------------------------------------

          program call               : /software/orca-6.1.0-el8-x86_64/bin/otool_xtb da_i_XTB.xyz --grad -c 0 -u 0 -P 8 --namespace da_i --input da_i_XTB.input.tmp --acc 0.200000
          hostname                   : midway3-login3.rcc.local
          calculation namespace      : da_i
          coordinate file            : da_i_XTB.xyz
          omp threads                :                     8


           -------------------------------------------------
          |                 G F N 2 - x T B                 |
           -------------------------------------------------

        Reference                      10.1021/acs.jctc.8b01176
      * Hamiltonian:
        H0-scaling (s, p, d)           1.850000    2.230000    2.230000
        zeta-weighting                 0.500000
      * Dispersion:
        s8                             2.700000
        a1                             0.520000
        a2                             5.000000
        s9                             5.000000
      * Repulsion:
        kExp                           1.500000    1.000000
        rExp                           1.000000
      * Coulomb:
        alpha                          2.000000
        third order                    shell-resolved
        anisotropic                    true
        a3                             3.000000
        a5                             4.000000
        cn-shift                       1.200000
        cn-exp                         4.000000
        max-rad                        5.000000


          ...................................................
          :                      SETUP                      :
          :.................................................:
          :  # basis functions                  43          :
          :  # atomic orbitals                  42          :
          :  # shells                           24          :
          :  # electrons                        40          :
          :  max. iterations                   250          :
          :  Hamiltonian                  GFN2-xTB          :
          :  restarted?                      false          :
          :  GBSA solvation                  false          :
          :  PC potential                    false          :
          :  electronic temp.          300.0000000     K    :
          :  accuracy                    0.2000000          :
          :  -> integral cutoff          0.3198970E+02      :
          :  -> integral neglect         0.2000000E-08      :
          :  -> SCF convergence          0.2000000E-06 Eh   :
          :  -> wf. convergence          0.2000000E-04 e    :
          :  Broyden damping             0.4000000          :
          :  net charge                          0          :
          :  unpaired electrons                  0          :
          ...................................................

 iter      E             dE          RMSdq      gap      omega  full diag
   1    -21.3845260 -0.213845E+02  0.624E+00    2.95       0.0  T
   2    -21.4034586 -0.189327E-01  0.405E+00    2.83       1.0  T
   3    -21.3186173  0.848413E-01  0.306E+00    3.04       1.0  T
   4    -21.4116668 -0.930495E-01  0.789E-01    2.89       1.0  T
   5    -21.4126417 -0.974895E-03  0.484E-01    2.88       1.0  T
   6    -21.4135354 -0.893711E-03  0.240E-01    2.89       1.0  T
   7    -21.4136063 -0.708508E-04  0.191E-01    2.88       1.0  T
   8    -21.4136826 -0.762725E-04  0.328E-02    2.89       1.0  T
   9    -21.4136856 -0.299088E-05  0.194E-02    2.89       1.3  T
  10    -21.4136861 -0.566279E-06  0.695E-03    2.89       3.6  T
  11    -21.4136863 -0.212297E-06  0.261E-03    2.89       9.6  T
  12    -21.4136864 -0.339694E-07  0.127E-03    2.89      19.7  T
  13    -21.4136864 -0.535700E-08  0.174E-04    2.89     143.3  T
  14    -21.4136864 -0.710507E-10  0.770E-05    2.89     324.7  T

   *** convergence criteria satisfied after 14 iterations ***

         #    Occupation            Energy/Eh            Energy/eV
      -------------------------------------------------------------
         1        2.0000           -0.7290319             -19.8380
       ...           ...                  ...                  ...
        14        2.0000           -0.4627511             -12.5921
        15        2.0000           -0.4525567             -12.3147
        16        2.0000           -0.4401594             -11.9773
        17        2.0000           -0.4221225             -11.4865
        18        2.0000           -0.4048287             -11.0159
        19        2.0000           -0.3993915             -10.8680
        20        2.0000           -0.3662843              -9.9671 (HOMO)
        21                         -0.2600228              -7.0756 (LUMO)
        22                         -0.2204775              -5.9995
        23                         -0.2120633              -5.7705
        24                         -0.1469981              -4.0000
        25                          0.0246642               0.6711
       ...                                ...                  ...
        42                          0.5283620              14.3775
      -------------------------------------------------------------
                  HL-Gap            0.1062615 Eh            2.8915 eV
             Fermi-level           -0.3131536 Eh           -8.5213 eV

 SCC (total)                   0 d,  0 h,  0 min,  0.040 sec
 SCC setup                      ...        0 min,  0.000 sec (  0.810%)
 Dispersion                     ...        0 min,  0.000 sec (  0.358%)
 classical contributions        ...        0 min,  0.000 sec (  0.194%)
 integral evaluation            ...        0 min,  0.033 sec ( 80.866%)
 iterations                     ...        0 min,  0.005 sec ( 13.238%)
 molecular gradient             ...        0 min,  0.002 sec (  4.128%)
 printout                       ...        0 min,  0.000 sec (  0.363%)

         :::::::::::::::::::::::::::::::::::::::::::::::::::::
         ::                     SUMMARY                     ::
         :::::::::::::::::::::::::::::::::::::::::::::::::::::
         :: total energy             -21.101014673203 Eh    ::
         :: gradient norm              0.007708616405 Eh/a0 ::
         :: HOMO-LUMO gap              2.891523002009 eV    ::
         ::.................................................::
         :: SCC energy               -21.413644344469 Eh    ::
         :: -> isotropic ES            0.004651213406 Eh    ::
         :: -> anisotropic ES          0.002413890712 Eh    ::
         :: -> anisotropic XC          0.013320410536 Eh    ::
         :: -> dispersion             -0.014565157692 Eh    ::
         :: repulsion energy           0.312629671266 Eh    ::
         :: add. restraining           0.000000000000 Eh    ::
         :: total charge               0.000000000000 e     ::
         :::::::::::::::::::::::::::::::::::::::::::::::::::::


Property printout bound to 'properties.out'

           -------------------------------------------------
          | TOTAL ENERGY              -21.101014673203 Eh   |
          | GRADIENT NORM               0.007708616405 Eh/α |
          | HOMO-LUMO GAP               2.891523002009 eV   |
           -------------------------------------------------

------------------------------------------------------------------------
 * finished run on 2026/03/15 at 23:50:49.527     
------------------------------------------------------------------------
 total:
 * wall-time:     0 d,  0 h,  0 min,  0.119 sec
 *  cpu-time:     0 d,  0 h,  0 min,  0.424 sec
 * ratio c/w:     3.569 speedup
 SCF:
 * wall-time:     0 d,  0 h,  0 min,  0.040 sec
 *  cpu-time:     0 d,  0 h,  0 min,  0.291 sec
 * ratio c/w:     7.185 speedup


-------------------------   --------------------
FINAL SINGLE POINT ENERGY       -21.101014673200
-------------------------   --------------------


-------------
DIPOLE MOMENT
-------------
                                X             Y             Z
Total Dipole Moment    :     -0.10200      -1.41500      -0.38800
                        -----------------------------------------
Magnitude (a.u.)       :      1.47077
Magnitude (Debye)      :      3.73841


------------------
CARTESIAN GRADIENT
------------------

   1   C   :   -0.000378194    0.000052533   -0.000445397
   2   C   :   -0.000149370   -0.000419805   -0.000113127
   3   C   :   -0.000219533    0.000699066    0.000364064
   4   C   :    0.000290791    0.000608318   -0.000067165
   5   C   :    0.000025044    0.003181879    0.001152392
   6   C   :   -0.001289123   -0.000392635    0.000097454
   7   H   :    0.000047617   -0.000019079    0.000001942
   8   H   :    0.000033503   -0.000044988   -0.000024697
   9   H   :    0.000007556   -0.000016648    0.000027533
  10   H   :    0.000068251   -0.000044187    0.000103687
  11   H   :   -0.000318319    0.000274729    0.000496975
  12   H   :   -0.000042626   -0.000060885    0.000174364
  13   H   :    0.000142888    0.000810793    0.000180060
  14   H   :    0.000217657    0.000535474    0.000107308
  15   H   :    0.001168036    0.000681671    0.000496010
  16   I   :    0.000395822   -0.005846236   -0.002551403

Difference to translation invariance:
           :    0.0000000000   -0.0000000000    0.0000000000

Difference to rotation invariance:
           :    0.0000003649    0.0000001154   -0.0000002054

Norm of the Cartesian gradient     ...    0.0077086164
RMS gradient                       ...    0.0011126429
MAX gradient                       ...    0.0058462360
      -----------------------------------------------------------      
     |                   =====================                   |     
     |                           x T B                           |     
     |                   =====================                   |     
     |                         S. Grimme                         |     
     |          Mulliken Center for Theoretical Chemistry        |     
     |                    University of Bonn                     |     
      -----------------------------------------------------------      

   * xtb version 6.7.1 (edcfbbe) compiled by 'albert@albert-system' on 2024-07-22

   xtb is free software: you can redistribute it and/or modify it under
   the terms of the GNU Lesser General Public License as published by
   the Free Software Foundation, either version 3 of the License, or
   (at your option) any later version.
   
   xtb is distributed in the hope that it will be useful,
   but WITHOUT ANY WARRANTY; without even the implied warranty of
   MERCHANTABILITY or FITNESS FOR A PARTICULAR PURPOSE.  See the
   GNU Lesser General Public License for more details.
   
   Cite this work as:
   * C. Bannwarth, E. Caldeweyher, S. Ehlert, A. Hansen, P. Pracht,
     J. Seibert, S. Spicher, S. Grimme, WIREs Comput. Mol. Sci., 2020, 11,
     e01493. DOI: 10.1002/wcms.1493
   
   for GFN2-xTB:
   * C. Bannwarth, S. Ehlert and S. Grimme., J. Chem. Theory Comput., 2019,
     15, 1652-1671. DOI: 10.1021/acs.jctc.8b01176
   for GFN1-xTB:
   * S. Grimme, C. Bannwarth, P. Shushkov, J. Chem. Theory Comput., 2017,
     13, 1989-2009. DOI: 10.1021/acs.jctc.7b00118
   for GFN0-xTB:
   * P. Pracht, E. Caldeweyher, S. Ehlert, S. Grimme, ChemRxiv, 2019, preprint.
     DOI: 10.26434/chemrxiv.8326202.v1
   for GFN-FF:
   * S. Spicher and S. Grimme, Angew. Chem. Int. Ed., 2020, 59, 15665-15673.
     DOI: 10.1002/anie.202004239
   
   for ALPB and GBSA implicit solvation:
   * S. Ehlert, M. Stahn, S. Spicher, S. Grimme, J. Chem. Theory Comput.,
     2021, 17, 4250-4261. DOI: 10.1021/acs.jctc.1c00471
   
   for ddCOSMO and CPCM-X implicit solvation:
   * M. Stahn, S. Ehlert, S. Grimme, J. Phys. Chem. A,
     2023, XX, XXXX-XXXX. DOI: 10.1021/acs.jpca.3c04382
   
   for DFT-D4:
   * E. Caldeweyher, C. Bannwarth and S. Grimme, J. Chem. Phys., 2017,
     147, 034112. DOI: 10.1063/1.4993215
   * E. Caldeweyher, S. Ehlert, A. Hansen, H. Neugebauer, S. Spicher,
     C. Bannwarth and S. Grimme, J. Chem. Phys., 2019, 150, 154122.
     DOI: 10.1063/1.5090222
   * E. Caldeweyher, J.-M. Mewes, S. Ehlert and S. Grimme, Phys. Chem. Chem. Phys.
     2020, 22, 8499-8512. DOI: 10.1039/D0CP00502A
   
   for sTDA-xTB:
   * S. Grimme and C. Bannwarth, J. Chem. Phys., 2016, 145, 054103.
     DOI: 10.1063/1.4959605
   
   in the mass-spec context:
   * V. Asgeirsson, C. Bauer and S. Grimme, Chem. Sci., 2017, 8, 4879.
     DOI: 10.1039/c7sc00601b
   * J. Koopman and S. Grimme, ACS Omega 2019, 4, 12, 15120-15133.
     DOI: 10.1021/acsomega.9b02011
   
   for metadynamics refer to:
   * S. Grimme, J. Chem. Theory Comput., 2019, 155, 2847-2862
     DOI: 10.1021/acs.jctc.9b00143
   
   for SPH calculations refer to:
   * S. Spicher and S. Grimme, J. Chem. Theory Comput., 2021, 17, 1701-1714
     DOI: 10.1021/acs.jctc.0c01306
   
   for ONIOM refer to:
   * C. Plett, A. Katbashev, S. Ehlert, S. Grimme, M. Bursch,
     Phys. Chem. Chem. Phys., 2023, 25, 17860-17868. DOI: 10.1039/D3CP02178E
   
   for DIPRO refer to:
   * J. Kohn, N. Gildemeister, S. Grimme, D. Fazzi, A. Hansen,
     J. Chem. Phys., 2023, just accepted.
   
   for PTB refer to:
   * S. Grimme, M. Mueller, A. Hansen, J. Chem. Phys., 2023, 158, 124111.
     DOI: 10.1063/5.0137838
   
   with help from (in alphabetical order)
   P. Atkinson, C. Bannwarth, F. Bohle, G. Brandenburg, E. Caldeweyher
   M. Checinski, S. Dohm, S. Ehlert, S. Ehrlich, I. Gerasimov, C. Hölzer
   A. Katbashev, J. Kohn, J. Koopman, C. Lavigne, S. Lehtola, F. März, M. Müller,
   F. Musil, H. Neugebauer, J. Pisarek, C. Plett, P. Pracht, F. Pultar,
   J. Seibert, P. Shushkov, S. Spicher, M. Stahn, M. Steiner, T. Strunk,
   J. Stückrath, T. Rose, and J. Unsleber
   
 * started run on 2026/03/15 at 23:50:49.536     
   ID    Z sym.   atoms
    1    6 C      1-6
    2    1 H      7-15
    3   53 I      16

           -------------------------------------------------
          |                Calculation Setup                |
           -------------------------------------------------

          program call               : /software/orca-6.1.0-el8-x86_64/bin/otool_xtb da_i_XTB.xyz --hess -c 0 -u 0 -P 8 --namespace da_i --input da_i_XTB.input.tmp --acc 0.200000
          hostname                   : midway3-login3.rcc.local
          calculation namespace      : da_i
          coordinate file            : da_i_XTB.xyz
          omp threads                :                     8


           -------------------------------------------------
          |                 G F N 2 - x T B                 |
           -------------------------------------------------

        Reference                      10.1021/acs.jctc.8b01176
      * Hamiltonian:
        H0-scaling (s, p, d)           1.850000    2.230000    2.230000
        zeta-weighting                 0.500000
      * Dispersion:
        s8                             2.700000
        a1                             0.520000
        a2                             5.000000
        s9                             5.000000
      * Repulsion:
        kExp                           1.500000    1.000000
        rExp                           1.000000
      * Coulomb:
        alpha                          2.000000
        third order                    shell-resolved
        anisotropic                    true
        a3                             3.000000
        a5                             4.000000
        cn-shift                       1.200000
        cn-exp                         4.000000
        max-rad                        5.000000

q/qsh data taken from xtbrestart
CAMM data taken from xtbrestart

          ...................................................
          :                      SETUP                      :
          :.................................................:
          :  # basis functions                  43          :
          :  # atomic orbitals                  42          :
          :  # shells                           24          :
          :  # electrons                        40          :
          :  max. iterations                   250          :
          :  Hamiltonian                  GFN2-xTB          :
          :  restarted?                       true          :
          :  GBSA solvation                  false          :
          :  PC potential                    false          :
          :  electronic temp.          300.0000000     K    :
          :  accuracy                    0.2000000          :
          :  -> integral cutoff          0.3198970E+02      :
          :  -> integral neglect         0.2000000E-08      :
          :  -> SCF convergence          0.2000000E-06 Eh   :
          :  -> wf. convergence          0.2000000E-04 e    :
          :  Broyden damping             0.4000000          :
          :  net charge                          0          :
          :  unpaired electrons                  0          :
          ...................................................

 iter      E             dE          RMSdq      gap      omega  full diag
   1    -21.4136864 -0.214137E+02  0.387E-05    2.89       0.0  T
   2    -21.4136864 -0.174794E-11  0.274E-05    2.89     912.0  T
   3    -21.4136864  0.710543E-12  0.188E-05    2.89    1331.6  T

   *** convergence criteria satisfied after 3 iterations ***

         #    Occupation            Energy/Eh            Energy/eV
      -------------------------------------------------------------
         1        2.0000           -0.7290321             -19.8380
       ...           ...                  ...                  ...
        14        2.0000           -0.4627512             -12.5921
        15        2.0000           -0.4525568             -12.3147
        16        2.0000           -0.4401594             -11.9773
        17        2.0000           -0.4221226             -11.4865
        18        2.0000           -0.4048288             -11.0160
        19        2.0000           -0.3993916             -10.8680
        20        2.0000           -0.3662844              -9.9671 (HOMO)
        21                         -0.2600229              -7.0756 (LUMO)
        22                         -0.2204778              -5.9995
        23                         -0.2120635              -5.7705
        24                         -0.1469981              -4.0000
        25                          0.0246642               0.6711
       ...                                ...                  ...
        42                          0.5283618              14.3775
      -------------------------------------------------------------
                  HL-Gap            0.1062615 Eh            2.8915 eV
             Fermi-level           -0.3131536 Eh           -8.5213 eV

 SCC (total)                   0 d,  0 h,  0 min,  0.028 sec
 SCC setup                      ...        0 min,  0.000 sec (  0.701%)
 Dispersion                     ...        0 min,  0.000 sec (  0.341%)
 classical contributions        ...        0 min,  0.000 sec (  0.119%)
 integral evaluation            ...        0 min,  0.024 sec ( 87.169%)
 iterations                     ...        0 min,  0.002 sec (  6.422%)
 molecular gradient             ...        0 min,  0.001 sec (  4.785%)
 printout                       ...        0 min,  0.000 sec (  0.399%)

         :::::::::::::::::::::::::::::::::::::::::::::::::::::
         ::                     SUMMARY                     ::
         :::::::::::::::::::::::::::::::::::::::::::::::::::::
         :: total energy             -21.101014673211 Eh    ::
         :: gradient norm              0.007708708058 Eh/a0 ::
         :: HOMO-LUMO gap              2.891522232993 eV    ::
         ::.................................................::
         :: SCC energy               -21.413644344478 Eh    ::
         :: -> isotropic ES            0.004651148631 Eh    ::
         :: -> anisotropic ES          0.002413881865 Eh    ::
         :: -> anisotropic XC          0.013320426750 Eh    ::
         :: -> dispersion             -0.014565160296 Eh    ::
         :: repulsion energy           0.312629671266 Eh    ::
         :: add. restraining           0.000000000000 Eh    ::
         :: total charge               0.000000000000 e     ::
         :::::::::::::::::::::::::::::::::::::::::::::::::::::

           ------------------------------------------------- 
          |                Numerical Hessian                |
           ------------------------------------------------- 
step length          :   0.00500
SCC accuracy         :   0.30000
Hessian scale factor :   1.00000
frozen atoms in %    :   0.00000    0
RMS gradient         :   0.00771 !! INCOMPLETELY OPTIMIZED GEOMETRY !!
estimated CPU  time      0.03 min
estimated wall time      0.01 min

writing file <hessian>.

 projected vibrational frequencies (cm⁻¹)
eigval :       -0.00    -0.00    -0.00     0.00     0.00     0.00
eigval :     -547.81    61.69   103.10   142.14   261.98   321.12
eigval :      364.96   414.65   496.29   532.57   573.55   741.55
eigval :      768.96   795.40   871.05   927.28   941.83   966.18
eigval :      991.54  1017.86  1050.04  1071.19  1092.63  1204.28
eigval :     1236.90  1256.38  1272.82  1300.53  1362.23  1421.65
eigval :     1439.46  1517.81  1562.49  3045.55  3051.57  3060.13
eigval :     3065.10  3079.58  3084.05  3094.40  3106.72  3110.51

Property printout bound to 'properties.out'
Refinement of some symmetry elements was terminated before convergence was reached.
Some symmetry elements may remain unidentified.
Molecule has no symmetry elements
It seems to be the C1 point group
imag cut-off (cm-1) :    5.00
 found            1  significant imaginary frequency
 writing imag mode distorted coords to xtbhess.xyz
 for further optimization.

           -------------------------------------------------
          | TOTAL ENERGY              -21.101014673206 Eh   |
          | TOTAL ENTHALPY            -20.965141858224 Eh   |
          | TOTAL FREE ENERGY         -21.007959611348 Eh   |
          | GRADIENT NORM               0.007708669033 Eh/α |
          | HOMO-LUMO GAP               2.891522208356 eV   |
           -------------------------------------------------
########################################################################
[WARNING] Runtime exception occurred
-1- hessian_numhess: Hessian on incompletely optimized geometry!
########################################################################

------------------------------------------------------------------------
 * finished run on 2026/03/15 at 23:50:49.839     
------------------------------------------------------------------------
 total:
 * wall-time:     0 d,  0 h,  0 min,  0.303 sec
 *  cpu-time:     0 d,  0 h,  0 min,  1.007 sec
 * ratio c/w:     3.325 speedup
 SCF:
 * wall-time:     0 d,  0 h,  0 min,  0.028 sec
 *  cpu-time:     0 d,  0 h,  0 min,  0.198 sec
 * ratio c/w:     7.163 speedup
 analytical hessian:
 * wall-time:     0 d,  0 h,  0 min,  0.255 sec
 *  cpu-time:     0 d,  0 h,  0 min,  0.724 sec
 * ratio c/w:     2.836 speedup


-------------------------   --------------------
FINAL SINGLE POINT ENERGY       -21.101014673200
-------------------------   --------------------


-------------
DIPOLE MOMENT
-------------
                                X             Y             Z
Total Dipole Moment    :     -0.10200      -1.41500      -0.38800
                        -----------------------------------------
Magnitude (a.u.)       :      1.47077
Magnitude (Debye)      :      3.73841


-----------------------
VIBRATIONAL FREQUENCIES
-----------------------

Scaling factor for frequencies =  1.000000000  (already applied!)

     0:       0.00 cm**-1
     1:       0.00 cm**-1
     2:       0.00 cm**-1
     3:       0.00 cm**-1
     4:       0.00 cm**-1
     5:       0.00 cm**-1
     6:    -547.81 cm**-1  ***imaginary mode***
     7:      61.69 cm**-1
     8:     103.10 cm**-1
     9:     142.14 cm**-1
    10:     261.98 cm**-1
    11:     321.12 cm**-1
    12:     364.95 cm**-1
    13:     414.64 cm**-1
    14:     496.29 cm**-1
    15:     532.56 cm**-1
    16:     573.54 cm**-1
    17:     741.53 cm**-1
    18:     768.94 cm**-1
    19:     795.38 cm**-1
    20:     871.03 cm**-1
    21:     927.26 cm**-1
    22:     941.81 cm**-1
    23:     966.16 cm**-1
    24:     991.52 cm**-1
    25:    1017.83 cm**-1
    26:    1050.01 cm**-1
    27:    1071.16 cm**-1
    28:    1092.60 cm**-1
    29:    1204.25 cm**-1
    30:    1236.87 cm**-1
    31:    1256.35 cm**-1
    32:    1272.80 cm**-1
    33:    1300.50 cm**-1
    34:    1362.20 cm**-1
    35:    1421.61 cm**-1
    36:    1439.43 cm**-1
    37:    1517.78 cm**-1
    38:    1562.46 cm**-1
    39:    3045.47 cm**-1
    40:    3051.48 cm**-1
    41:    3060.04 cm**-1
    42:    3065.01 cm**-1
    43:    3079.49 cm**-1
    44:    3083.97 cm**-1
    45:    3094.32 cm**-1
    46:    3106.63 cm**-1
    47:    3110.43 cm**-1


------------
NORMAL MODES
------------

These modes are the Cartesian displacements weighted by the diagonal matrix
M(i,i)=1/sqrt(m[i]) where m[i] is the mass of the displaced atom
Thus, these vectors are normalized but *not* orthogonal

                  0          1          2          3          4          5    
      0       0.000000   0.000000   0.000000   0.000000   0.000000   0.000000
      1       0.000000   0.000000   0.000000   0.000000   0.000000   0.000000
      2       0.000000   0.000000   0.000000   0.000000   0.000000   0.000000
      3       0.000000   0.000000   0.000000   0.000000   0.000000   0.000000
      4       0.000000   0.000000   0.000000   0.000000   0.000000   0.000000
      5       0.000000   0.000000   0.000000   0.000000   0.000000   0.000000
      6       0.000000   0.000000   0.000000   0.000000   0.000000   0.000000
      7       0.000000   0.000000   0.000000   0.000000   0.000000   0.000000
      8       0.000000   0.000000   0.000000   0.000000   0.000000   0.000000
      9       0.000000   0.000000   0.000000   0.000000   0.000000   0.000000
     10       0.000000   0.000000   0.000000   0.000000   0.000000   0.000000
     11       0.000000   0.000000   0.000000   0.000000   0.000000   0.000000
     12       0.000000   0.000000   0.000000   0.000000   0.000000   0.000000
     13       0.000000   0.000000   0.000000   0.000000   0.000000   0.000000
     14       0.000000   0.000000   0.000000   0.000000   0.000000   0.000000
     15       0.000000   0.000000   0.000000   0.000000   0.000000   0.000000
     16       0.000000   0.000000   0.000000   0.000000   0.000000   0.000000
     17       0.000000   0.000000   0.000000   0.000000   0.000000   0.000000
     18       0.000000   0.000000   0.000000   0.000000   0.000000   0.000000
     19       0.000000   0.000000   0.000000   0.000000   0.000000   0.000000
     20       0.000000   0.000000   0.000000   0.000000   0.000000   0.000000
     21       0.000000   0.000000   0.000000   0.000000   0.000000   0.000000
     22       0.000000   0.000000   0.000000   0.000000   0.000000   0.000000
     23       0.000000   0.000000   0.000000   0.000000   0.000000   0.000000
     24       0.000000   0.000000   0.000000   0.000000   0.000000   0.000000
     25       0.000000   0.000000   0.000000   0.000000   0.000000   0.000000
     26       0.000000   0.000000   0.000000   0.000000   0.000000   0.000000
     27       0.000000   0.000000   0.000000   0.000000   0.000000   0.000000
     28       0.000000   0.000000   0.000000   0.000000   0.000000   0.000000
     29       0.000000   0.000000   0.000000   0.000000   0.000000   0.000000
     30       0.000000   0.000000   0.000000   0.000000   0.000000   0.000000
     31       0.000000   0.000000   0.000000   0.000000   0.000000   0.000000
     32       0.000000   0.000000   0.000000   0.000000   0.000000   0.000000
     33       0.000000   0.000000   0.000000   0.000000   0.000000   0.000000
     34       0.000000   0.000000   0.000000   0.000000   0.000000   0.000000
     35       0.000000   0.000000   0.000000   0.000000   0.000000   0.000000
     36       0.000000   0.000000   0.000000   0.000000   0.000000   0.000000
     37       0.000000   0.000000   0.000000   0.000000   0.000000   0.000000
     38       0.000000   0.000000   0.000000   0.000000   0.000000   0.000000
     39       0.000000   0.000000   0.000000   0.000000   0.000000   0.000000
     40       0.000000   0.000000   0.000000   0.000000   0.000000   0.000000
     41       0.000000   0.000000   0.000000   0.000000   0.000000   0.000000
     42       0.000000   0.000000   0.000000   0.000000   0.000000   0.000000
     43       0.000000   0.000000   0.000000   0.000000   0.000000   0.000000
     44       0.000000   0.000000   0.000000   0.000000   0.000000   0.000000
     45       0.000000   0.000000   0.000000   0.000000   0.000000   0.000000
     46       0.000000   0.000000   0.000000   0.000000   0.000000   0.000000
     47       0.000000   0.000000   0.000000   0.000000   0.000000   0.000000
                  6          7          8          9         10         11    
      0       0.141795  -0.046340  -0.140057   0.054876   0.033761  -0.013895
      1       0.016492  -0.246250   0.002721  -0.106063  -0.158935  -0.096230
      2       0.390793  -0.210246  -0.211733   0.067182   0.015146   0.001912
      3       0.052841   0.058155  -0.032767   0.085285  -0.041593   0.016975
      4       0.016882  -0.174404   0.115949   0.096893   0.089272   0.081073
      5      -0.019494  -0.057994  -0.003022   0.060145  -0.137438   0.033797
      6      -0.055131  -0.086973  -0.039595  -0.044489  -0.017425   0.006130
      7      -0.028697  -0.071134   0.105952   0.186001   0.067222   0.080049
      8      -0.017460  -0.088244   0.095790   0.190714   0.080620   0.032962
      9      -0.091623  -0.135057  -0.191305   0.012739   0.015596   0.051201
     10      -0.030162   0.091723  -0.044629   0.242549  -0.182902  -0.105016
     11       0.261554   0.054335   0.412567   0.081667  -0.044224  -0.073733
     12       0.121568  -0.071148   0.181092  -0.154465  -0.087569   0.108706
     13       0.050534   0.046910  -0.028922  -0.068646  -0.025379   0.048721
     14      -0.333500  -0.100994  -0.092726   0.150517   0.034990  -0.094027
     15      -0.154175  -0.092226   0.212444  -0.191261  -0.022304  -0.008969
     16       0.025759   0.074278  -0.079204  -0.004833  -0.137403   0.220881
     17      -0.401101  -0.046619   0.123509   0.041818  -0.074327   0.078417
     18       0.054529   0.080610  -0.044048   0.160426   0.147887   0.180527
     19       0.037135  -0.336894  -0.060472  -0.207334  -0.268847  -0.246644
     20       0.154205  -0.148722  -0.174735  -0.053206  -0.112746   0.021940
     21      -0.013277  -0.179571  -0.135821  -0.117820  -0.121297  -0.231326
     22      -0.018972  -0.309565  -0.017932  -0.189162  -0.245216  -0.207133
     23       0.010515  -0.316778   0.008964   0.025317   0.135177  -0.030390
     24       0.103963   0.198070  -0.008935   0.217374  -0.017216   0.106731
     25       0.003506  -0.133662   0.132434   0.167184   0.141210   0.117529
     26       0.165557   0.076757  -0.046586   0.006460  -0.385172   0.038085
     27      -0.090811  -0.201636  -0.007780  -0.148824   0.053975   0.070910
     28      -0.028688  -0.130250   0.121874   0.144435   0.111030   0.111529
     29       0.161210  -0.167738   0.146441   0.303877   0.289945   0.121142
     30      -0.063532  -0.229623  -0.089007  -0.084269   0.153956   0.198879
     31      -0.019622   0.169272  -0.125345   0.288543  -0.317886  -0.216855
     32       0.159193   0.024743   0.448771   0.184704   0.085634  -0.060339
     33       0.004409  -0.013217  -0.229792   0.110438  -0.157216  -0.093204
     34       0.000568   0.153069  -0.078055   0.286788  -0.276425  -0.183909
     35       0.042134   0.085419   0.241831  -0.012610  -0.168961  -0.177757
     36       0.134086  -0.118946   0.147772  -0.179513  -0.056232   0.074287
     37       0.007836   0.176034  -0.082292   0.062525  -0.286256   0.507785
     38       0.229363  -0.202693  -0.026585   0.008695   0.006780  -0.037572
     39      -0.006321  -0.150305   0.191422  -0.236878   0.141082  -0.248008
     40       0.064481   0.084362  -0.088398   0.001658  -0.126622   0.224083
     41       0.027112   0.065375  -0.025210   0.163531  -0.084573   0.284043
     42      -0.166768  -0.121934   0.136606  -0.171203  -0.055449   0.063051
     43      -0.096120  -0.008573   0.030913  -0.134710   0.014598  -0.011413
     44       0.425929  -0.008449   0.180065   0.094384  -0.007362  -0.038132
     45      -0.001098   0.041211   0.001279   0.026038   0.010603  -0.016126
     46      -0.004413   0.029066  -0.005473  -0.036075   0.042914  -0.022474
     47       0.000359   0.047273  -0.036684  -0.061765   0.013770   0.000995
                 12         13         14         15         16         17    
      0      -0.168164  -0.101648  -0.025112  -0.112591   0.037966  -0.004560
      1       0.008328  -0.022670   0.004903  -0.084542  -0.000606   0.041634
      2      -0.086142  -0.001535  -0.033164   0.058535   0.001301   0.002640
      3      -0.025056   0.048343   0.003449  -0.160969   0.007737   0.008304
      4      -0.047148   0.068809  -0.045242   0.093763  -0.036904   0.023318
      5       0.107290   0.201587   0.005694  -0.070495  -0.012374  -0.002666
      6      -0.024719   0.040076  -0.104370   0.131101  -0.032616   0.031623
      7      -0.088848   0.074392   0.022197  -0.094923   0.008397  -0.020858
      8       0.276455  -0.072889   0.040211  -0.059209   0.080728  -0.101475
      9       0.170374   0.013174  -0.083612   0.098291  -0.041748  -0.017079
     10       0.031911  -0.018184  -0.031073   0.074548  -0.022972  -0.047230
     11      -0.047224  -0.027499  -0.034775   0.070631   0.035798   0.020959
     12       0.022618  -0.053650   0.176602   0.022181  -0.137698  -0.009881
     13       0.012222   0.002748  -0.097829   0.033723   0.363796  -0.000785
     14      -0.129815  -0.026857   0.373031   0.066672   0.073283   0.041393
     15       0.027970  -0.001311   0.092253   0.019486   0.076668  -0.010441
     16      -0.015720  -0.083438   0.120164   0.044744   0.128080   0.022040
     17      -0.128266  -0.067004  -0.295626  -0.052900  -0.050585   0.021238
     18      -0.207575   0.054716   0.013630   0.109179   0.038062   0.208552
     19       0.035084  -0.146813  -0.013648  -0.272728   0.010262  -0.117294
     20      -0.128715  -0.012292   0.093998  -0.004968   0.095793   0.106541
     21      -0.123795  -0.279189  -0.110359  -0.366310   0.051075  -0.257018
     22       0.029486  -0.107767  -0.021421  -0.224973   0.008574  -0.081698
     23      -0.098141  -0.086382  -0.257827   0.195629  -0.026368  -0.127410
     24      -0.090315   0.208138   0.112729  -0.307621   0.025693   0.038089
     25      -0.068912   0.068888  -0.025741   0.033897  -0.018692  -0.008011
     26       0.083031   0.580914   0.193032  -0.191609  -0.049018   0.236358
     27      -0.125009   0.169386  -0.140560   0.271114  -0.028098  -0.093008
     28      -0.111324   0.107271  -0.002419  -0.026098   0.003839  -0.045032
     29       0.585649  -0.385254   0.014808  -0.216740   0.009363   0.349395
     30       0.022613   0.173341  -0.003560  -0.066846   0.062822  -0.260995
     31       0.142941  -0.109832  -0.088062   0.236672  -0.096593   0.051644
     32      -0.057946  -0.137181  -0.060174  -0.085210   0.017445   0.372880
     33       0.380727  -0.172871  -0.173719   0.259595  -0.198965   0.303621
     34       0.125238  -0.100759  -0.076091   0.173791  -0.095187   0.083731
     35      -0.235554   0.121609  -0.060295   0.358148   0.160921  -0.439815
     36       0.044859  -0.037969   0.111754   0.031610  -0.072421   0.006179
     37      -0.065258  -0.214296   0.220719   0.031707  -0.304682  -0.103477
     38      -0.051515  -0.013660  -0.341132  -0.014211   0.067116   0.173777
     39       0.070430   0.120032  -0.081298   0.047133   0.512011   0.061395
     40      -0.019386  -0.084303   0.102097   0.049528   0.139662   0.005575
     41      -0.209309  -0.170006  -0.272271  -0.018267  -0.286270  -0.176267
     42       0.025508  -0.048880   0.139664   0.001134  -0.017762   0.065884
     43       0.010427   0.020152  -0.136766   0.017755   0.394363  -0.000256
     44      -0.144256  -0.016148   0.408428   0.108082  -0.271667  -0.223043
     45      -0.000266   0.003724  -0.004558   0.000404   0.005531  -0.000385
     46       0.008772   0.002458   0.002872  -0.006526  -0.041956  -0.000009
     47       0.002769   0.000391  -0.003005  -0.002292  -0.009884  -0.000469
                 18         19         20         21         22         23    
      0      -0.020946  -0.039970   0.005307  -0.049266   0.001932  -0.039449
      1       0.013644  -0.055402  -0.006848  -0.096531   0.022943   0.022431
      2      -0.018389  -0.003696   0.023062   0.009033  -0.010546   0.011493
      3       0.012673   0.063555  -0.031563  -0.015399   0.021096  -0.016846
      4       0.015828  -0.012894   0.014236   0.012234   0.033944  -0.053140
      5       0.012580   0.187454   0.016202  -0.034886  -0.022471  -0.050858
      6      -0.006394   0.049988   0.014833  -0.000021  -0.001522   0.031257
      7      -0.001777   0.028835   0.008166   0.026252  -0.032177  -0.003406
      8      -0.051161  -0.125042  -0.006529  -0.008032  -0.034308  -0.018279
      9       0.013017  -0.027047  -0.006513   0.018027  -0.033876   0.059350
     10      -0.014855   0.009127  -0.018269  -0.021879  -0.011961   0.113678
     11      -0.038355   0.028022   0.004286  -0.002395   0.064933   0.016592
     12       0.000262  -0.004732  -0.066015   0.034557  -0.000812   0.010368
     13       0.079275   0.001404   0.039046   0.029216   0.035877   0.019882
     14      -0.001249   0.022955   0.001137   0.038784   0.051167   0.017170
     15       0.009573  -0.006750   0.077271  -0.029936  -0.015060  -0.008774
     16      -0.029538   0.030334  -0.071207   0.018683  -0.055464  -0.030078
     17       0.035864  -0.055504  -0.060042  -0.012947  -0.014098  -0.009483
     18      -0.016713  -0.177620  -0.046329  -0.471797  -0.012978  -0.006763
     19       0.007370   0.038373   0.050092   0.197512  -0.002555  -0.024493
     20      -0.047962  -0.181591   0.105460  -0.364513  -0.263275  -0.090335
     21      -0.024802   0.191587   0.109223   0.328961  -0.079133  -0.171623
     22       0.012593   0.039190   0.043111   0.104386  -0.013856  -0.042265
     23      -0.029751   0.294220   0.105196   0.104898  -0.055364  -0.032079
     24      -0.009089  -0.296216   0.004833   0.228285   0.063403  -0.179094
     25       0.011027  -0.006865   0.006474   0.073187   0.027691  -0.159425
     26      -0.009190  -0.712051   0.144217   0.212890   0.118876   0.115962
     27      -0.077533  -0.119508   0.051948   0.140184  -0.088467  -0.268462
     28      -0.015360  -0.017895   0.026485   0.076278  -0.048209  -0.139039
     29       0.211393   0.270838   0.003244  -0.212656   0.285572  -0.053252
     30      -0.039327   0.057067  -0.150566  -0.109891   0.170776   0.458024
     31       0.028769  -0.058916   0.021579   0.027534   0.034361  -0.278878
     32      -0.047827   0.056096   0.282403   0.201501  -0.713053   0.350413
     33       0.122639  -0.063298   0.092323   0.180544   0.066697  -0.401918
     34       0.034208  -0.023085   0.027191   0.047022   0.025299  -0.154918
     35      -0.159942  -0.129331  -0.086165  -0.228861  -0.079674  -0.283036
     36      -0.125702   0.017440  -0.013933   0.100159   0.123404   0.082671
     37      -0.097060   0.031076   0.318029  -0.049328   0.086816   0.019150
     38      -0.171304  -0.008441  -0.603149   0.323711   0.148303   0.139295
     39       0.150625  -0.035386  -0.165991   0.075993  -0.081182   0.004534
     40      -0.000223   0.025433  -0.026360   0.035458  -0.024701  -0.004961
     41       0.203891  -0.078302   0.471874   0.121643   0.341701   0.245849
     42      -0.265625   0.026259   0.058527   0.039558   0.124791   0.023041
     43       0.007957  -0.018315   0.164360   0.022945   0.151718   0.043177
     44       0.833040  -0.125332  -0.213811   0.013062  -0.186974   0.021598
     45       0.001493  -0.000142   0.001109  -0.000088   0.000391   0.000252
     46      -0.005838  -0.000204  -0.001711  -0.001218  -0.001232  -0.000674
     47      -0.000468  -0.000252   0.000409  -0.000375  -0.000074  -0.000134
                 24         25         26         27         28         29    
      0      -0.033174  -0.050561  -0.029982  -0.012550   0.018029  -0.004172
      1      -0.072421  -0.024241   0.032628   0.009468   0.003723   0.007757
      2       0.013660   0.010602  -0.027615  -0.053185   0.083609   0.004669
      3      -0.051326   0.000985   0.032054   0.008692  -0.017350   0.004052
      4      -0.018179  -0.009768  -0.027939   0.007243   0.002918  -0.008128
      5      -0.035322  -0.011447   0.027524  -0.001797   0.015209  -0.005770
      6       0.040364   0.012139  -0.016906   0.000163   0.001714  -0.002909
      7       0.038839   0.023203   0.028405  -0.002453  -0.007335  -0.002574
      8      -0.034911  -0.051611   0.045252  -0.004936   0.002331  -0.000589
      9       0.022501   0.028977  -0.002460  -0.002913  -0.007128  -0.002901
     10       0.031392   0.005737  -0.026488  -0.001378   0.004245  -0.002894
     11       0.086152  -0.047684   0.018912  -0.008816   0.006215  -0.000703
     12      -0.016372   0.010126   0.000395   0.010715   0.024367  -0.041640
     13      -0.018541   0.008723   0.013252  -0.042793  -0.009153   0.085261
     14      -0.008756   0.008406   0.011859   0.004009   0.001615   0.013230
     15       0.006815  -0.009127  -0.019690  -0.015472   0.014307   0.081946
     16       0.020242  -0.034401  -0.033830   0.053649   0.017563  -0.044790
     17       0.025078  -0.008260  -0.032240  -0.040529   0.033584  -0.002968
     18      -0.187815  -0.171081   0.107916   0.081268  -0.137997  -0.004510
     19       0.135444   0.109487  -0.029788  -0.023864   0.051167   0.003776
     20       0.585225   0.275150   0.340559   0.210742  -0.426506  -0.016302
     21       0.233381   0.003236  -0.128765   0.083155  -0.152352  -0.044782
     22       0.087299   0.046675  -0.001467   0.031200  -0.022162  -0.013990
     23      -0.161125  -0.446904  -0.293758   0.264461  -0.611336  -0.008869
     24       0.138840   0.177597  -0.069169  -0.004939  -0.016353   0.079287
     25       0.048733   0.087832   0.008899  -0.016493   0.034671   0.032307
     26       0.040089  -0.103633  -0.414128   0.107716  -0.172791  -0.034699
     27       0.045495   0.033875   0.165005  -0.019496   0.054140   0.015703
     28       0.054808   0.066729   0.076997  -0.004840   0.014915   0.005852
     29       0.097847   0.412253  -0.449465   0.113046  -0.062178  -0.004123
     30       0.302255  -0.055842  -0.070023  -0.014414   0.001017   0.004924
     31      -0.078099   0.009619   0.042762   0.007272  -0.003454  -0.009496
     32      -0.298795   0.185476  -0.035658  -0.016393   0.011202  -0.000050
     33       0.048948  -0.120082   0.185775  -0.033916  -0.006222   0.017983
     34       0.005810  -0.029464   0.050506  -0.006008   0.000720   0.008112
     35      -0.348898   0.524875  -0.307479   0.144302  -0.041108  -0.001486
     36      -0.137649   0.133308   0.129728  -0.112447  -0.228028   0.306721
     37      -0.037744   0.041178  -0.005078  -0.243830  -0.139750   0.243959
     38      -0.223585   0.221268   0.257223   0.045807  -0.312700   0.190476
     39       0.040979  -0.043914   0.044273   0.476653   0.242290  -0.238457
     40      -0.000042  -0.022514   0.003328   0.135753   0.038775  -0.065409
     41      -0.227407   0.152445   0.329878   0.522051   0.097895  -0.092902
     42      -0.056354   0.071017   0.035279  -0.115511  -0.038802  -0.403124
     43      -0.115593   0.128236   0.095085  -0.413675  -0.259955  -0.736909
     44      -0.030963  -0.005318   0.031308  -0.189946  -0.200594  -0.068793
     45      -0.000448   0.000483   0.000286  -0.001628  -0.000970  -0.001139
     46       0.000968  -0.000567  -0.000594   0.001999   0.001132   0.000946
     47       0.000164  -0.000192   0.000166   0.000416   0.000154  -0.000453
                 30         31         32         33         34         35    
      0      -0.027665   0.034789   0.089402   0.011502  -0.042602   0.020675
      1       0.013740  -0.064464  -0.054579  -0.031286  -0.007920  -0.016566
      2      -0.000854  -0.016790  -0.046216  -0.044508   0.034359  -0.015129
      3       0.015629   0.008688  -0.067303   0.021683   0.109769   0.087017
      4       0.108192   0.101885   0.119434   0.065086   0.011833   0.071080
      5       0.016847   0.008264   0.072455   0.015816  -0.056966  -0.011127
      6      -0.012410   0.010383   0.034524  -0.007820   0.100347  -0.076420
      7      -0.140861   0.041193  -0.138541  -0.065656  -0.008867  -0.070603
      8       0.007446   0.007137   0.031509   0.019352   0.045501  -0.006358
      9       0.010039   0.035535  -0.072745  -0.024779  -0.038031  -0.039722
     10       0.014706  -0.057581   0.071885   0.030686   0.000057   0.020447
     11      -0.005032   0.005902  -0.024145  -0.027982  -0.020240  -0.021347
     12       0.013179  -0.003103  -0.080842   0.178299  -0.011019   0.022006
     13       0.008155   0.006447  -0.061293   0.149874  -0.011894   0.014538
     14       0.007203   0.002024  -0.020530   0.035271  -0.006493   0.016062
     15      -0.011196   0.001445   0.046321  -0.112974   0.008372  -0.069518
     16      -0.005847  -0.003995   0.033061  -0.081880   0.003734  -0.049062
     17       0.006166  -0.000081  -0.024979   0.007310   0.013659   0.026828
     18       0.020035  -0.099524   0.139966   0.066877  -0.355518  -0.243400
     19      -0.001931   0.074640  -0.063129  -0.032700   0.232166   0.202445
     20       0.106731   0.129241  -0.016656   0.184777   0.140995   0.142541
     21       0.031155   0.153421   0.352827   0.171026  -0.345468  -0.214463
     22       0.038869   0.028173   0.101719   0.049233  -0.150629  -0.125934
     23       0.064853  -0.254856  -0.349326  -0.030459   0.137057   0.080262
     24       0.606587  -0.459253  -0.210222  -0.269032  -0.053060  -0.182150
     25       0.425186  -0.147783   0.034417  -0.084578  -0.080117  -0.058087
     26      -0.267853   0.155561   0.126412   0.089502   0.006181   0.018931
     27      -0.382424  -0.645808   0.368728   0.296966   0.032480   0.179806
     28      -0.319020  -0.282312   0.035772   0.082080  -0.047005   0.049012
     29      -0.200249  -0.214244   0.141674   0.056483   0.019041  -0.002680
     30       0.021455  -0.108607  -0.061261  -0.082669  -0.429345   0.304609
     31      -0.030820   0.070104   0.024121   0.037708   0.294827  -0.259207
     32       0.092164  -0.050629   0.025329   0.062368  -0.154591   0.130963
     33      -0.106401   0.106807  -0.351389  -0.197067  -0.452832   0.270426
     34      -0.052270  -0.001443  -0.086162  -0.056985  -0.193449   0.161427
     35      -0.055414   0.131853  -0.263640  -0.078897  -0.191744   0.099437
     36      -0.058712   0.040740   0.240008  -0.330288   0.014956   0.108438
     37      -0.023326   0.019788   0.150130  -0.371620   0.074725   0.421098
     38      -0.072480   0.058283   0.244624  -0.109918  -0.053012  -0.118342
     39      -0.012798  -0.005531   0.164173  -0.487684   0.090486   0.429152
     40      -0.007102  -0.005009   0.049811  -0.121642   0.008455  -0.006145
     41      -0.005018  -0.010011   0.034856   0.013054  -0.037676  -0.164318
     42       0.027266  -0.019757  -0.067029   0.077846  -0.010328   0.028344
     43       0.008776  -0.041572   0.087518  -0.211221   0.000208  -0.015006
     44      -0.038905  -0.020270   0.168230  -0.169410   0.012479  -0.045509
     45       0.000015  -0.000063   0.000220  -0.000249  -0.000022  -0.000111
     46      -0.000123   0.000044   0.000188  -0.000687   0.000130  -0.000081
     47      -0.000020  -0.000015   0.000241  -0.000637   0.000034  -0.000074
                 36         37         38         39         40         41    
      0      -0.050582   0.232215  -0.043739   0.000697   0.015849   0.051062
      1       0.017333  -0.000728  -0.003021   0.002961  -0.027575  -0.016877
      2       0.010923  -0.127887   0.024658   0.000617  -0.003656  -0.009547
      3      -0.030141  -0.215140   0.141708   0.014523  -0.027538   0.009254
      4      -0.041000  -0.047874   0.074206  -0.033204   0.056463  -0.020941
      5      -0.002503   0.117890  -0.037324  -0.007032   0.012294  -0.003002
      6       0.019359  -0.035939  -0.371323  -0.029669  -0.016800   0.006068
      7       0.040676   0.034608  -0.074123   0.062379   0.032008  -0.012268
      8      -0.003939  -0.038026  -0.138992  -0.005835  -0.002908   0.001041
      9       0.045618   0.109879   0.312012   0.001350   0.002737  -0.002404
     10      -0.013971  -0.009276  -0.013437  -0.006617  -0.008448   0.004722
     11       0.014185   0.049656   0.136480   0.000849   0.000329  -0.000611
     12       0.055329   0.044873  -0.075659   0.000081   0.000274  -0.001781
     13       0.040345   0.032315  -0.044716   0.000016   0.000028   0.000648
     14       0.014584   0.004281   0.017107   0.000121   0.000257  -0.000318
     15      -0.105723  -0.066532   0.080090  -0.000457  -0.001970  -0.014942
     16      -0.074087  -0.036128   0.045561  -0.000680  -0.002495  -0.010074
     17       0.018489  -0.017019   0.020285   0.000401   0.001215   0.009876
     18       0.310144  -0.296430   0.008068  -0.025288   0.007847  -0.306362
     19      -0.262545   0.411005  -0.041633  -0.032143  -0.012178  -0.430587
     20      -0.089740   0.067127  -0.006125   0.005032  -0.002294   0.053562
     21       0.307383  -0.468747   0.075203   0.012485  -0.183842  -0.296034
     22       0.181830  -0.355503   0.057256  -0.019127   0.369127   0.629453
     23      -0.041598   0.128718  -0.001378  -0.005104   0.031797   0.045683
     24       0.057234   0.171497  -0.212953  -0.196255   0.325001  -0.116758
     25       0.000236   0.164167  -0.093861   0.428461  -0.706046   0.255630
     26      -0.007602  -0.028695   0.002632   0.076532  -0.135084   0.047314
     27      -0.063707  -0.051743   0.278365   0.365846   0.182924  -0.068193
     28       0.002408   0.034807   0.248987  -0.786247  -0.388840   0.146405
     29       0.000183   0.005393  -0.006161   0.055210   0.031778  -0.011200
     30      -0.216587  -0.159267  -0.188973   0.033700   0.021385  -0.004136
     31       0.188322   0.199011   0.377370   0.042076   0.022533  -0.000840
     32      -0.062189  -0.022063  -0.017714   0.012011   0.007261  -0.000486
     33      -0.203407  -0.184525  -0.362163  -0.034023  -0.044484   0.028380
     34      -0.126613  -0.154597  -0.355035   0.062942   0.090139  -0.059855
     35      -0.049813  -0.069664  -0.102437  -0.007675  -0.006169   0.003644
[...]
     43      -0.033772   0.037816  -0.073264   0.180101  -0.007808  -0.004124
     44       0.024421   0.012035  -0.144803   0.147654  -0.010216  -0.036546
     45      -0.000063   0.000051  -0.000191   0.000242   0.000021  -0.000085
     46       0.000123  -0.000038  -0.000204   0.000638  -0.000151  -0.000040
     47      -0.000011  -0.000001  -0.000210   0.000534  -0.000051  -0.000044
                 36         37         38         39         40         41    
      0       0.047587   0.217732  -0.019654  -0.005167  -0.013392   0.037220
      1      -0.017263  -0.003800  -0.001849   0.003163  -0.000697  -0.044165
      2      -0.008063  -0.124529   0.012599   0.000200   0.001278  -0.007270
      3       0.023840  -0.200277   0.114277  -0.006837   0.004128  -0.017333
      4       0.032620  -0.046710   0.063286   0.017843  -0.009904   0.036642
      5       0.002151   0.114219  -0.026525   0.003852  -0.002266   0.009095
      6      -0.013232  -0.011364  -0.390663   0.032294  -0.002433  -0.004125
      7      -0.032236   0.036700  -0.063615  -0.068445   0.005682   0.006708
      8       0.003624  -0.026765  -0.138297   0.007123  -0.000458  -0.000592
      9      -0.037984   0.084119   0.337045  -0.001703  -0.000250   0.000504
     10       0.011575  -0.008482  -0.017835   0.007187  -0.001214  -0.002805
     11      -0.011723   0.036534   0.141136  -0.001021   0.000101  -0.000127
     12      -0.057869   0.051022  -0.063300   0.000083   0.002331   0.000471
     13      -0.042031   0.037395  -0.037390  -0.000049   0.000135   0.000228
     14      -0.016618   0.005859   0.013999  -0.000119   0.000338   0.000245
     15       0.110401  -0.074902   0.066184   0.001874   0.015264  -0.002683
     16       0.082570  -0.043605   0.038896   0.005789   0.060082   0.017831
     17      -0.018761  -0.017929   0.020518  -0.001830  -0.016234  -0.000324
     18      -0.288302  -0.309092  -0.004809   0.031375   0.099551  -0.100167
     19       0.254952   0.424731  -0.012457   0.042987   0.127054  -0.161721
     20       0.068376   0.073673  -0.006606  -0.004933  -0.014552   0.013381
     21      -0.296873  -0.501020   0.043044   0.031107   0.053047  -0.335358
     22      -0.167502  -0.347242   0.027670  -0.072190  -0.122450   0.715380
     23       0.031402   0.138554   0.007003  -0.001773  -0.006165   0.049505
     24      -0.041018   0.177343  -0.191177   0.103433  -0.053332   0.206554
     25       0.002869   0.153566  -0.072077  -0.237661   0.121562  -0.470001
     26       0.008830  -0.035722  -0.001059  -0.041776   0.022991  -0.093447
     27       0.050169  -0.064128   0.266902  -0.389394   0.032188   0.036482
     28      -0.003942   0.018316   0.256770   0.860043  -0.071586  -0.076602
     29       0.000396   0.004590  -0.025161  -0.070965   0.005485   0.009247
     30       0.169388  -0.136885  -0.180494  -0.035893   0.008060   0.008452
     31      -0.150413   0.164654   0.393738  -0.043341   0.010462   0.009611
     32       0.052919  -0.024632  -0.030307  -0.011914   0.002355   0.002947
     33       0.161972  -0.151563  -0.358330   0.036611  -0.003445  -0.012526
     34       0.099922  -0.122785  -0.366272  -0.070326   0.006439   0.025886
     35       0.036659  -0.056644  -0.099425   0.009854  -0.001166  -0.002216
     36      -0.092655   0.038178  -0.014363  -0.033977  -0.289226   0.010782
     37      -0.520112   0.110466  -0.056906   0.017172   0.153533   0.003916
     38       0.124163   0.054327  -0.049800   0.016920   0.145942  -0.005962
     39      -0.510559   0.141136  -0.073495   0.012574   0.122186   0.027605
     40      -0.003167  -0.010127   0.015623  -0.088248  -0.882138  -0.222576
     41       0.202664  -0.001573  -0.012863   0.005747   0.059292   0.016208
     42      -0.039808   0.024489  -0.023897  -0.000436  -0.037697  -0.010124
     43       0.046672  -0.035355   0.026466  -0.000220   0.014651   0.003262
     44       0.045365   0.007466  -0.061089  -0.000364  -0.009370  -0.002660
     45       0.000166  -0.000070   0.000108  -0.000002   0.000011   0.000007
     46       0.000166  -0.000132   0.000063   0.000024  -0.000016   0.000006
     47       0.000141  -0.000078   0.000001   0.000011   0.000005   0.000006
                 42         43         44         45         46         47    
      0       0.037360   0.029024  -0.005222  -0.000193   0.000387   0.000656
      1       0.001556   0.071177  -0.040523  -0.008538   0.002678  -0.001012
      2      -0.005887  -0.005908   0.000311   0.000049   0.000065  -0.000795
      3       0.023439  -0.008595   0.005414   0.002188  -0.001592  -0.000012
      4      -0.052602   0.021096  -0.013791  -0.006729   0.003088  -0.001183
      5      -0.010396   0.005006  -0.002502  -0.001293   0.000873  -0.000305
      6       0.009696  -0.002563   0.002021  -0.000004  -0.004207   0.000800
      7      -0.018706   0.004401  -0.002860  -0.004208   0.011802  -0.001411
      8       0.001768  -0.000766   0.000877  -0.001043  -0.001105   0.000247
      9      -0.002595   0.000962  -0.010050   0.056231   0.018789   0.001482
     10       0.006199  -0.003704   0.007913  -0.018576   0.092308  -0.006960
     11      -0.000619   0.000043  -0.002499   0.015653   0.008646   0.000130
     12      -0.000308  -0.001603  -0.003613  -0.004777   0.005239   0.074632
     13       0.000149  -0.000223  -0.000407   0.001534  -0.001798  -0.030203
     14      -0.000001  -0.000890  -0.001887  -0.001345   0.001208   0.018247
     15      -0.007166   0.032046   0.057088   0.009347  -0.001029   0.003537
     16       0.010190  -0.016792  -0.048303  -0.007270   0.001348  -0.008656
     17       0.003632  -0.015395  -0.025231  -0.003966   0.000276  -0.000685
     18      -0.301499  -0.497140   0.197028   0.034990  -0.013204   0.000284
     19      -0.385223  -0.591105   0.226616   0.040062  -0.015272  -0.000285
     20       0.043990   0.071519  -0.028245  -0.005610   0.000954   0.000487
     21      -0.149049   0.157797  -0.137309  -0.032641   0.009209  -0.006230
     22       0.347170  -0.277183   0.264875   0.062826  -0.016694   0.012232
     23       0.018524  -0.020215   0.020084   0.005008  -0.001527   0.000761
     24      -0.286035   0.097942  -0.066860  -0.031433   0.017186  -0.005283
     25       0.654068  -0.227489   0.152894   0.073508  -0.044891   0.012702
     26       0.127033  -0.042098   0.028181   0.013558  -0.008444   0.002639
     27      -0.101067   0.025625  -0.016992  -0.021792   0.042655  -0.006440
     28       0.220729  -0.059752   0.038908   0.051425  -0.100205   0.014853
     29      -0.020883   0.005893  -0.004264  -0.003303   0.006141  -0.000844
     30      -0.009632   0.007324   0.040641  -0.326303  -0.478677   0.013310
     31      -0.006850   0.007681   0.064790  -0.483398  -0.622789   0.014906
     32      -0.002217   0.003488   0.012523  -0.105024  -0.151286   0.004567
     33       0.033712  -0.017970   0.073315  -0.316014   0.264077  -0.035127
     34      -0.073327   0.038527  -0.162156   0.707351  -0.507938   0.071480
     35       0.006184  -0.003337   0.014640  -0.062354   0.054022  -0.009283
     36       0.083232  -0.384647  -0.660393  -0.107405   0.008998  -0.041772
     37      -0.031359   0.164616   0.273793   0.043965  -0.003425   0.018237
     38      -0.043416   0.202017   0.346622   0.055913  -0.004552   0.021374
     39       0.009394   0.005346  -0.023305  -0.003485   0.001239  -0.008289
     40      -0.091661   0.048272   0.326163   0.050036  -0.016398   0.061230
     41       0.006934  -0.008561  -0.035420  -0.005568   0.001808  -0.005521
     42       0.000660   0.020180   0.053263   0.056832  -0.062000  -0.882286
     43      -0.001319  -0.008374  -0.022565  -0.023094   0.028288   0.393550
     44       0.000237   0.004626   0.013454   0.011732  -0.014538  -0.214125
     45       0.000002  -0.000012  -0.000025  -0.000008   0.000008   0.000044
     46       0.000015  -0.000002   0.000032  -0.000007  -0.000036  -0.000079
     47       0.000005   0.000001   0.000008  -0.000003  -0.000010  -0.000006


The first frequency considered to be a vibration is 7
The total number of vibrations considered is 41


--------------------------
THERMOCHEMISTRY AT 298.15K
--------------------------

Temperature         ...   298.15 K
Pressure            ...     1.00 atm
Total Mass          ...   208.04 AMU
Quasi RRHO          ...     True
Cut-Off Frequency   ...     1.00 cm^-1

Throughout the following assumptions are being made:
  (1) The electronic state is orbitally nondegenerate
  (2) There are no thermally accessible electronically excited states
  (3) Hindered rotations indicated by low frequency modes are not
      treated as such but are treated as vibrations and this may
      cause some error
  (4) All equations used are the standard statistical mechanics
      equations for an ideal gas
  (5) All vibrations are strictly harmonic

freq.      59.35  E(vib)   ...       0.51 
freq.      95.40  E(vib)   ...       0.47 
freq.     137.47  E(vib)   ...       0.42 
freq.     255.07  E(vib)   ...       0.30 
freq.     314.83  E(vib)   ...       0.25 
freq.     355.49  E(vib)   ...       0.22 
freq.     416.54  E(vib)   ...       0.18 
freq.     491.28  E(vib)   ...       0.14 
freq.     527.86  E(vib)   ...       0.13 
freq.     555.72  E(vib)   ...       0.12 
freq.     714.80  E(vib)   ...       0.07 
freq.     730.74  E(vib)   ...       0.06 
freq.     795.88  E(vib)   ...       0.05 
freq.     875.77  E(vib)   ...       0.04 
freq.     925.38  E(vib)   ...       0.03 
freq.     936.07  E(vib)   ...       0.03 
freq.     966.35  E(vib)   ...       0.03 
freq.     997.11  E(vib)   ...       0.02 
freq.    1021.54  E(vib)   ...       0.02 
freq.    1056.79  E(vib)   ...       0.02 
freq.    1093.84  E(vib)   ...       0.02 
freq.    1116.89  E(vib)   ...       0.01 
freq.    1202.50  E(vib)   ...       0.01 
freq.    1233.81  E(vib)   ...       0.01 
freq.    1258.27  E(vib)   ...       0.01 
freq.    1271.27  E(vib)   ...       0.01 
freq.    1301.46  E(vib)   ...       0.01 
freq.    1363.29  E(vib)   ...       0.01 
freq.    1422.80  E(vib)   ...       0.00 
freq.    1442.44  E(vib)   ...       0.00 
freq.    1511.50  E(vib)   ...       0.00 
freq.    1572.09  E(vib)   ...       0.00 
freq.    3042.42  E(vib)   ...       0.00 
freq.    3046.98  E(vib)   ...       0.00 
freq.    3048.52  E(vib)   ...       0.00 
freq.    3055.16  E(vib)   ...       0.00 
freq.    3074.61  E(vib)   ...       0.00 
freq.    3080.41  E(vib)   ...       0.00 
freq.    3084.89  E(vib)   ...       0.00 
freq.    3114.16  E(vib)   ...       0.00 
freq.    3133.62  E(vib)   ...       0.00 

------------
INNER ENERGY
------------

The inner energy is: U= E(el) + E(ZPE) + E(vib) + E(rot) + E(trans)
    E(el)   - is the total energy from the electronic structure calculation
              = E(kin-el) + E(nuc-el) + E(el-el) + E(nuc-nuc)
    E(ZPE)  - the the zero temperature vibrational energy from the frequency calculation
    E(vib)  - the the finite temperature correction to E(ZPE) due to population
              of excited vibrational states
    E(rot)  - is the rotational thermal energy
    E(trans)- is the translational thermal energy

Summary of contributions to the inner energy U:
Electronic energy                ...    -21.10126033 Eh
Zero point energy                ...      0.12689470 Eh      79.63 kcal/mol
Thermal vibrational correction   ...      0.00510806 Eh       3.21 kcal/mol
Thermal rotational correction    ...      0.00141627 Eh       0.89 kcal/mol
Thermal translational correction ...      0.00141627 Eh       0.89 kcal/mol
-----------------------------------------------------------------------
Total thermal energy                    -20.96642502 Eh


Summary of corrections to the electronic energy:
(perhaps to be used in another calculation)
Total thermal correction                  0.00794061 Eh       4.98 kcal/mol
Non-thermal (ZPE) correction              0.12689470 Eh      79.63 kcal/mol
-----------------------------------------------------------------------
Total correction                          0.13483530 Eh      84.61 kcal/mol


--------
ENTHALPY
--------

The enthalpy is H = U + kB*T
                kB is Boltzmann's constant
Total thermal energy              ...    -20.96642502 Eh 
Thermal Enthalpy correction       ...      0.00094421 Eh       0.59 kcal/mol
-----------------------------------------------------------------------
Total Enthalpy                    ...    -20.96548081 Eh


WARNING (ORCA/SYM): The number of Z matrix atoms does not agree with
the number of centers in the basis set. The point group will therefore
be determined without considering basis set information.


Note: Only C1 symmetry has been detected, increase convergence thresholds 
      if your molecule has a higher symmetry. Symmetry factor of 1.0 is   
      used for the rotational entropy correction. 
 

Note: Rotational entropy computed according to Herzberg 
Infrared and Raman Spectra, Chapter V,1, Van Nostrand Reinhold, 1945 
Point Group:  C1, Symmetry Number:   1  
Rotational constants in cm-1:     0.103376     0.027771     0.024978 

Vibrational entropy computed according to the QRRHO of S. Grimme
Chem.Eur.J. 2012 18 9955 using a reference frequency of 100.0 cm-1


-------
ENTROPY
-------

The entropy contributions are T*S = T*(S(el)+S(vib)+S(rot)+S(trans))
     S(el)   - electronic entropy
     S(vib)  - vibrational entropy
     S(rot)  - rotational entropy
     S(trans)- translational entropy
The entropies will be listed as multiplied by the temperature to get
units of energy

Electronic entropy                ...      0.00000000 Eh      0.00 kcal/mol
Vibrational entropy               ...      0.00867486 Eh      5.44 kcal/mol
Rotational entropy                ...      0.01401591 Eh      8.80 kcal/mol
Translational entropy             ...      0.01990873 Eh     12.49 kcal/mol
-----------------------------------------------------------------------
Final entropy term                ...      0.04259950 Eh     26.73 kcal/mol

In case the symmetry of your molecule has not been determined correctly
or in case you have a reason to use a different symmetry number we print 
out the resulting rotational entropy values for sn=1,12:

 non-linear molecules -----------------------------------
|  sn= 1 | S(rot)=       0.01401591 Eh      8.80 kcal/mol|
|  sn= 2 | S(rot)=       0.01336145 Eh      8.38 kcal/mol|
|  sn= 3 | S(rot)=       0.01297862 Eh      8.14 kcal/mol|
|  sn= 4 | S(rot)=       0.01270700 Eh      7.97 kcal/mol|
|  sn= 5 | S(rot)=       0.01249631 Eh      7.84 kcal/mol|
|  sn= 6 | S(rot)=       0.01232417 Eh      7.73 kcal/mol|
|  sn= 7 | S(rot)=       0.01217862 Eh      7.64 kcal/mol|
|  sn= 8 | S(rot)=       0.01205254 Eh      7.56 kcal/mol|
|  sn= 9 | S(rot)=       0.01194133 Eh      7.49 kcal/mol|
|  sn=10 | S(rot)=       0.01184185 Eh      7.43 kcal/mol|
|  sn=11 | S(rot)=       0.01175186 Eh      7.37 kcal/mol|
|  sn=12 | S(rot)=       0.01166971 Eh      7.32 kcal/mol|
 linear molecules ---------------------------------------
|  Dinfh | S(rot)=       0.00880960 Eh      5.53 kcal/mol|
|  Cinfv | S(rot)=       0.00946405 Eh      5.94 kcal/mol|
 --------------------------------------------------------


-------------------
GIBBS FREE ENERGY
-------------------

The Gibbs free energy is G = H - T*S

Total enthalpy                    ...    -20.96548081 Eh 
Total entropy correction          ...     -0.04259950 Eh    -26.73 kcal/mol
-----------------------------------------------------------------------
Final Gibbs free energy         ...    -21.00808031 Eh

For completeness - the Gibbs free energy minus the electronic energy
G-E(el)                           ...      0.09318001 Eh     58.47 kcal/mol


--------------------------------
SUGGESTED CITATIONS FOR THIS RUN
--------------------------------

Below you find a list of papers that are relevant to this ORCA run
We neither can nor want to force you to cite these papers, but we appreciate if you do
You receive ORCA, which is the product of decades of hard work by many enthusiastic individuals, for free
The only thing we kindly ask in return is that you cite our papers,
We deeply appreciate it, if you show your appreciation for ORCA by not just citing the generic ORCA reference.

Please note that relegating all ORCA citations to the supporting information does *not* help us.
SI sections are not indexed - citations you put there will not count into any citation statistics
But we need these citations in order to attract the funding resources that allow us to do what we are doing

Therefore, if you are a happy ORCA user, please consider citing a few of the papers listed below in the main body of your paper

In addition to the list printed below, the program has created the file da_i.bibtex that contains the list in bibtex format
You can import this file easily into all common literature databanks and citation aid programs


List of essential papers. We consider these as the minimum necessary citations

  1. Bannwarth, C.; Ehlert, S.; Grimme, S.
     GFN2-xTB—An Accurate and Broadly Parametrized Self-Consistent Tight-Binding Quantum Chemical Method with Multipole Electrostatics and Density-Dependent Dispersion Contributions
     J. Chem. Theory Comput. 2019 15(3), 1652-1671
     doi.org/10.1021/acs.jctc.8b01176
  2. Neese, F.
     Software update: the ORCA program system, version 6.0
     WIRES Comput. Molec. Sci. 2025 15(1), e70019
     doi.org/10.1002/wcms.7019

List of papers to cite with high priority. The work reported in these papers was absolutely
necessary for this run to complete.
Our perspective: the developers of density functionals and basis sets usually get cited in chemistry papers
Good! But without the algorithms to do something with them, the functionals or basis sets would not do anything.
Hence, in our opinion, the algorithm design and method developments papers are equally worthy of getting cited

  1. Bykov, D.; Petrenko, T.; Izsak, R.; Kossmann, S.; Becker, U.; Valeev, E.; Neese, F.
     Efficient implementation of the analytic second derivatives of Hartree-Fock and hybrid DFT energies: a detailed analysis of different approximations
     Molec. Phys. 2015 113 , 1961-1977
     doi.org/10.1080/00268976.2015.1025114
  2. Bannwarth, C.; Caldeweyher, E.; Ehlert, S.; Hansen, A.; Pracht, P.; Seibert, J.; Spicher, S.; Grimme, S.
     Extended tight-binding quantum chemistry methods
     WIRES Comput. Molec. Sci. 2020 11(2), e1493
     doi.org/10.1002/wcms.1493

List of suggested additional citations. These are papers that are important in the 'surrounding' of 
of this run, or papers that preceded the highly important papers. If you like your results we are grateful for a citation.

  1. Neese, F.
     The ORCA program system
     WIRES Comput. Molec. Sci. 2012 2(1), 73-78
     doi.org/10.1002/wcms.81
  2. Neese, F.
     Software update: the ORCA program system, version 4.0
     WIRES Comput. Molec. Sci. 2018 8(1), 1-6
     doi.org/10.1002/wcms.1327
  3. Neese, F.; Wennmohs, F.; Becker, U.; Riplinger, C.
     The ORCA quantum chemistry program package
     J. Chem. Phys. 2020 152(22), 224108
     doi.org/10.1063/5.0004608
  4. Neese, F.
     Software update: The ORCA program system—Version 5.0
     WIRES Comput. Molec. Sci. 2022 12(1), e1606
     doi.org/10.1002/wcms.1606

List of optional additional citations

  1. Neese, F.
     Approximate second-order SCF convergence for spin unrestricted wavefunctions
     Chem. Phys. Lett. 2000 325(1-3), 93-98
     doi.org/10.1016/s0009-2614(00)00662-x

Timings for individual modules:

Sum of individual times          ...        1.063 sec (=   0.018 min)
Geometry relaxation              ...        0.049 sec (=   0.001 min)   4.7 %
XTB module                       ...        1.013 sec (=   0.017 min)  95.3 %
                             ****ORCA TERMINATED NORMALLY****
TOTAL RUN TIME: 0 days 0 hours 0 minutes 5 seconds 369 msec
