
                                 *****************
                                 * O   R   C   A *
                                 *****************

                                            #,                                       
                                            ###                                      
                                            ####                                     
                                            #####                                    
                                            ######                                   
                                           ########,                                 
                                     ,,################,,,,,                         
                               ,,#################################,,                 
                          ,,##########################################,,             
                       ,#########################################, ''#####,          
                    ,#############################################,,   '####,        
                  ,##################################################,,,,####,       
                ,###########''''           ''''###############################       
              ,#####''   ,,,,##########,,,,          '''####'''          '####       
            ,##' ,,,,###########################,,,                        '##       
           ' ,,###''''                  '''############,,,                           
         ,,##''                                '''############,,,,        ,,,,,,###''
      ,#''                                            '''#######################'''  
     '                                                          ''''####''''         
             ,#######,   #######,   ,#######,      ##                                
            ,#'     '#,  ##    ##  ,#'     '#,    #''#        ,####,    ,#,          
            ##       ##  ##   ,#'  ##            #'  '#       #'       ,# #          
            ##       ##  #######   ##           ,######,      #####,      #          
            '#,     ,#'  ##    ##  '#,     ,#' ,#      #,     #,   #      #          
             '#######'   ##     ##  '#######'  #'      '#     '####' #    #          



                #########################################################
                #                        -***-                          #
                #          Department of theory and spectroscopy        #
                #                                                       #
                #                      Frank Neese                      #
                #                                                       #
                #     Directorship, Architecture, Infrastructure        #
                #                    SHARK, DRIVERS                     #
                #        Core code/Algorithms in most modules           #
                #                                                       #
                #        Max Planck Institute fuer Kohlenforschung      #
                #                Kaiser Wilhelm Platz 1                 #
                #                 D-45470 Muelheim/Ruhr                 #
                #                      Germany                          #
                #                                                       #
                #                  All rights reserved                  #
                #                        -***-                          #
                #########################################################


                         Program Version 6.1.0  -  RELEASE   -
                                (GIT: $679e74b$)
                          ($2025-06-10 18:02:51 +0200$)


 With contributions from (in alphabetic order):
[Max-Planck-Institut fuer Kohlenforschung]                               
  Daniel Aravena         : Magnetic Suceptibility                        
  Michael Atanasov       : Ab Initio Ligand Field Theory (pilot matlab implementation)
  Alexander A. Auer      : GIAO ZORA, VPT2 properties, NMR spectrum      
  Ute Becker             : All parallelization in ORCA, NUMFREQ, NUMCALC 
  Giovanni Bistoni       : ED, misc. LED, open-shell LED, HFLD           
  Dmytro Bykov           : pre 5.0 version of the SCF Hessian            
  Marcos Casanova-Páez   : Triplet and SCS-CIS(D). UHF-(DLPNO)-IP/EA/STEOM-CCSD. UHF-CVS-IP/STEOM-CCSD   
  Vijay G. Chilkuri      : MRCI spin determinant printing, contributions to CSF-ICE 
  Pauline Colinet        : FMM embedding                                 
  Dipayan Datta          : RHF DLPNO-CCSD density                        
  Achintya Kumar Dutta   : EOM-CC, STEOM-CC                              
  Nicolas Foglia         : Exact transition moments, OPA infrastructure, MCD improvements    
  Dmitry Ganyushin       : Spin-Orbit,Spin-Spin,Magnetic field MRCI      
  Miquel Garcia-Rates    : C-PCM and meta-GGA Hessian, CCSD/C-PCM, Gaussian charge scheme 
  Tiago L. C. Gouveia    : GS-ROHF, GS-ROCIS                             
  Yang Guo               : DLPNO-NEVPT2, F12-NEVPT2, CIM, IAO-localization        
  Andreas Hansen         : Spin unrestricted coupled pair/coupled cluster methods 
  Ingolf Harden          : AUTO-CI MPn and infrastructure                
  Benjamin Helmich-Paris : MC-RPA, TRAH-(SCF,CASSCF), AVAS, COSX integrals, SCF dyn. polar., MC-PDFT, srDFT 
  Lee Huntington         : MR-EOM, pCC                                   
  Robert Izsak           : Overlap fitted RIJCOSX, COSX-SCS-MP3, EOM     
  Riya Kayal             : Wick's Theorem for AUTO-CI, AUTO-CI UHF-CCSDT 
  Emily Kempfer          : AUTO-CI RHF CISDT and CCSDT, approximate NEVPT4
  Christian Kollmar      : KDIIS, OOCD, Brueckner-CCSD(T), CCSD density, CASPT2, CASPT2-K, improved NEVPT2 
  Axel Koslowski         : Symmetry handling                             
  Simone Kossmann        : meta-GGA functionals, TD-DFT gradient, OOMP2, (MP2 Hessian; deprecated post 5.0) 
  Lucas Lang             : DCDCAS, Hyperfine gauge corrections, ICE-SOC+SSC
  Marvin Lechner         : AUTO-CI (C++ implementation), FIC-MRCC        
  Spencer Leger          : CASSCF response                               
  Dagmar Lenk            : GEPOL surface, SMD, ORCA-2-JSON               
  Dimitrios Liakos       : Extrapolation schemes; Compound Job, Property file
  Dimitrios Manganas     : Further ROCIS development; embedding schemes. LFT, Crystal Embedding 
  Dimitrios Pantazis     : SARC Basis sets                               
  Anastasios Papadopoulos: AUTO-CI, single reference methods and gradients 
  Taras Petrenko         : pre 6.0 DFT Hessian and TD-DFT gradient,  ECA, NRVS 
  Petra Pikulova         : Analytic Raman intensities                    
  Peter Pinski           : DLPNO-MP2, DLPNO-MP2 Gradient                 
  Shashank Vittal Rao    : ES-AILFT, MagRelax                            
  Christoph Reimann      : Effective Core Potentials                     
  Marius Retegan         : Local ZFS, SOC                                
  Christoph Riplinger    : Optimizer, TS searches, QM/MM, DLPNO-CCSD(T), (RO)-DLPNO pert. Triples 
  Michael Roemelt        : Original ROCIS implementation, recursive CI coupling coefficients
  Masaaki Saitow         : Open-shell DLPNO-CCSD energy and density      
  Barbara Sandhoefer     : DKH picture change effects                    
  Yorick L. A. Schmerwitz: GMF and freeze-and-release deltaSCF, NEB S-IDPP initial path                    
  Kantharuban Sivalingam : CASSCF convergence/infrastructure, NEVPT2, NEVPT3, NEVPT4(SD), FIC-MRCI and CEPA variants
  Bernardo de Souza      : ESD, SOC TD-DFT                               
  Georgi L. Stoychev     : AutoAux, RI-MP2 NMR, DLPNO-MP2 response, X2C  
  Van Anh Tran           : RI-MP2 g-tensors                              
  Willem Van den Heuvel  : Paramagnetic NMR                              
  Zikuan Wang            : NOTCH, Electric field optimization            
  Frank Wennmohs         : Technical directorship and infrastructure     
  Hang Xu                : AUTO-CI-Response properties                   
                                                                         
[FACCTs GmbH]                                                            
  Markus Bursch, Nicolas Foglia, Miquel Garcia-Rates, Ingolf Harden, Hagen Neugebauer, Anastasios Papadopoulos, 
  Christoph Riplinger, Bernardo de Souza, Georgi L. Stoychev                                                    
                                                                 
  APM, various basis sets, CI-OPT, improved COSX, DLPNO-Multilevel,           
  DOCKER, DRACO, updates on ESD, Fragmentator, GOAT, IRC, LR-CPCM, L-BFGS, MBIS, meta-GGA TD-DFT gradient, ML-optimized integration grids, 
  MM, NACMEs, nearIR, NEB, NEB-TS, NL-DFT gradient (VV10), 2- and 3-layer-ONIOM, interface openCOSMO-RS, QMMM,   
  Crystal-QMMM, RESP, rigid body optimization, SF, symmetry and pop. for TD-DFT, various functionals, SOLVATOR                                   
                                                                         
[Other institutions]                                                     
  V. Asgeirsson          : NEB                                           
  Christoph Bannwarth    : sTDA-DFT, sTD-DFT, PBEh-3c, B97-3c, D3        
  Giovanni Bistoni       : ETS/NOCV, ADLD/ADEX, COVALED                  
  Martin Brehm           : Molecular dynamics                            
  Ronald Cardenas        : ETS/NOCV                                      
  Martina Colucci        : COVALED                                       
  Sebastian Ehlert       : rSCAN, r2SCAN, r2SCAN-3c, D4, dhf basis sets  
  Marvin Friede          : D4 for Fr, Ra, Ac-Lr                          
  Lars Goerigk           : TD-DFT with DH, B97 family of functionals     
  Stefan Grimme          : VdW corrections, initial TS optimization, DFT functionals, gCP, sTDA/sTD-DF 
  Waldemar Hujo          : DFT-NL                                        
  H. Jonsson             : NEB                                           
  Holger Kruse           : gCP                                           
  Marcel Mueller         : wB97X-3c, vDZP basis set                      
  Hagen Neugebauer       : wr2SCAN, Native XTB                           
  Gianluca Regni         : ADLD/ADEX                                     
  Tobias Risthaus        : pre 6.0 range-separated hybrid DFT and stability analysis
  Lukas Wittmann         : regularized MP2, r2SCAN double-hybrids, wr2SCAN        
                                                                         
We gratefully acknowledge several colleagues who have allowed us to      
interface, adapt or use parts of their codes:                            
  Ed Valeev, F. Pavosevic, A. Kumar             : LibInt (2-el integral package), F12 methods 
  Garnet Chan, S. Sharma, J. Yang, R. Olivares  : DMRG                   
  Ulf Ekstrom                                   : XCFun DFT Library      
  Mihaly Kallay                                 : mrcc  (arbitrary order and MRCC methods)
  Frank Weinhold                                : gennbo (NPA and NBO analysis)           
  Simon Mueller                                 : openCOSMO-RS                            
  Christopher J. Cramer and Donald G. Truhlar   : smd solvation model                     
  S Lehtola, MJT Oliveira, MAL Marques          : LibXC Library                           
  Liviu Ungur et al                             : ANISO software                          


 Your calculation uses the libint2 library for the computation of 2-el integrals
 For citations please refer to: http://libint.valeyev.net

 Your ORCA version has been built with support for libXC version: 7.0.0
 For citations please refer to: https://libxc.gitlab.io

 This ORCA versions uses:
   CBLAS   interface :  Fast vector & matrix operations
   LAPACKE interface :  Fast linear algebra routines
   SCALAPACK package :  Parallel linear algebra routines
   Shared memory     :  Shared parallel matrices
   BLAS/LAPACK       :  OpenBLAS 0.3.29  USE64BITINT DYNAMIC_ARCH NO_AFFINITY SkylakeX SINGLE_THREADED
        Core in use  :  SkylakeX
   Copyright (c) 2011-2014, The OpenBLAS Project


  ***********************************
  * Starting time: Thu Mar 12 13:14:34 2026
  * Host name:     midway3-login4.rcc.local
  * Process ID:    2975339
  * Working dir.:  /home/rzhu16/orca_TS_search/sn2_cl_f/DFT_test
  ***********************************

Your calculation utilizes the geometrical counterpoise correction gCP
Please cite in your paper:
H.Kruse, S. Grimme J.Chem.Phys., 136, (2012), 154101 
   

Your calculation utilizes the atom-pairwise dispersion correction
based on EEQ partial charges (D4)


================================================================================

----- Orbital basis set information -----
Your calculation utilizes the basis: def2-mTZVPP
   Stefan Grimme, Andreas Hansen, Sebastian Ehlert, and Jan-Michael Mewes 
   J. Chem. Phys. 154, 064103 (2021). DOI: 10.1063/5.0040021

----- AuxJ basis set information -----
Your calculation utilizes the basis: def2-mTZVPP/J
   Stefan Grimme, Andreas Hansen, Sebastian Ehlert, and Jan-Michael Mewes 
   J. Chem. Phys. 154, 000000 (2021). DOI: 10.1063/5.0040021

================================================================================
                                        WARNINGS
                       Please study these warnings very carefully!
================================================================================



WARNING: SCAN, rSCAN, or r2SCAN functional requested.
  ===> : libXC variant has now been activated.



WARNING: Geometry Optimization
  ===> : Switching off AutoStart
         For restart on a previous wavefunction, please use MOREAD

================================================================================
                                       INPUT FILE
================================================================================
NAME = product_optfreq.inp
|  1> ! r2SCAN-3c Opt Freq PAL8 TightSCF
|  2> 
|  3> %pal
|  4>    nprocs 8
|  5> end
|  6> 
|  7> %scf
|  8>    MaxIter 150
|  9> end
| 10> 
| 11> * xyz -1 1
| 12>   C       0.104013     -0.063478      0.017156
| 13>   H       0.098855      0.998997     -0.112657
| 14>   H       1.013100     -0.597467     -0.122300
| 15>   H      -0.826120     -0.578180     -0.109982
| 16>   Cl      0.134047     -0.077149      2.089278
| 17>   F       0.241954     -0.141627     -2.006749
| 18> *
| 19> 
| 20>                          ****END OF INPUT****
================================================================================

                       *****************************
                       * Geometry Optimization Run *
                       *****************************

Geometry optimization settings:
Update method            Update   .... BFGS
Choice of coordinates    CoordSys .... (2022) Redundant Internals
Initial Hessian          InHess   .... Almloef's Model
Max. no of cycles        MaxIter  .... 50

Convergence Tolerances:
Energy Change            TolE     ....  5.0000e-06 Eh
Max. Gradient            TolMAXG  ....  3.0000e-04 Eh/bohr
RMS Gradient             TolRMSG  ....  1.0000e-04 Eh/bohr
Max. Displacement        TolMAXD  ....  4.0000e-03 bohr
RMS Displacement         TolRMSD  ....  2.0000e-03 bohr
Strict Convergence                .... False

------------------------------------------------------------------------------
                        ORCA OPTIMIZATION COORDINATE SETUP
------------------------------------------------------------------------------

The optimization will be done in redundant internal coordinates (2022)
Making redundant internal coordinates   ...  (2022 redundants) done
Evaluating the initial hessian          ...  (Almloef) done
Evaluating the coordinates              ...  done
Calculating the B-matrix                .... done
Calculating the G-matrix                .... done
The number of degrees of freedom        ....   21

    -----------------------------------------------------------------
                    Redundant Internal Coordinates


    -----------------------------------------------------------------
         Definition                    Initial Value    Approx d2E/dq
    -----------------------------------------------------------------
      1. B(H   1,C   0)                  1.0704         0.387001   
      2. B(H   2,C   0)                  1.0635         0.396920   
      3. B(H   3,C   0)                  1.0706         0.386670   
      4. B(Cl  4,H   2)                  2.4361         0.010000   
      5. B(Cl  4,H   1)                  2.4511         0.010000   
      6. B(Cl  4,C   0)                  2.0724         0.114297   
      7. B(Cl  4,H   3)                  2.4515         0.010000   
      8. B(F   5,H   1)                  2.2156         0.010000   
      9. B(F   5,H   2)                  2.0865         0.010000   
     10. B(F   5,C   0)                  2.0301         0.049513   
     11. B(F   5,H   3)                  2.2202         0.010000   
     12. A(H   1,C   0,H   3)          117.2973         0.297490   
     13. A(H   2,C   0,H   3)          119.0570         0.298688   
     14. A(H   1,C   0,Cl  4)           97.3470         0.282499   
     15. A(H   2,C   0,Cl  4)           96.6274         0.283611   
     16. A(H   3,C   0,Cl  4)           97.3630         0.282462   
     17. A(H   1,C   0,F   5)           85.2753         0.238304   
     18. A(H   2,C   0,F   5)           77.9866         0.239162   
     19. A(H   3,C   0,F   5)           85.5342         0.238275   
     20. A(Cl  4,C   0,F   5)          174.6115         0.227542   
     21. A(H   1,C   0,H   2)          119.1180         0.298728   
    -----------------------------------------------------------------

Number of atoms                         .... 6
Number of degrees of freedom            .... 21


         *************************************************************
         *                GEOMETRY OPTIMIZATION CYCLE   1            *
         *************************************************************
---------------------------------
CARTESIAN COORDINATES (ANGSTROEM)
---------------------------------
  C      0.104013   -0.063478    0.017156
  H      0.098855    0.998997   -0.112657
  H      1.013100   -0.597467   -0.122300
  H     -0.826120   -0.578180   -0.109982
  Cl     0.134047   -0.077149    2.089278
  F      0.241954   -0.141627   -2.006749

----------------------------
CARTESIAN COORDINATES (A.U.)
----------------------------
  NO LB      ZA    FRAG     MASS         X           Y           Z
   0 C     6.0000    0    12.011    0.196556   -0.119956    0.032420
   1 H     1.0000    0     1.008    0.186809    1.887831   -0.212891
   2 H     1.0000    0     1.008    1.914482   -1.129049   -0.231114
   3 H     1.0000    0     1.008   -1.561141   -1.092602   -0.207836
   4 Cl   17.0000    0    35.453    0.253312   -0.145790    3.948163
   5 F     9.0000    0    18.998    0.457227   -0.267636   -3.792206

--------------------------------
INTERNAL COORDINATES (ANGSTROEM)
--------------------------------
 C      0   0   0     0.000000000000     0.00000000     0.00000000
 H      1   0   0     1.070388315313     0.00000000     0.00000000
 H      1   2   0     1.063499601140   119.11798994     0.00000000
 H      1   2   3     1.070621136321   117.29734646   204.06746547
 Cl     1   2   3     2.072384742339    97.34704426   101.83069641
 F      1   2   3     2.030105030462    85.27529263   286.56470716

---------------------------
INTERNAL COORDINATES (A.U.)
---------------------------
 C      0   0   0     0.000000000000     0.00000000     0.00000000
 H      1   0   0     2.022740772890     0.00000000     0.00000000
 H      1   2   0     2.009722989690   119.11798994     0.00000000
 H      1   2   3     2.023180740834   117.29734646   204.06746547
 Cl     1   2   3     3.916239607138    97.34704426   101.83069641
 F      1   2   3     3.836342530669    85.27529263   286.56470716

---------------------
BASIS SET INFORMATION
---------------------
There are 4 groups of distinct atoms

 Group   1 Type C   : 11s6p1d contracted to 5s3p1d pattern {62111/411/1}
 Group   2 Type H   : 4s1p contracted to 2s1p pattern {31/1}
 Group   3 Type Cl  : 14s9p2d contracted to 5s4p2d pattern {73211/6111/11}
 Group   4 Type F   : 11s6p2d contracted to 5s3p2d pattern {62111/411/11}

Atom   0C    basis set group =>   1
Atom   1H    basis set group =>   2
Atom   2H    basis set group =>   2
Atom   3H    basis set group =>   2
Atom   4Cl   basis set group =>   3
Atom   5F    basis set group =>   4
---------------------------------
AUXILIARY/J BASIS SET INFORMATION
---------------------------------
There are 4 groups of distinct atoms

 Group   1 Type C   : 8s3p3d contracted to 6s3p3d pattern {311111/111/111}
 Group   2 Type H   : 5s2p1d contracted to 3s1p1d pattern {311/2/1}
 Group   3 Type Cl  : 14s5p5d2f contracted to 8s4p3d1f pattern {71111111/2111/311/2}
 Group   4 Type F   : 8s3p4d contracted to 6s3p4d pattern {311111/111/1111}

Atom   0C    basis set group =>   1
Atom   1H    basis set group =>   2
Atom   2H    basis set group =>   2
Atom   3H    basis set group =>   2
Atom   4Cl   basis set group =>   3
Atom   5F    basis set group =>   4


           ************************************************************
           *        Program running with 8 parallel MPI-processes     *
           *              working on a common directory               *
           ************************************************************
------------------------------------------------------------------------------
                             ORCA STARTUP CALCULATIONS
                           -- RI-GTO INTEGRALS CHOSEN --
------------------------------------------------------------------------------
------------------------------------------------------------------------------
                   ___                                                        
                  /   \      - P O W E R E D   B Y -                         
                 /     \                                                     
                 |  |  |   _    _      __       _____    __    __             
                 |  |  |  | |  | |    /  \     |  _  \  |  |  /  |          
                  \  \/   | |  | |   /    \    | | | |  |  | /  /          
                 / \  \   | |__| |  /  /\  \   | |_| |  |  |/  /          
                |  |  |   |  __  | /  /__\  \  |    /   |      \           
                |  |  |   | |  | | |   __   |  |    \   |  |\   \          
                \     /   | |  | | |  |  |  |  | |\  \  |  | \   \       
                 \___/    |_|  |_| |__|  |__|  |_| \__\ |__|  \__/        
                                                                              
                      - O R C A' S   B I G   F R I E N D -                    
                                      &                                       
                       - I N T E G R A L  F E E D E R -                       
                                                                              
 v1 FN, 2020, v2 2021, v3 2022-2024                                           
------------------------------------------------------------------------------


----------------------
SHARK INTEGRAL PACKAGE
----------------------

Number of atoms                             ...      6
Number of basis functions                   ...     85
Number of shells                            ...     39
Maximum angular momentum                    ...      2
Integral batch strategy                     ... SHARK/LIBINT Hybrid
RI-J (if used) integral strategy            ... SPLIT-RIJ (Revised 2003 algorithm where possible)
Printlevel                                  ...      1
Contraction scheme used                     ... SEGMENTED contraction
Prescreening option                         ... SCHWARTZ
   Thresh                                   ... 2.500e-11
   Tcut                                     ... 2.500e-12
   Tpresel                                  ... 2.500e-12 
Coulomb Range Separation                    ... NOT USED
Exchange Range Separation                   ... NOT USED
Multipole approximations                    ... NOT USED
Finite Nucleus Model                        ... NOT USED
CABS basis                                  ... NOT available
Auxiliary Coulomb fitting basis             ... AVAILABLE
   # of basis functions in Aux-J            ...    140
   # of shells in Aux-J                     ...     56
   Maximum angular momentum in Aux-J        ...      3
Auxiliary J/K fitting basis                 ... NOT available
Auxiliary Correlation fitting basis         ... NOT available
Auxiliary 'external' fitting basis          ... NOT available

Checking pre-screening integrals            ... done (  0.0 sec) Dimension = 39
   => SHARK Basis and OBASIS are compatible. Storing Pre-screening
Shell pair information
Shell pair cut-off parameter TPreSel        ...   2.5e-12
Total number of shell pairs                 ...       780
Shell pairs after pre-screening             ...       731
Total number of primitive shell pairs       ...      3096
Primitive shell pairs kept                  ...      2267
          la=0 lb=0:    208 shell pairs
          la=1 lb=0:    259 shell pairs
          la=1 lb=1:     88 shell pairs
          la=2 lb=0:     99 shell pairs
          la=2 lb=1:     62 shell pairs
          la=2 lb=2:     15 shell pairs

Checking whether 4 symmetric matrices of dimension 85 fit in memory
:Max Core in MB      =   4096.00
 MB in use           =      2.92
 MB left             =   4093.08
 MB needed           =      0.11
 Data fit in memory  = YES
Calculating RI/J V-Matrix + Cholesky decomp.... done (  0.0 sec)
Calculating Nuclear repulsion               ... done (  0.0 sec) ENN=     87.270528682798 Eh

Diagonalization of the overlap matrix:
Smallest eigenvalue                        ... 6.536e-03
Time for diagonalization                   ...    0.001 sec
Threshold for overlap eigenvalues          ... 1.000e-07
Number of eigenvalues below threshold      ... 0
Time for construction of square roots      ...    0.001 sec
Total time needed                          ...    0.002 sec

-------------------
DFT GRID GENERATION
-------------------

General Integration Accuracy     IntAcc      ... 4.388
Radial Grid Type                 RadialGrid  ... OptM3 with GC (2021)
Angular Grid (max. ang.)         AngularGrid ... 4 (Lebedev-302)
Angular grid pruning method      GridPruning ... 4 (adaptive)
Weight generation scheme         WeightScheme... mBecke (2022)
Basis function cutoff            BFCut       ... 1.0000e-11
Integration weight cutoff        WCut        ... 1.0000e-14
Partially contracted basis set               ... off
Rotationally invariant grid construction     ... off
Angular grids for H and He will be reduced by one unit

Total number of grid points                  ...    29401
Total number of batches                      ...      462
Average number of points per batch           ...       63
Average number of grid points per atom       ...     4900
Grids setup in   0.7 sec
Initializing property integral containers    ... done (  0.0 sec)

SHARK setup successfully completed in   1.0 seconds

Maximum memory used throughout the entire STARTUP-calculation: 9.8 MB


           ************************************************************
           *        Program running with 8 parallel MPI-processes     *
           *              working on a common directory               *
           ************************************************************
-------------------------------------------------------------------------------
                                 ORCA GUESS
                   Start orbitals & Density for SCF / CASSCF
-------------------------------------------------------------------------------

------------
SCF SETTINGS
------------
Hamiltonian:
 Density Functional     Method          .... DFT(GTOs)
  Functional kind                       .... Exchange
  Functional name                       .... Re-regularized SCAN exchange by Furness et al
  Functional family                     .... MGGA
  Functional refs                              
    [ 0] J. W. Furness, A. D. Kaplan, J. Ning, J. P. Perdew, and J. Sun.,  J. Phys. Chem. Lett. 11, 8208-8215 (2020), doi: 10.1021/acs.jpclett.0c02405
    [ 1] J. W. Furness, A. D. Kaplan, J. Ning, J. P. Perdew, and J. Sun.,  J. Phys. Chem. Lett. 11, 9248-9248 (2020), doi: 10.1021/acs.jpclett.0c03077
  Functional external parameters        .... 6
    Parameter  0 _c1        =  6.670000e-01 : c1 parameter        
    Parameter  1 _c2        =  8.000000e-01 : c2 parameter        
    Parameter  2 _d         =  1.240000e+00 : d parameter         
    Parameter  3 _k1        =  6.500000e-02 : k1 parameter        
    Parameter  4 _eta       =  1.000000e-03 : eta parameter       
    Parameter  5 _dp2       =  3.610000e-01 : dp2 parameter       
  Functional kind                       .... Correlation
  Functional name                       .... Re-regularized SCAN correlation by Furness et al
  Functional family                     .... MGGA
  Functional refs                              
    [ 0] J. W. Furness, A. D. Kaplan, J. Ning, J. P. Perdew, and J. Sun.,  J. Phys. Chem. Lett. 11, 8208-8215 (2020), doi: 10.1021/acs.jpclett.0c02405
    [ 1] J. W. Furness, A. D. Kaplan, J. Ning, J. P. Perdew, and J. Sun.,  J. Phys. Chem. Lett. 11, 9248-9248 (2020), doi: 10.1021/acs.jpclett.0c03077
  Functional external parameters        .... 1
    Parameter  0 _eta       =  1.000000e-03 : Regularization parameter
 Gradients option       PostSCFGGA      .... off
 RI-approximation to the Coulomb term is turned on
   Number of AuxJ basis functions       .... 140


General Settings:
 Integral files         IntName         .... product_optfreq
 Hartree-Fock type      HFTyp           .... RHF
 Total Charge           Charge          ....   -1
 Multiplicity           Mult            ....    1
 Number of Electrons    NEL             ....   36
 Basis Dimension        Dim             ....   85
 Nuclear Repulsion      ENuc            ....     87.2705286828 Eh

Convergence Acceleration:
 AO-DIIS                CNVDIIS         .... on
   Start iteration      DIISMaxIt       ....    12
   Startup error        DIISStart       ....  0.200000
   # of expansion vecs  DIISMaxEq       ....     5
   Bias factor          DIISBfac        ....   1.050
   Max. coefficient     DIISMaxC        ....  10.000
 MO-DIIS                CNVKDIIS        .... off
 Trust-Rad. Augm. Hess. CNVTRAH         .... auto
   Auto Start mean grad. ratio tolernc. ....  1.125000
   Auto Start start iteration           ....    50
   Auto Start num. interpolation iter.  ....    10
   Max. Number of Micro iterations      ....    24
   Max. Number of Macro iterations      .... Maxiter - #DIIS iter
   Number of Davidson start vectors     ....     2
   Converg. threshold    (grad. norm)   ....   1.000e-05
   Grad. Scal. Fac. for Micro threshold ....   0.100
   Minimum threshold for Micro iter.    ....   1.000e-02
   NR start threshold (gradient norm)   ....   1.000e-04
   Initial trust radius                 ....   0.400
   Minimum AH scaling param. (alpha)    ....   1.000
   Maximum AH scaling param. (alpha)    .... 1000.000
   Quad. conv. algorithm                .... NR
   White noise on init. David. guess    .... on
   Maximum white noise                  ....   0.010
   Pseudo random numbers                .... off
   Inactive MOs                         .... canonical
   Orbital update algorithm             .... Taylor
   Preconditioner                       .... Diag
   Full preconditioner red. dimension   ....   250
   COSX micro iterations for RIJONX calc.... off
 SOSCF                 CNVSOSCF           .... on
   Start iteration     SOSCFMaxIt         ....   150
   Startup grad/error  SOSCFStart         ....  0.003300
   Hessian update      SOSCFHessUp        .... L-BFGS
   Autom. constraints  SOSCFAutoConstrain .... off
 Level Shifting         CNVShift        .... on
   Level shift para.    LevelShift      ....    0.2500
   Turn off err/grad.   ShiftErr        ....    0.0010
 Zerner damping         CNVZerner       .... off
 Static damping         CNVDamp         .... on
   Fraction old density DampFac         ....    0.7000
   Max. Damping (<1)    DampMax         ....    0.9800
   Min. Damping (>=0)   DampMin         ....    0.0000
   Turn off err/grad.   DampErr         ....    0.1000

SCF Procedure:
 Maximum # iterations   MaxIter         ....   150
 SCF integral mode      SCFMode         .... Direct
   Integral package                     .... SHARK and LIBINT hybrid scheme
 Reset frequency        DirectResetFreq ....    20
 Integral Threshold     Thresh          ....  2.500e-11 Eh
 Primitive CutOff       TCut            ....  2.500e-12 Eh

Convergence Tolerance:
 Convergence Check Mode ConvCheckMode   .... Total+1el-Energy
 Convergence forced     ConvForced      .... 0
 Energy Change          TolE            ....  1.000e-08 Eh
 1-El. energy change                    ....  1.000e-05 Eh
 Orbital Gradient       TolG            ....  1.000e-05
 Orbital Rotation angle TolX            ....  1.000e-05
 DIIS Error             TolErr          ....  5.000e-07

------------------------------
INITIAL GUESS: MODEL POTENTIAL
------------------------------
Loading Hartree-Fock densities                     ... done
Calculating cut-offs                               ... done
Initializing the effective Hamiltonian             ... done
Setting up the integral package (SHARK)            ... done
Starting the Coulomb interaction                   ... done (   0.0 sec)
Making the grid                                    ... done (   0.1 sec)
Mapping shells                                     ... done
Starting the XC term evaluation                    ... done (   0.0 sec)
  promolecular density results
     # of electrons  =     34.997856964
     EX              =    -43.262103129
     EC              =     -1.240664889
     EX+EC           =    -44.502768018
Transforming the Hamiltonian                       ... done (   0.0 sec)
Diagonalizing the Hamiltonian                      ... done (   0.0 sec)
Back transforming the eigenvectors                 ... done (   0.0 sec)
Now organizing SCF variables                       ... done
                      ------------------
                      INITIAL GUESS DONE (   0.1 sec)
                      ------------------
             **** ENERGY FILE WAS UPDATED (product_optfreq.en.tmp) ****
Finished Guess after   0.6 sec
Maximum memory used throughout the entire GUESS-calculation: 5.2 MB


           ************************************************************
           *        Program running with 8 parallel MPI-processes     *
           *              working on a common directory               *
           ************************************************************

-------------------------------------------------------------------------------------------
                                      ORCA LEAN-SCF
                              memory conserving SCF solver
-------------------------------------------------------------------------------------------

----------------------------------------D-I-I-S--------------------------------------------
Iteration    Energy (Eh)           Delta-E    RMSDP     MaxDP     DIISErr   Damp  Time(sec)
-------------------------------------------------------------------------------------------
               ***  Starting incremental Fock matrix formation  ***
    1    -599.7963648582781389     0.00e+00  1.30e-02  6.99e-02  3.55e-01  0.700   0.4
    2    -599.8692089907871150    -7.28e-02  8.61e-03  4.52e-02  9.97e-02  0.700   0.5
                               ***Turning on AO-DIIS***
    3    -599.8906089728429833    -2.14e-02  4.21e-03  2.63e-02  4.23e-02  0.700   0.5
    4    -599.9058930359306032    -1.53e-02  7.60e-03  4.38e-02  2.54e-02  0.000   0.4
    5    -599.9418299510506358    -3.59e-02  2.08e-03  1.56e-02  1.17e-02  0.000   0.5
    6    -599.9423736783177219    -5.44e-04  6.72e-04  4.54e-03  3.33e-03  0.000   0.4
                              *** Initializing SOSCF ***
---------------------------------------S-O-S-C-F--------------------------------------
Iteration    Energy (Eh)           Delta-E    RMSDP     MaxDP     MaxGrad    Time(sec)
--------------------------------------------------------------------------------------
    7    -599.9424241815095229    -5.05e-05  3.32e-04  2.42e-03  1.19e-03     0.6
               *** Restarting incremental Fock matrix formation ***
    8    -599.9424317643878339    -7.58e-06  2.05e-04  1.39e-03  2.54e-04     0.6
    9    -599.9424320670410680    -3.03e-07  7.77e-05  4.17e-04  4.48e-04     0.5
   10    -599.9424329835255776    -9.16e-07  7.96e-05  4.40e-04  1.50e-04     0.5
   11    -599.9424330031234831    -1.96e-08  3.30e-05  2.18e-04  1.61e-04     0.4
   12    -599.9424331179276351    -1.15e-07  2.82e-05  1.58e-04  6.38e-05     0.6
   13    -599.9424331473604752    -2.94e-08  1.10e-05  5.24e-05  3.23e-05     0.3
   14    -599.9424331594620980    -1.21e-08  4.90e-06  3.26e-05  1.09e-05     0.3
   15    -599.9424331598340814    -3.72e-10  2.48e-06  1.76e-05  5.20e-06     0.3
                 **** Energy Check signals convergence ****

               *****************************************************
               *                     SUCCESS                       *
               *           SCF CONVERGED AFTER  15 CYCLES          *
               *****************************************************

             **** ENERGY FILE WAS UPDATED (product_optfreq.en.tmp) ****

----------------
TOTAL SCF ENERGY
----------------

Total Energy       :       -599.94243315943731 Eh          -16325.26357 eV

Components:
Nuclear Repulsion  :         87.27052868279804 Eh            2374.75182 eV
Electronic Energy  :       -687.21296184223536 Eh          -18700.01538 eV
One Electron Energy:      -1010.79084040904422 Eh          -27505.01710 eV
Two Electron Energy:        323.57787856680886 Eh            8805.00171 eV

Virial components:
Potential Energy   :      -1198.47444335562523 Eh          -32612.14757 eV
Kinetic Energy     :        598.53201019618803 Eh           16286.88401 eV
Virial Ratio       :          2.00235647039627

DFT components:
N(Alpha)           :       18.000007262397 electrons
N(Beta)            :       18.000007262397 electrons
N(Total)           :       36.000014524794 electrons
E(X)               :      -44.119916075303 Eh       
E(C)               :       -1.260387752492 Eh       
E(XC)              :      -45.380303827796 Eh       

---------------
SCF CONVERGENCE
---------------

  Last Energy change         ...    3.7198e-10  Tolerance :   1.0000e-08
  Last MAX-Density change    ...    1.7560e-05  Tolerance :   1.0000e-07
  Last RMS-Density change    ...    2.4825e-06  Tolerance :   5.0000e-09
  Last DIIS Error            ...    1.1877e-03  Tolerance :   5.0000e-07
  Last Orbital Gradient      ...    5.2014e-06  Tolerance :   1.0000e-05
  Last Orbital Rotation      ...    1.1855e-05  Tolerance :   1.0000e-05


----------------
ORBITAL ENERGIES
----------------

  NO   OCC          E(Eh)            E(eV) 
   0   2.0000    -100.979495     -2747.7918 
   1   2.0000     -24.111851      -656.1168 
   2   2.0000      -9.898111      -269.3413 
   3   2.0000      -9.135975      -248.6025 
   4   2.0000      -6.879357      -187.1968 
   5   2.0000      -6.873486      -187.0371 
   6   2.0000      -6.873477      -187.0368 
   7   2.0000      -0.746703       -20.3188 
   8   2.0000      -0.563891       -15.3442 
   9   2.0000      -0.449164       -12.2224 
  10   2.0000      -0.226755        -6.1703 
  11   2.0000      -0.224157        -6.0996 
  12   2.0000      -0.144538        -3.9331 
  13   2.0000      -0.074970        -2.0400 
  14   2.0000      -0.074767        -2.0345 
  15   2.0000      -0.024478        -0.6661 
  16   2.0000      -0.019976        -0.5436 
  17   2.0000      -0.018647        -0.5074 
  18   0.0000       0.175240         4.7685 
  19   0.0000       0.274843         7.4789 
  20   0.0000       0.355588         9.6760 
  21   0.0000       0.356483         9.7004 
  22   0.0000       0.384564        10.4645 
  23   0.0000       0.390038        10.6135 
  24   0.0000       0.409236        11.1359 
  25   0.0000       0.470782        12.8106 
  26   0.0000       0.560702        15.2575 
  27   0.0000       0.560766        15.2592 
  28   0.0000       0.577778        15.7222 
*Only the first 10 virtual orbitals were printed.

                    ********************************
                    * MULLIKEN POPULATION ANALYSIS *
                    ********************************

-----------------------
MULLIKEN ATOMIC CHARGES
-----------------------
   0 C :   -0.176274
   1 H :    0.161468
   2 H :    0.175980
   3 H :    0.160974
   4 Cl:   -0.578499
   5 F :   -0.743650
Sum of atomic charges:   -1.0000000

--------------------------------
MULLIKEN REDUCED ORBITAL CHARGES
--------------------------------
  0 C s       :     3.317638  s :     3.317638
      pz      :     0.608447  p :     2.830906
      px      :     1.115010
      py      :     1.107449
      dz2     :     0.014395  d :     0.027729
      dxz     :     0.002006
      dyz     :     0.001978
      dx2y2   :     0.004867
      dxy     :     0.004484

  1 H s       :     0.819265  s :     0.819265
      pz      :     0.003972  p :     0.019267
      px      :     0.003459
      py      :     0.011835

  2 H s       :     0.803956  s :     0.803956
      pz      :     0.004642  p :     0.020064
      px      :     0.009808
      py      :     0.005614

  3 H s       :     0.819782  s :     0.819782
      pz      :     0.003945  p :     0.019244
      px      :     0.009797
      py      :     0.005503

  4 Cls       :     5.949881  s :     5.949881
      pz      :     3.617197  p :    11.602382
      px      :     3.992590
      py      :     3.992595
      dz2     :     0.012855  d :     0.026235
      dxz     :     0.006625
      dyz     :     0.006570
      dx2y2   :     0.000104
      dxy     :     0.000081

  5 F s       :     3.979608  s :     3.979608
      pz      :     1.795264  p :     5.765610
      px      :     1.984663
      py      :     1.985682
      dz2     :    -0.000130  d :    -0.001568
      dxz     :    -0.000727
      dyz     :    -0.000686
      dx2y2   :    -0.000020
      dxy     :    -0.000005



                     *******************************
                     * LOEWDIN POPULATION ANALYSIS *
                     *******************************

----------------------
LOEWDIN ATOMIC CHARGES
----------------------
   0 C :   -0.296939
   1 H :    0.153595
   2 H :    0.161336
   3 H :    0.153347
   4 Cl:   -0.410030
   5 F :   -0.761309

-------------------------------
LOEWDIN REDUCED ORBITAL CHARGES
-------------------------------
  0 C s       :     3.083827  s :     3.083827
      pz      :     0.775838  p :     3.147177
      px      :     1.187215
      py      :     1.184124
      dz2     :     0.032491  d :     0.065935
      dxz     :     0.003618
      dyz     :     0.003566
      dx2y2   :     0.013568
      dxy     :     0.012692

  1 H s       :     0.800643  s :     0.800643
      pz      :     0.008086  p :     0.045761
      px      :     0.007691
      py      :     0.029983

  2 H s       :     0.790519  s :     0.790519
      pz      :     0.009774  p :     0.048145
      px      :     0.024842
      py      :     0.013529

  3 H s       :     0.800954  s :     0.800954
      pz      :     0.008023  p :     0.045699
      px      :     0.024567
      py      :     0.013109

  4 Cls       :     5.814452  s :     5.814452
      pz      :     3.584635  p :    11.540278
      px      :     3.977809
      py      :     3.977835
      dz2     :     0.032709  d :     0.055300
      dxz     :     0.011229
      dyz     :     0.011027
      dx2y2   :     0.000190
      dxy     :     0.000144

  5 F s       :     3.938320  s :     3.938320
      pz      :     1.803865  p :     5.776167
      px      :     1.985608
      py      :     1.986694
      dz2     :     0.025802  d :     0.046822
      dxz     :     0.010693
      dyz     :     0.009657
      dx2y2   :     0.000455
      dxy     :     0.000215



                      *****************************
                      * MAYER POPULATION ANALYSIS *
                      *****************************

  NA   - Mulliken gross atomic population
  ZA   - Total nuclear charge
  QA   - Mulliken gross atomic charge
  VA   - Mayer's total valence
  BVA  - Mayer's bonded valence
  FA   - Mayer's free valence

  ATOM       NA         ZA         QA         VA         BVA        FA
  0 C      6.1763     6.0000    -0.1763     3.8070     3.8070     0.0000
  1 H      0.8385     1.0000     0.1615     0.9539     0.9539    -0.0000
  2 H      0.8240     1.0000     0.1760     0.9533     0.9533    -0.0000
  3 H      0.8390     1.0000     0.1610     0.9539     0.9539     0.0000
  4 Cl    17.5785    17.0000    -0.5785     0.6621     0.6621    -0.0000
  5 F      9.7436     9.0000    -0.7436     0.3529     0.3529    -0.0000

  Mayer bond orders larger than 0.100000
B(  0-C ,  1-H ) :   0.9674 B(  0-C ,  2-H ) :   0.9665 B(  0-C ,  3-H ) :   0.9674 
B(  0-C ,  4-Cl) :   0.5971 B(  0-C ,  5-F ) :   0.3086 

-------
TIMINGS
-------

Total SCF time: 0 days 0 hours 0 min 7 sec 

Total time                  ....       7.792 sec
Sum of individual times     ....       7.138 sec  ( 91.6%)

SCF preparation             ....       0.503 sec  (  6.5%)
Fock matrix formation       ....       5.100 sec  ( 65.5%)
  Startup                   ....       0.038 sec  (  0.7% of F)
  Split-RI-J                ....       1.072 sec  ( 21.0% of F)
  XC integration            ....       3.541 sec  ( 69.4% of F)
    XC Preparation          ....       0.000 sec  (  0.0% of XC)
    Basis function eval.    ....       0.920 sec  ( 26.0% of XC)
    Density eval.           ....       0.279 sec  (  7.9% of XC)
    XC-Functional eval.     ....       0.581 sec  ( 16.4% of XC)
    XC-Potential eval.      ....       0.350 sec  (  9.9% of XC)
Diagonalization             ....       0.000 sec  (  0.0%)
Density matrix formation    ....       0.238 sec  (  3.1%)
Total Energy calculation    ....       0.297 sec  (  3.8%)
Population analysis         ....       0.086 sec  (  1.1%)
Orbital Transformation      ....       0.011 sec  (  0.1%)
Orbital Orthonormalization  ....       0.000 sec  (  0.0%)
DIIS solution               ....       0.583 sec  (  7.5%)
SOSCF solution              ....       0.319 sec  (  4.1%)
Finished LeanSCF after   7.8 sec

Maximum memory used throughout the entire LEANSCF-calculation: 4.8 MB


           ************************************************************
           *        Program running with 8 parallel MPI-processes     *
           *              working on a common directory               *
           ************************************************************

------------------------------------------------------------------------------
                         ORCA PROPERTY INTEGRAL CALCULATIONS
------------------------------------------------------------------------------

GBWName                                   ... product_optfreq.gbw
Number of atoms                           ...      6
Number of basis functions                 ...     85
Max core memory                           ...   4096 MB

Dipole integrals                          ... YES
Quadrupole integrals                      ...  NO
Linear momentum integrals                 ...  NO
Angular momentum integrals                ...  NO
Higher moments length integrals           ...  NO
Higher moments velocity integrals         ...  NO
Kinetic energy integrals                  ...  NO
GIAO right hand sides                     ...  NO
GIAO dipole derivative integrals          ...  NO
SOC integrals                             ...  NO
EPR diamagnetic integrals (GIAO)          ...  NO
EPR gauge integrals                       ...  NO
Field gradient integrals                  ...  NO (   0 nuclei)
Spin-dipole/Fermi contact integrals       ...  NO (   0 nuclei)
Contact density integrals                 ...  NO (   0 nuclei)
Nucleus-orbit integrals                   ...  NO (   0 nuclei)
Geometric perturbations                   ...  NO (   6 nuclei)

Choice of electric origin   ... Center of mass
Position of electric origin ... (  0.2961, -0.1731,  0.9738) 
Choice of magnetic origin   ... GIAO
Position of magnetic origin ... (  0.0000,  0.0000,  0.0000) 

Calculating integrals                     ... Electric Dipole (Length)     done (  0.0 sec)

Property integrals calculated in   0.0 sec

Maximum memory used throughout the entire PROPINT-calculation: 5.4 MB


-------------------------------------------------------------------------------
                          DFT DISPERSION CORRECTION                            
                                                                               
                                DFTD4 V3.4.0                                   
-------------------------------------------------------------------------------
The R2SCAN3C composite method is recognized
Using three-body term ABC
Active option DFTDOPT                   ...         5   

-------------------------   ----------------
Dispersion correction           -0.000840522
-------------------------   ----------------

------------------   -----------------
gCP correction             0.006005687
------------------   -----------------

-------------------------   --------------------
FINAL SINGLE POINT ENERGY      -599.937267994791
-------------------------   --------------------



           ************************************************************
           *        Program running with 8 parallel MPI-processes     *
           *              working on a common directory               *
           ************************************************************
------------------------------------------------------------------------------
                         ORCA SCF GRADIENT CALCULATION
------------------------------------------------------------------------------

Nuc. rep. gradient        (SHARK) ... done (  0.0 sec)
HCore & Overlap gradient  (SHARK) ... done (  0.1 sec)
Split-RIJ-J gradient      (SHARK) ... done (  0.4 sec)
XC gradient                       ... done (  0.5 sec)
Dispersion correction             ... done (  0.1 sec)

-------------------
DISPERSION GRADIENT
-------------------

   1   C   :   -0.000000345    0.000000186   -0.000001171
   2   H   :    0.000000192   -0.000004274   -0.000003869
   3   H   :   -0.000003889    0.000002288   -0.000004746
   4   H   :    0.000003805    0.000001915   -0.000003847
   5   Cl  :   -0.000000557    0.000000352    0.000036092
   6   F   :    0.000000795   -0.000000466   -0.000022459

Difference to translation invariance:
           :    0.0000000000    0.0000000000    0.0000000000

Difference to rotation invariance:
           :   -0.0000000000    0.0000000000    0.0000000000

Norm of the Dispersion gradient    ...    0.0000438056
RMS gradient                       ...    0.0000103251
MAX gradient                       ...    0.0000360919
gCP correction                   ... done

------------------
CARTESIAN GRADIENT
------------------

   1   C   :    0.001260040   -0.000668940    0.011689863
   2   H   :   -0.001380870   -0.004269454    0.001884679
   3   H   :   -0.006458077    0.003744789    0.000482802
   4   H   :    0.002963762    0.003201575    0.001932611
   5   Cl  :    0.001262249   -0.000728526   -0.020007436
   6   F   :    0.002352897   -0.001279444    0.004017481

Difference to translation invariance:
           :    0.0000000000   -0.0000000000    0.0000000000

Difference to rotation invariance:
           :    0.0000087292   -0.0000535055   -0.0000089064

Norm of the Cartesian gradient     ...    0.0258232872
RMS gradient                       ...    0.0060866072
MAX gradient                       ...    0.0200074360

-------
TIMINGS
-------

Total SCF gradient time     ....        1.101 sec

Densities                   ....       0.000 sec  (  0.0%)
One electron gradient       ....       0.085 sec  (  7.7%)
RI-J Coulomb gradient       ....       0.402 sec  ( 36.5%)
XC gradient                 ....       0.500 sec  ( 45.4%)

Maximum memory used throughout the entire SCFGRAD-calculation: 25.1 MB
------------------------------------------------------------------------------
                         ORCA GEOMETRY RELAXATION STEP
------------------------------------------------------------------------------

Reading the OPT-File                    .... done
Getting information on internals        .... done
Copying old internal coords+grads       .... done
Making the new internal coordinates     .... (2022 redundants) done
Validating the new internal coordinates .... (2022 redundants) done
Calculating the B-matrix                .... done
Calculating the G,G- and P matrices     .... done
Transforming gradient to internals      .... done
Projecting the internal gradient        .... done
Number of atoms                         ....   6
Number of internal coordinates          ....  21
Current Energy                          ....  -599.937267995 Eh
Current gradient norm                   ....     0.025823287 Eh/bohr
Maximum allowed component of the step   ....  0.300
Current trust radius                    ....  0.300
Evaluating the initial hessian          ....  (Almloef) done
Projecting the Hessian                  .... done
Forming the augmented Hessian           .... done
Diagonalizing the augmented Hessian     .... done
Last element of RFO vector              ....  0.964936800
Lowest eigenvalues of augmented Hessian:
 -0.003223736  0.021377430  0.039091669  0.060592242  0.067498975
Length of the computed step             ....  0.272020226
The final length of the internal step   ....  0.272020226
Converting the step to Cartesian space:
 Initial RMS(Int)=    0.0593596798
Transforming coordinates:
 Iter   0:  RMS(Cart)=    0.0344956488 RMS(Int)=    0.0595128938
done
Storing new coordinates                 .... done

                                .--------------------.
          ----------------------|Geometry convergence|-------------------------
          Item                value                   Tolerance       Converged
          ---------------------------------------------------------------------
          RMS gradient        0.0029685986            0.0001000000      NO
          MAX gradient        0.0067777289            0.0003000000      NO
          RMS step            0.0593596798            0.0020000000      NO
          MAX step            0.1347010493            0.0040000000      NO
          -------------------------------------------------------------------------
          ........................................................
          Max(Bonds)      0.0713      Max(Angles)    1.14
          Max(Dihed)        0.00      Max(Improp)    0.00
          ---------------------------------------------------------------------

The optimization has not yet converged - more geometry cycles are needed


    ---------------------------------------------------------------------------
                         Redundant Internal Coordinates
                            (Angstroem and degrees)

        Definition                    Value    dE/dq     Step     New-Value
    ----------------------------------------------------------------------------
     1. B(H   1,C   0)                1.0704 -0.001879  0.0047    1.0751   
     2. B(H   2,C   0)                1.0635 -0.002617  0.0082    1.0717   
     3. B(H   3,C   0)                1.0706 -0.001855  0.0045    1.0752   
     4. B(Cl  4,H   2)                2.4361 -0.006418  0.0713    2.5074   
     5. B(Cl  4,H   1)                2.4511 -0.004151  0.0631    2.5142   
     6. B(Cl  4,C   0)                2.0724 -0.006778  0.0700    2.1424   
     7. B(Cl  4,H   3)                2.4515 -0.004082  0.0629    2.5144   
     8. B(F   5,H   1)                2.2156 -0.000782  0.0152    2.2309   
     9. B(F   5,H   2)                2.0865 -0.004607  0.0385    2.1250   
    10. B(F   5,C   0)                2.0301  0.001445  0.0232    2.0533   
    11. B(F   5,H   3)                2.2202 -0.000641  0.0144    2.2345   
    12. A(H   1,C   0,H   3)          117.30 -0.002628    0.37    117.66   
    13. A(H   2,C   0,H   3)          119.06  0.000382   -0.16    118.90   
    14. A(H   1,C   0,Cl  4)           97.35  0.001758   -0.16     97.19   
    15. A(H   2,C   0,Cl  4)           96.63  0.000641    0.24     96.87   
    16. A(H   3,C   0,Cl  4)           97.36  0.001791   -0.17     97.19   
    17. A(H   1,C   0,F   5)           85.28 -0.000695   -0.41     84.86   
    18. A(H   2,C   0,F   5)           77.99 -0.002644    0.90     78.88   
    19. A(H   3,C   0,F   5)           85.53 -0.000621   -0.46     85.07   
    20. A(Cl  4,C   0,F   5)          174.61 -0.002004    1.14    175.75   
    21. A(H   1,C   0,H   2)          119.12  0.000497   -0.18    118.94   
    ----------------------------------------------------------------------------

Geometry step timings:
Preparation and reading OPT file:      0.000 s ( 2.811 %)
Internal coordinates            :      0.000 s ( 3.514 %)
B/P matrices and projection     :      0.000 s (11.174 %)
Hessian update/contruction      :      0.000 s (33.240 %)
Making the step                 :      0.000 s (10.330 %)
Converting the step to Cartesian:      0.000 s ( 3.514 %)
Storing new data                :      0.000 s ( 6.465 %)
Checking convergence            :      0.000 s ( 4.568 %)
Final printing                  :      0.000 s (24.034 %)
Total time                      :      0.001 s

Time for energy+gradient        :     13.567 s
Time for complete geometry iter :     14.450 s

         *************************************************************
         *                GEOMETRY OPTIMIZATION CYCLE   2            *
         *************************************************************
---------------------------------
CARTESIAN COORDINATES (ANGSTROEM)
---------------------------------
  C      0.108053   -0.065706    0.009740
  H      0.106807    1.001216   -0.122172
  H      1.024738   -0.603988   -0.126081
  H     -0.823972   -0.585793   -0.119745
  Cl     0.122790   -0.070893    2.151952
  F      0.227433   -0.133742   -2.038948

----------------------------
CARTESIAN COORDINATES (A.U.)
----------------------------
  NO LB      ZA    FRAG     MASS         X           Y           Z
   0 C     6.0000    0    12.011    0.204190   -0.124166    0.018406
   1 H     1.0000    0     1.008    0.201836    1.892025   -0.230872
   2 H     1.0000    0     1.008    1.936474   -1.141371   -0.238259
   3 H     1.0000    0     1.008   -1.557081   -1.106988   -0.226285
   4 Cl   17.0000    0    35.453    0.232039   -0.133968    4.066600
   5 F     9.0000    0    18.998    0.429787   -0.252735   -3.853053

--------------------------------
INTERNAL COORDINATES (ANGSTROEM)
--------------------------------
 C      0   0   0     0.000000000000     0.00000000     0.00000000
 H      1   0   0     1.075046765835     0.00000000     0.00000000
 H      1   2   0     1.071684238447   118.94178389     0.00000000
 H      1   2   3     1.075140075951   117.66497805   204.01829176
 Cl     1   2   3     2.142269086060    97.18719163   101.97707956
 F      1   2   3     2.053291024365    84.86648807   285.71852539

---------------------------
INTERNAL COORDINATES (A.U.)
---------------------------
 C      0   0   0     0.000000000000     0.00000000     0.00000000
 H      1   0   0     2.031543968586     0.00000000     0.00000000
 H      1   2   0     2.025189712704   118.94178389     0.00000000
 H      1   2   3     2.031720299150   117.66497805   204.01829176
 Cl     1   2   3     4.048301877818    97.18719163   101.97707956
 F      1   2   3     3.880157709288    84.86648807   285.71852539



           ************************************************************
           *        Program running with 8 parallel MPI-processes     *
           *              working on a common directory               *
           ************************************************************
------------------------------------------------------------------------------
                   ___                                                        
                  /   \      - P O W E R E D   B Y -                         
                 /     \                                                     
                 |  |  |   _    _      __       _____    __    __             
                 |  |  |  | |  | |    /  \     |  _  \  |  |  /  |          
                  \  \/   | |  | |   /    \    | | | |  |  | /  /          
                 / \  \   | |__| |  /  /\  \   | |_| |  |  |/  /          
                |  |  |   |  __  | /  /__\  \  |    /   |      \           
                |  |  |   | |  | | |   __   |  |    \   |  |\   \          
                \     /   | |  | | |  |  |  |  | |\  \  |  | \   \       
                 \___/    |_|  |_| |__|  |__|  |_| \__\ |__|  \__/        
                                                                              
                      - O R C A' S   B I G   F R I E N D -                    
                                      &                                       
                       - I N T E G R A L  F E E D E R -                       
                                                                              
 v1 FN, 2020, v2 2021, v3 2022-2024                                           
------------------------------------------------------------------------------


----------------------
SHARK INTEGRAL PACKAGE
----------------------

Number of atoms                             ...      6
Number of basis functions                   ...     85
Number of shells                            ...     39
Maximum angular momentum                    ...      2
Integral batch strategy                     ... SHARK/LIBINT Hybrid
RI-J (if used) integral strategy            ... SPLIT-RIJ (Revised 2003 algorithm where possible)
Printlevel                                  ...      1
Contraction scheme used                     ... SEGMENTED contraction
Prescreening option                         ... SCHWARTZ
   Thresh                                   ... 2.500e-11
   Tcut                                     ... 2.500e-12
   Tpresel                                  ... 2.500e-12 
Coulomb Range Separation                    ... NOT USED
Exchange Range Separation                   ... NOT USED
Multipole approximations                    ... NOT USED
Finite Nucleus Model                        ... NOT USED
CABS basis                                  ... NOT available
Auxiliary Coulomb fitting basis             ... AVAILABLE
   # of basis functions in Aux-J            ...    140
   # of shells in Aux-J                     ...     56
   Maximum angular momentum in Aux-J        ...      3
Auxiliary J/K fitting basis                 ... NOT available
Auxiliary Correlation fitting basis         ... NOT available
Auxiliary 'external' fitting basis          ... NOT available

Checking pre-screening integrals            ... done (  0.0 sec) Dimension = 39
   => SHARK Basis and OBASIS are compatible. Storing Pre-screening
Shell pair information
Shell pair cut-off parameter TPreSel        ...   2.5e-12
Total number of shell pairs                 ...       780
Shell pairs after pre-screening             ...       731
Total number of primitive shell pairs       ...      3096
Primitive shell pairs kept                  ...      2261
          la=0 lb=0:    208 shell pairs
          la=1 lb=0:    259 shell pairs
          la=1 lb=1:     88 shell pairs
          la=2 lb=0:     99 shell pairs
          la=2 lb=1:     62 shell pairs
          la=2 lb=2:     15 shell pairs

Checking whether 4 symmetric matrices of dimension 85 fit in memory
:Max Core in MB      =   4096.00
 MB in use           =      2.98
 MB left             =   4093.02
 MB needed           =      0.11
 Data fit in memory  = YES
Calculating RI/J V-Matrix + Cholesky decomp.... done (  0.0 sec)
Calculating Nuclear repulsion               ... done (  0.0 sec) ENN=     85.403870223257 Eh

Diagonalization of the overlap matrix:
Smallest eigenvalue                        ... 6.633e-03
Time for diagonalization                   ...    0.001 sec
Threshold for overlap eigenvalues          ... 1.000e-07
Number of eigenvalues below threshold      ... 0
Time for construction of square roots      ...    0.001 sec
Total time needed                          ...    0.002 sec

-------------------
DFT GRID GENERATION
-------------------

General Integration Accuracy     IntAcc      ... 4.388
Radial Grid Type                 RadialGrid  ... OptM3 with GC (2021)
Angular Grid (max. ang.)         AngularGrid ... 4 (Lebedev-302)
Angular grid pruning method      GridPruning ... 4 (adaptive)
Weight generation scheme         WeightScheme... mBecke (2022)
Basis function cutoff            BFCut       ... 1.0000e-11
Integration weight cutoff        WCut        ... 1.0000e-14
Partially contracted basis set               ... off
Rotationally invariant grid construction     ... off
Angular grids for H and He will be reduced by one unit

Total number of grid points                  ...    29410
Total number of batches                      ...      462
Average number of points per batch           ...       63
Average number of grid points per atom       ...     4902
Grids setup in   0.5 sec
Initializing property integral containers    ... done (  0.0 sec)

SHARK setup successfully completed in   0.8 seconds

Maximum memory used throughout the entire STARTUP-calculation: 9.9 MB


           ************************************************************
           *        Program running with 8 parallel MPI-processes     *
           *              working on a common directory               *
           ************************************************************
Occupation numbers will be reassigned to an Aufbau configuration
             **** ENERGY FILE WAS UPDATED (product_optfreq.en.tmp) ****
Finished Guess after   0.5 sec
Maximum memory used throughout the entire GUESS-calculation: 5.3 MB


           ************************************************************
           *        Program running with 8 parallel MPI-processes     *
           *              working on a common directory               *
           ************************************************************
----------------------------------------D-I-I-S--------------------------------------------
Iteration    Energy (Eh)           Delta-E    RMSDP     MaxDP     DIISErr   Damp  Time(sec)
-------------------------------------------------------------------------------------------
               ***  Starting incremental Fock matrix formation  ***
    1    -599.9434419987094316     0.00e+00  4.75e-04  2.63e-03  9.83e-03  0.700   0.4
    2    -599.9435966932408064    -1.55e-04  5.00e-04  2.90e-03  7.34e-03  0.700   0.1
                               ***Turning on AO-DIIS***
    3    -599.9437160267709714    -1.19e-04  4.26e-04  2.63e-03  5.19e-03  0.700   0.3
    4    -599.9437996289675539    -8.36e-05  1.11e-03  7.15e-03  3.84e-03  0.000   0.3
                              *** Initializing SOSCF ***
---------------------------------------S-O-S-C-F--------------------------------------
Iteration    Energy (Eh)           Delta-E    RMSDP     MaxDP     MaxGrad    Time(sec)
--------------------------------------------------------------------------------------
    5    -599.9439959968124185    -1.96e-04  8.44e-05  4.50e-04  4.80e-04     0.2
               *** Restarting incremental Fock matrix formation ***
    6    -599.9439965574467806    -5.61e-07  8.71e-05  3.67e-04  1.45e-04     0.3
    7    -599.9439960147558395     5.43e-07  5.34e-05  2.69e-04  3.11e-04     0.4
    8    -599.9439967753623932    -7.61e-07  2.36e-05  9.01e-05  4.83e-05     0.3
    9    -599.9439967105174674     6.48e-08  1.41e-05  6.41e-05  1.19e-04     0.4
   10    -599.9439968023252732    -9.18e-08  4.26e-06  2.66e-05  7.19e-06     0.4
   11    -599.9439968025135386    -1.88e-10  2.29e-06  1.50e-05  8.16e-06     0.3
                 **** Energy Check signals convergence ****

               *****************************************************
               *                     SUCCESS                       *
               *           SCF CONVERGED AFTER  11 CYCLES          *
               *****************************************************

             **** ENERGY FILE WAS UPDATED (product_optfreq.en.tmp) ****

----------------
TOTAL SCF ENERGY
----------------

Total Energy       :       -599.94399680297215 Eh          -16325.30612 eV

Components:
Nuclear Repulsion  :         85.40387022325723 Eh            2323.95746 eV
Electronic Energy  :       -685.34786702622944 Eh          -18649.26357 eV
One Electron Energy:      -1007.02881193720850 Eh          -27402.64710 eV
Two Electron Energy:        321.68094491097906 Eh            8753.38352 eV

Virial components:
Potential Energy   :      -1198.38968536991592 Eh          -32609.84119 eV
Kinetic Energy     :        598.44568856694377 Eh           16284.53508 eV
Virial Ratio       :          2.00250366618835

DFT components:
N(Alpha)           :       18.000008004936 electrons
N(Beta)            :       18.000008004936 electrons
N(Total)           :       36.000016009872 electrons
E(X)               :      -44.097314732770 Eh       
E(C)               :       -1.257718795418 Eh       
E(XC)              :      -45.355033528188 Eh       

---------------
SCF CONVERGENCE
---------------

  Last Energy change         ...    1.8827e-10  Tolerance :   1.0000e-08
  Last MAX-Density change    ...    1.4964e-05  Tolerance :   1.0000e-07
  Last RMS-Density change    ...    2.2920e-06  Tolerance :   5.0000e-09
  Last DIIS Error            ...    4.7974e-04  Tolerance :   5.0000e-07
  Last Orbital Gradient      ...    8.1623e-06  Tolerance :   1.0000e-05
  Last Orbital Rotation      ...    1.0014e-05  Tolerance :   1.0000e-05


Total SCF time: 0 days 0 hours 0 min 4 sec 
Finished LeanSCF after   4.2 sec

Maximum memory used throughout the entire LEANSCF-calculation: 4.8 MB


           ************************************************************
           *        Program running with 8 parallel MPI-processes     *
           *              working on a common directory               *
           ************************************************************

------------------------------------------------------------------------------
                         ORCA PROPERTY INTEGRAL CALCULATIONS
------------------------------------------------------------------------------

GBWName                                   ... product_optfreq.gbw
Number of atoms                           ...      6
Number of basis functions                 ...     85
Max core memory                           ...   4096 MB

Dipole integrals                          ... YES
Quadrupole integrals                      ...  NO
Linear momentum integrals                 ...  NO
Angular momentum integrals                ...  NO
Higher moments length integrals           ...  NO
Higher moments velocity integrals         ...  NO
Kinetic energy integrals                  ...  NO
GIAO right hand sides                     ...  NO
GIAO dipole derivative integrals          ...  NO
SOC integrals                             ...  NO
EPR diamagnetic integrals (GIAO)          ...  NO
EPR gauge integrals                       ...  NO
Field gradient integrals                  ...  NO (   0 nuclei)
Spin-dipole/Fermi contact integrals       ...  NO (   0 nuclei)
Contact density integrals                 ...  NO (   0 nuclei)
Nucleus-orbit integrals                   ...  NO (   0 nuclei)
Geometric perturbations                   ...  NO (   6 nuclei)

Choice of electric origin   ... Center of mass
Position of electric origin ... (  0.2796, -0.1641,  1.0145) 
Choice of magnetic origin   ... GIAO
Position of magnetic origin ... (  0.0000,  0.0000,  0.0000) 

Calculating integrals                     ... Electric Dipole (Length)     done (  0.0 sec)

Property integrals calculated in   0.0 sec

Maximum memory used throughout the entire PROPINT-calculation: 5.4 MB


-------------------------------------------------------------------------------
                          DFT DISPERSION CORRECTION                            
                                                                               
                                DFTD4 V3.4.0                                   
-------------------------------------------------------------------------------
-------------------------   ----------------
Dispersion correction           -0.000836558
-------------------------   ----------------

------------------   -----------------
gCP correction             0.005347470
------------------   -----------------

-------------------------   --------------------
FINAL SINGLE POINT ENERGY      -599.939485891508
-------------------------   --------------------



           ************************************************************
           *        Program running with 8 parallel MPI-processes     *
           *              working on a common directory               *
           ************************************************************
------------------------------------------------------------------------------
                         ORCA SCF GRADIENT CALCULATION
------------------------------------------------------------------------------

Nuc. rep. gradient        (SHARK) ... done (  0.0 sec)
HCore & Overlap gradient  (SHARK) ... done (  0.1 sec)
Split-RIJ-J gradient      (SHARK) ... done (  0.4 sec)
XC gradient                       ... done (  0.4 sec)
Dispersion correction             ... done (  0.1 sec)

-------------------
DISPERSION GRADIENT
-------------------

   1   C   :    0.000000827   -0.000000440    0.000008527
   2   H   :    0.000000150   -0.000005971   -0.000004101
   3   H   :   -0.000005220    0.000003066   -0.000004875
   4   H   :    0.000005270    0.000002778   -0.000004087
   5   Cl  :   -0.000000771    0.000000434    0.000009625
   6   F   :   -0.000000256    0.000000132   -0.000005088

Difference to translation invariance:
           :   -0.0000000000    0.0000000000    0.0000000000

Difference to rotation invariance:
           :   -0.0000000000   -0.0000000000   -0.0000000000

Norm of the Dispersion gradient    ...    0.0000189234
RMS gradient                       ...    0.0000044603
MAX gradient                       ...    0.0000096252
gCP correction                   ... done

------------------
CARTESIAN GRADIENT
------------------

   1   C   :   -0.000547997    0.000311830    0.014001855
   2   H   :   -0.001034228   -0.000884894   -0.000649906
   3   H   :   -0.001669325    0.000940599   -0.002304859
   4   H   :    0.000244496    0.001289555   -0.000587367
   5   Cl  :    0.000932749   -0.000527520   -0.008782060
   6   F   :    0.002074305   -0.001129571   -0.001677662

Difference to translation invariance:
           :    0.0000000000   -0.0000000000    0.0000000001

Difference to rotation invariance:
           :    0.0000120253   -0.0000485201   -0.0000060227

Norm of the Cartesian gradient     ...    0.0172174942
RMS gradient                       ...    0.0040582023
MAX gradient                       ...    0.0140018550

-------
TIMINGS
-------

Total SCF gradient time     ....        1.085 sec

Densities                   ....       0.000 sec  (  0.0%)
One electron gradient       ....       0.083 sec  (  7.6%)
RI-J Coulomb gradient       ....       0.409 sec  ( 37.7%)
XC gradient                 ....       0.400 sec  ( 36.9%)

Maximum memory used throughout the entire SCFGRAD-calculation: 25.1 MB
------------------------------------------------------------------------------
                         ORCA GEOMETRY RELAXATION STEP
------------------------------------------------------------------------------

Reading the OPT-File                    .... done
Getting information on internals        .... done
Copying old internal coords+grads       .... done
Making the new internal coordinates     .... (2022 redundants) done
Validating the new internal coordinates .... (2022 redundants) done
Calculating the B-matrix                .... done
Calculating the G,G- and P matrices     .... done
Transforming gradient to internals      .... done
Projecting the internal gradient        .... done
Number of atoms                         ....   6
Number of internal coordinates          ....  21
Current Energy                          ....  -599.939485892 Eh
Current gradient norm                   ....     0.017217494 Eh/bohr
Maximum allowed component of the step   ....  0.300
Current trust radius                    ....  0.300
Updating the Hessian (BFGS)             .... done
Forming the augmented Hessian           .... done
Diagonalizing the augmented Hessian     .... done
Last element of RFO vector              ....  0.974658664
Lowest eigenvalues of augmented Hessian:
 -0.001539597  0.021238733  0.027458828  0.060592147  0.066708780
Length of the computed step             ....  0.229513492
The final length of the internal step   ....  0.229513492
Converting the step to Cartesian space:
 Initial RMS(Int)=    0.0500839501
Transforming coordinates:
 Iter   0:  RMS(Cart)=    0.0298398414 RMS(Int)=    0.0502047001
done
Storing new coordinates                 .... done
The predicted energy change is          ....    -0.000810349
Previously predicted energy change      ....    -0.001731138
Actually observed energy change         ....    -0.002217897
Ratio of predicted to observed change   ....     1.281178292
New trust radius                        ....     0.300000000

                                .--------------------.
          ----------------------|Geometry convergence|-------------------------
          Item                value                   Tolerance       Converged
          ---------------------------------------------------------------------
          Energy change      -0.0022178967            0.0000050000      NO
          RMS gradient        0.0019435346            0.0001000000      NO
          MAX gradient        0.0049670443            0.0003000000      NO
          RMS step            0.0500839501            0.0020000000      NO
          MAX step            0.1263977832            0.0040000000      NO
          -------------------------------------------------------------------------
          ........................................................
          Max(Bonds)      0.0669      Max(Angles)    1.98
          Max(Dihed)        0.00      Max(Improp)    0.00
          ---------------------------------------------------------------------

The optimization has not yet converged - more geometry cycles are needed


    ---------------------------------------------------------------------------
                         Redundant Internal Coordinates
                            (Angstroem and degrees)

        Definition                    Value    dE/dq     Step     New-Value
[...]
Rotational constants in MHz :        157386.055993          1748.695087          1748.693276 

Dipole components along the rotational axes: 
x,y,z [a.u.] :    -2.250511    -0.000311    -0.000162 
x,y,z [Debye]:    -5.720345    -0.000789    -0.000412 

 

Dipole moment calculation done in   0.0 sec 

-----------
SCF HESSIAN
-----------

Occupied/Occupied contributions to the Hessian:
   => Occupied/Occupied contributions              ... done (  0.0 sec)
Perturbed density contributions to the Hessian:
   => Perturbed density contributions              ... done (  0.0 sec)
Explicit contributions to the Hessian:
   => Nuclear repulsion Hessian                    ... done (  0.1 sec)
   => HCore and overlap Hessian                    ... done (  0.1 sec)
   => RI-J Hessian                                 ... done (  0.8 sec)
   => XC-Hessian                                   ... done (  2.4 sec)
   => Van der Waals-Hessian                        ... done (  0.3 sec)
   => GCP-Hessian                                  ... done (  0.1 sec)
   => Explicit contributions done
Dipole derivatives                                 ... done (  0.0 sec)
Mass weighting the Hessian           ... done
Calculating normal modes             ... done
Scaling frequencies                  ... done

-----------------------
VIBRATIONAL FREQUENCIES
-----------------------

Scaling factor for frequencies =  1.000000000  (already applied!)

     0:       0.00 cm**-1
     1:       0.00 cm**-1
     2:       0.00 cm**-1
     3:       0.00 cm**-1
     4:       0.00 cm**-1
     5:       0.00 cm**-1
     6:     105.20 cm**-1
     7:     107.11 cm**-1
     8:     123.07 cm**-1
     9:     910.97 cm**-1
    10:    1128.47 cm**-1
    11:    1129.34 cm**-1
    12:    1404.29 cm**-1
    13:    1465.28 cm**-1
    14:    1465.41 cm**-1
    15:    3056.57 cm**-1
    16:    3170.72 cm**-1
    17:    3171.43 cm**-1


------------
NORMAL MODES
------------

These modes are the Cartesian displacements weighted by the diagonal matrix
M(i,i)=1/sqrt(m[i]) where m[i] is the mass of the displaced atom
Thus, these vectors are normalized but *not* orthogonal

                  0          1          2          3          4          5    
      0       0.000000   0.000000   0.000000   0.000000   0.000000   0.000000
      1       0.000000   0.000000   0.000000   0.000000   0.000000   0.000000
      2       0.000000   0.000000   0.000000   0.000000   0.000000   0.000000
      3       0.000000   0.000000   0.000000   0.000000   0.000000   0.000000
      4       0.000000   0.000000   0.000000   0.000000   0.000000   0.000000
      5       0.000000   0.000000   0.000000   0.000000   0.000000   0.000000
      6       0.000000   0.000000   0.000000   0.000000   0.000000   0.000000
      7       0.000000   0.000000   0.000000   0.000000   0.000000   0.000000
      8       0.000000   0.000000   0.000000   0.000000   0.000000   0.000000
      9       0.000000   0.000000   0.000000   0.000000   0.000000   0.000000
     10       0.000000   0.000000   0.000000   0.000000   0.000000   0.000000
     11       0.000000   0.000000   0.000000   0.000000   0.000000   0.000000
     12       0.000000   0.000000   0.000000   0.000000   0.000000   0.000000
     13       0.000000   0.000000   0.000000   0.000000   0.000000   0.000000
     14       0.000000   0.000000   0.000000   0.000000   0.000000   0.000000
     15       0.000000   0.000000   0.000000   0.000000   0.000000   0.000000
     16       0.000000   0.000000   0.000000   0.000000   0.000000   0.000000
     17       0.000000   0.000000   0.000000   0.000000   0.000000   0.000000
                  6          7          8          9         10         11    
      0       0.287037  -0.162509   0.000092   0.014142  -0.128117  -0.013444
      1       0.162437   0.287278   0.015784  -0.008771  -0.013467   0.127984
      2       0.004802   0.000357  -0.421413  -0.670038  -0.002610  -0.001866
      3       0.392313  -0.212607  -0.002850   0.005658   0.229026   0.008531
      4       0.227743   0.402550   0.023203  -0.093347   0.010966  -0.112008
      5      -0.187720  -0.339910  -0.432080  -0.312335  -0.080586   0.762193
      6       0.402666  -0.242980  -0.005683  -0.070560   0.166860  -0.020183
      7       0.213149   0.402369   0.024866   0.041477   0.058649  -0.201836
      8      -0.188934   0.333551  -0.386591  -0.314834  -0.613590  -0.452958
      9       0.399462  -0.220388  -0.002402   0.083890   0.128369   0.066901
     10       0.234497   0.389480   0.024166   0.040498  -0.014606  -0.210757
     11       0.395819  -0.002136  -0.404787  -0.312460   0.705047  -0.303155
     12      -0.046734   0.026588  -0.006910   0.000121   0.000442   0.000044
     13      -0.026457  -0.046846   0.001629  -0.000090   0.000045  -0.000424
     14      -0.001486  -0.005823   0.394642  -0.004492   0.000010  -0.000020
     15      -0.157635   0.088991   0.013417  -0.010174   0.052358   0.005486
     16      -0.089160  -0.157576  -0.016851   0.006316   0.005511  -0.052290
     17      -0.001279   0.011093  -0.405117   0.481853   0.001054   0.000894
                 12         13         14         15         16         17    
      0       0.001916   0.057541   0.033899  -0.000817  -0.007310  -0.096175
      1      -0.000792  -0.033872   0.057556   0.000139   0.096195  -0.007341
      2      -0.089536   0.001556   0.000196   0.040277  -0.001248  -0.001945
      3      -0.013050  -0.652715  -0.370225  -0.000291  -0.002185  -0.023086
      4      -0.187041  -0.061628   0.116611  -0.550143  -0.776686   0.064473
      5       0.543194   0.131523  -0.258876  -0.162722  -0.236924   0.019121
      6      -0.180607   0.122990  -0.379212  -0.472885   0.384962   0.537213
      7       0.103389  -0.070905  -0.647793   0.277273  -0.203696  -0.330314
      8       0.535976  -0.282235  -0.001490  -0.185534   0.151038   0.218953
      9       0.158856  -0.265631   0.280906   0.483625  -0.297459   0.608288
     10       0.101240   0.600877  -0.264385   0.270565  -0.142403   0.351534
     11       0.543036   0.130175   0.256074  -0.164977   0.100257  -0.215408
     12       0.000014   0.000359   0.000213  -0.000004   0.000008   0.000098
     13      -0.000006  -0.000213   0.000361   0.000005  -0.000097   0.000007
     14      -0.000510   0.000002   0.000011   0.000168   0.000004   0.000003
     15       0.000608   0.005151   0.003030  -0.000030   0.000080   0.001068
     16      -0.000421  -0.003037   0.005150   0.000026  -0.001063   0.000081
     17      -0.028513   0.000103   0.000084   0.001454   0.000020   0.000021


-----------
IR SPECTRUM
-----------

 Mode   freq       eps      Int      T**2         TX        TY        TZ
       cm**-1   L/(mol*cm) km/mol    a.u.
----------------------------------------------------------------------------
  6:    105.20   0.001595    8.06  0.004733  ( 0.059930  0.033755  0.001333)
  7:    107.11   0.001596    8.06  0.004649  (-0.033689  0.059217  0.002623)
  8:    123.07   0.004294   21.70  0.010888  ( 0.001355  0.000734 -0.104332)
  9:    910.97   0.050879  257.12  0.017429  ( 0.002791 -0.001662 -0.131980)
 10:   1128.47   0.000546    2.76  0.000151  (-0.012216 -0.001328 -0.000214)
 11:   1129.34   0.000553    2.80  0.000153  (-0.001263  0.012296 -0.000369)
 12:   1404.29   0.000152    0.77  0.000034  (-0.000135  0.000099  0.005803)
 13:   1465.28   0.002009   10.15  0.000428  (-0.017795  0.010535 -0.000500)
 14:   1465.41   0.002019   10.21  0.000430  (-0.010478 -0.017895  0.000001)
 15:   3056.57   0.003324   16.80  0.000339  (-0.000396  0.000045  0.018419)
 16:   3170.72   0.002429   12.27  0.000239  (-0.001166  0.015416 -0.000037)
 17:   3171.43   0.002393   12.09  0.000235  (-0.015297 -0.001175 -0.000326)

* The epsilon (eps) is given for a Dirac delta lineshape.
** The dipole moment derivative (T) already includes vibrational overlap.

The first frequency considered to be a vibration is 6
The total number of vibrations considered is 12


--------------------------
THERMOCHEMISTRY AT 298.15K
--------------------------

Temperature         ...   298.15 K
Pressure            ...     1.00 atm
Total Mass          ...    69.49 AMU
Quasi RRHO          ...     True
Cut-Off Frequency   ...     1.00 cm^-1

Throughout the following assumptions are being made:
  (1) The electronic state is orbitally nondegenerate
  (2) There are no thermally accessible electronically excited states
  (3) Hindered rotations indicated by low frequency modes are not
      treated as such but are treated as vibrations and this may
      cause some error
  (4) All equations used are the standard statistical mechanics
      equations for an ideal gas
  (5) All vibrations are strictly harmonic

freq.     105.20  E(vib)   ...       0.45 
freq.     107.11  E(vib)   ...       0.45 
freq.     123.07  E(vib)   ...       0.43 
freq.     910.97  E(vib)   ...       0.03 
freq.    1128.47  E(vib)   ...       0.01 
freq.    1129.34  E(vib)   ...       0.01 
freq.    1404.29  E(vib)   ...       0.00 
freq.    1465.28  E(vib)   ...       0.00 
freq.    1465.41  E(vib)   ...       0.00 
freq.    3056.57  E(vib)   ...       0.00 
freq.    3170.72  E(vib)   ...       0.00 
freq.    3171.43  E(vib)   ...       0.00 

------------
INNER ENERGY
------------

The inner energy is: U= E(el) + E(ZPE) + E(vib) + E(rot) + E(trans)
    E(el)   - is the total energy from the electronic structure calculation
              = E(kin-el) + E(nuc-el) + E(el-el) + E(nuc-nuc)
    E(ZPE)  - the the zero temperature vibrational energy from the frequency calculation
    E(vib)  - the the finite temperature correction to E(ZPE) due to population
              of excited vibrational states
    E(rot)  - is the rotational thermal energy
    E(trans)- is the translational thermal energy

Summary of contributions to the inner energy U:
Electronic energy                ...   -599.98097775 Eh
Zero point energy                ...      0.03927075 Eh      24.64 kcal/mol
Thermal vibrational correction   ...      0.00225226 Eh       1.41 kcal/mol
Thermal rotational correction    ...      0.00141627 Eh       0.89 kcal/mol
Thermal translational correction ...      0.00141627 Eh       0.89 kcal/mol
-----------------------------------------------------------------------
Total thermal energy                   -599.93662220 Eh


Summary of corrections to the electronic energy:
(perhaps to be used in another calculation)
Total thermal correction                  0.00508480 Eh       3.19 kcal/mol
Non-thermal (ZPE) correction              0.03927075 Eh      24.64 kcal/mol
-----------------------------------------------------------------------
Total correction                          0.04435555 Eh      27.83 kcal/mol


--------
ENTHALPY
--------

The enthalpy is H = U + kB*T
                kB is Boltzmann's constant
Total thermal energy              ...   -599.93662220 Eh 
Thermal Enthalpy correction       ...      0.00094421 Eh       0.59 kcal/mol
-----------------------------------------------------------------------
Total Enthalpy                    ...   -599.93567799 Eh


Note: Only C1 symmetry has been detected, increase convergence thresholds 
      if your molecule has a higher symmetry. Symmetry factor of 1.0 is   
      used for the rotational entropy correction. 
 

Note: Rotational entropy computed according to Herzberg 
Infrared and Raman Spectra, Chapter V,1, Van Nostrand Reinhold, 1945 
Point Group:  C1, Symmetry Number:   1  
Rotational constants in cm-1:     5.249838     0.058330     0.058330 

Vibrational entropy computed according to the QRRHO of S. Grimme
Chem.Eur.J. 2012 18 9955 using a reference frequency of 100.0 cm-1


-------
ENTROPY
-------

The entropy contributions are T*S = T*(S(el)+S(vib)+S(rot)+S(trans))
     S(el)   - electronic entropy
     S(vib)  - vibrational entropy
     S(rot)  - rotational entropy
     S(trans)- translational entropy
The entropies will be listed as multiplied by the temperature to get
units of energy

Electronic entropy                ...      0.00000000 Eh      0.00 kcal/mol
Vibrational entropy               ...      0.00447400 Eh      2.81 kcal/mol
Rotational entropy                ...      0.01141101 Eh      7.16 kcal/mol
Translational entropy             ...      0.01835566 Eh     11.52 kcal/mol
-----------------------------------------------------------------------
Final entropy term                ...      0.03424066 Eh     21.49 kcal/mol

In case the symmetry of your molecule has not been determined correctly
or in case you have a reason to use a different symmetry number we print 
out the resulting rotational entropy values for sn=1,12:

 non-linear molecules -----------------------------------
|  sn= 1 | S(rot)=       0.01141101 Eh      7.16 kcal/mol|
|  sn= 2 | S(rot)=       0.01075655 Eh      6.75 kcal/mol|
|  sn= 3 | S(rot)=       0.01037372 Eh      6.51 kcal/mol|
|  sn= 4 | S(rot)=       0.01010210 Eh      6.34 kcal/mol|
|  sn= 5 | S(rot)=       0.00989141 Eh      6.21 kcal/mol|
|  sn= 6 | S(rot)=       0.00971926 Eh      6.10 kcal/mol|
|  sn= 7 | S(rot)=       0.00957372 Eh      6.01 kcal/mol|
|  sn= 8 | S(rot)=       0.00944764 Eh      5.93 kcal/mol|
|  sn= 9 | S(rot)=       0.00933643 Eh      5.86 kcal/mol|
|  sn=10 | S(rot)=       0.00923695 Eh      5.80 kcal/mol|
|  sn=11 | S(rot)=       0.00914696 Eh      5.74 kcal/mol|
|  sn=12 | S(rot)=       0.00906481 Eh      5.69 kcal/mol|
 linear molecules ---------------------------------------
|  Dinfh | S(rot)=       0.00800882 Eh      5.03 kcal/mol|
|  Cinfv | S(rot)=       0.00866328 Eh      5.44 kcal/mol|
 --------------------------------------------------------


-------------------
GIBBS FREE ENERGY
-------------------

The Gibbs free energy is G = H - T*S

Total enthalpy                    ...   -599.93567799 Eh 
Total entropy correction          ...     -0.03424066 Eh    -21.49 kcal/mol
-----------------------------------------------------------------------
Final Gibbs free energy         ...   -599.96991865 Eh

For completeness - the Gibbs free energy minus the electronic energy
G-E(el)                           ...      0.01105910 Eh      6.94 kcal/mol


Maximum memory used throughout the entire PROP-calculation: 25.2 MB

--------------------------------
SUGGESTED CITATIONS FOR THIS RUN
--------------------------------

Below you find a list of papers that are relevant to this ORCA run
We neither can nor want to force you to cite these papers, but we appreciate if you do
You receive ORCA, which is the product of decades of hard work by many enthusiastic individuals, for free
The only thing we kindly ask in return is that you cite our papers,
We deeply appreciate it, if you show your appreciation for ORCA by not just citing the generic ORCA reference.

Please note that relegating all ORCA citations to the supporting information does *not* help us.
SI sections are not indexed - citations you put there will not count into any citation statistics
But we need these citations in order to attract the funding resources that allow us to do what we are doing

Therefore, if you are a happy ORCA user, please consider citing a few of the papers listed below in the main body of your paper

In addition to the list printed below, the program has created the file product_optfreq.bibtex that contains the list in bibtex format
You can import this file easily into all common literature databanks and citation aid programs


List of essential papers. We consider these as the minimum necessary citations

  1. Grimme, S.; Hansen, A.; Ehlert, S.; Mewes, J.
     r2SCAN-3c: A 'Swiss army knife' composite electronic-structure method
     J. Chem. Phys. 2021 154 , 064103
     doi.org/10.1063/5.0040021
  2. Neese, F.
     Software update: the ORCA program system, version 6.0
     WIRES Comput. Molec. Sci. 2025 15(1), e70019
     doi.org/10.1002/wcms.7019

List of papers to cite with high priority. The work reported in these papers was absolutely
necessary for this run to complete.
Our perspective: the developers of density functionals and basis sets usually get cited in chemistry papers
Good! But without the algorithms to do something with them, the functionals or basis sets would not do anything.
Hence, in our opinion, the algorithm design and method developments papers are equally worthy of getting cited

  1. Neese, F.
     An improvement of the resolution of the identity approximation for the formation of the Coulomb matrix
     J. Comp. Chem. 2003 24(14), 1740-1747
     doi.org/10.1002/jcc.10318
  2. Bykov, D.; Petrenko, T.; Izsak, R.; Kossmann, S.; Becker, U.; Valeev, E.; Neese, F.
     Efficient implementation of the analytic second derivatives of Hartree-Fock and hybrid DFT energies: a detailed analysis of different approximations
     Molec. Phys. 2015 113 , 1961-1977
     doi.org/10.1080/00268976.2015.1025114
  3. Caldeweyher, E.; Bannwarth, C.; Grimme, S.
     Extension of the D3 dispersion coefficient model
     J. Chem. Phys. 2017 147 , 034112
     doi.org/10.1063/1.4993215
  4. Lehtola, S.; Steigemann, C.; Oliveira, M.; Marques, M.
     Recent developments in Libxc - A comprehensive library of functionals for density functional theory
     Software X 2018 7 , 
     doi.org/10.1016/j.softx.2017.11.002
  5. Caldeweyher, E.; Ehlert, S.; Hansen, A.; Neugebauer, H.; Spicher, S.; Bannwarth, C.; Grimme, S.
     A generally applicable atomic-charge dependent London dispersion correction
     J. Chem. Phys. 2019 150 , 154122
     doi.org/10.1063/1.5090222
  6. Caldeweyher, E.; Mewes, J.; Ehlert, S.; Grimme, S.
     Extension and evaluation of the D4 London-dispersion model for periodic systems
     Phys. Chem. Chem. Phys. 2020 22(16), 8499-8512
     doi.org/10.1039/D0CP00502A
  7. Neese, F.
     The SHARK Integral Generation and Digestion System
     J. Comp. Chem. 2022 44(3), 381
     doi.org/10.1002/jcc.26942
  8. Wittmann, L.; Gordiy, I.; Friede, M.; Helmich-Paris, B.; Grimme, S.; Hansen, A.; Bursch, M.
     Extension of the D3 and D4 London Dispersion Corrections to the full Actinides Series
     Phys. Chem. Chem. Phys. 2024 26(32), 21379-21394
     doi.org/10.1039/D4CP01514B

List of suggested additional citations. These are papers that are important in the 'surrounding' of 
of this run, or papers that preceded the highly important papers. If you like your results we are grateful for a citation.

  1. Neese, F.
     The ORCA program system
     WIRES Comput. Molec. Sci. 2012 2(1), 73-78
     doi.org/10.1002/wcms.81
  2. Neese, F.
     Software update: the ORCA program system, version 4.0
     WIRES Comput. Molec. Sci. 2018 8(1), 1-6
     doi.org/10.1002/wcms.1327
  3. Neese, F.; Wennmohs, F.; Becker, U.; Riplinger, C.
     The ORCA quantum chemistry program package
     J. Chem. Phys. 2020 152(22), 224108
     doi.org/10.1063/5.0004608
  4. Neese, F.
     Software update: The ORCA program system—Version 5.0
     WIRES Comput. Molec. Sci. 2022 12(1), e1606
     doi.org/10.1002/wcms.1606

List of optional additional citations

  1. Neese, F.
     Approximate second-order SCF convergence for spin unrestricted wavefunctions
     Chem. Phys. Lett. 2000 325(1-3), 93-98
     doi.org/10.1016/s0009-2614(00)00662-x

Timings for individual modules:

Sum of individual times          ...      303.932 sec (=   5.066 min)
Startup calculation              ...       49.142 sec (=   0.819 min)  16.2 %
SCF iterations                   ...      160.682 sec (=   2.678 min)  52.9 %
Property integrals               ...       32.990 sec (=   0.550 min)  10.9 %
SCF Response                     ...        3.763 sec (=   0.063 min)   1.2 %
Property calculations            ...        4.398 sec (=   0.073 min)   1.4 %
SCF Gradient evaluation          ...       52.805 sec (=   0.880 min)  17.4 %
Geometry relaxation              ...        0.152 sec (=   0.003 min)   0.1 %
                             ****ORCA TERMINATED NORMALLY****
TOTAL RUN TIME: 0 days 0 hours 5 minutes 30 seconds 479 msec
