
                                 *****************
                                 * O   R   C   A *
                                 *****************

                                            #,                                       
                                            ###                                      
                                            ####                                     
                                            #####                                    
                                            ######                                   
                                           ########,                                 
                                     ,,################,,,,,                         
                               ,,#################################,,                 
                          ,,##########################################,,             
                       ,#########################################, ''#####,          
                    ,#############################################,,   '####,        
                  ,##################################################,,,,####,       
                ,###########''''           ''''###############################       
              ,#####''   ,,,,##########,,,,          '''####'''          '####       
            ,##' ,,,,###########################,,,                        '##       
           ' ,,###''''                  '''############,,,                           
         ,,##''                                '''############,,,,        ,,,,,,###''
      ,#''                                            '''#######################'''  
     '                                                          ''''####''''         
             ,#######,   #######,   ,#######,      ##                                
            ,#'     '#,  ##    ##  ,#'     '#,    #''#        ,####,    ,#,          
            ##       ##  ##   ,#'  ##            #'  '#       #'       ,# #          
            ##       ##  #######   ##           ,######,      #####,      #          
            '#,     ,#'  ##    ##  '#,     ,#' ,#      #,     #,   #      #          
             '#######'   ##     ##  '#######'  #'      '#     '####' #    #          



                #########################################################
                #                        -***-                          #
                #          Department of theory and spectroscopy        #
                #                                                       #
                #                      Frank Neese                      #
                #                                                       #
                #     Directorship, Architecture, Infrastructure        #
                #                    SHARK, DRIVERS                     #
                #        Core code/Algorithms in most modules           #
                #                                                       #
                #        Max Planck Institute fuer Kohlenforschung      #
                #                Kaiser Wilhelm Platz 1                 #
                #                 D-45470 Muelheim/Ruhr                 #
                #                      Germany                          #
                #                                                       #
                #                  All rights reserved                  #
                #                        -***-                          #
                #########################################################


                         Program Version 6.1.0  -  RELEASE   -
                                (GIT: $679e74b$)
                          ($2025-06-10 18:02:51 +0200$)


 With contributions from (in alphabetic order):
[Max-Planck-Institut fuer Kohlenforschung]                               
  Daniel Aravena         : Magnetic Suceptibility                        
  Michael Atanasov       : Ab Initio Ligand Field Theory (pilot matlab implementation)
  Alexander A. Auer      : GIAO ZORA, VPT2 properties, NMR spectrum      
  Ute Becker             : All parallelization in ORCA, NUMFREQ, NUMCALC 
  Giovanni Bistoni       : ED, misc. LED, open-shell LED, HFLD           
  Dmytro Bykov           : pre 5.0 version of the SCF Hessian            
  Marcos Casanova-Páez   : Triplet and SCS-CIS(D). UHF-(DLPNO)-IP/EA/STEOM-CCSD. UHF-CVS-IP/STEOM-CCSD   
  Vijay G. Chilkuri      : MRCI spin determinant printing, contributions to CSF-ICE 
  Pauline Colinet        : FMM embedding                                 
  Dipayan Datta          : RHF DLPNO-CCSD density                        
  Achintya Kumar Dutta   : EOM-CC, STEOM-CC                              
  Nicolas Foglia         : Exact transition moments, OPA infrastructure, MCD improvements    
  Dmitry Ganyushin       : Spin-Orbit,Spin-Spin,Magnetic field MRCI      
  Miquel Garcia-Rates    : C-PCM and meta-GGA Hessian, CCSD/C-PCM, Gaussian charge scheme 
  Tiago L. C. Gouveia    : GS-ROHF, GS-ROCIS                             
  Yang Guo               : DLPNO-NEVPT2, F12-NEVPT2, CIM, IAO-localization        
  Andreas Hansen         : Spin unrestricted coupled pair/coupled cluster methods 
  Ingolf Harden          : AUTO-CI MPn and infrastructure                
  Benjamin Helmich-Paris : MC-RPA, TRAH-(SCF,CASSCF), AVAS, COSX integrals, SCF dyn. polar., MC-PDFT, srDFT 
  Lee Huntington         : MR-EOM, pCC                                   
  Robert Izsak           : Overlap fitted RIJCOSX, COSX-SCS-MP3, EOM     
  Riya Kayal             : Wick's Theorem for AUTO-CI, AUTO-CI UHF-CCSDT 
  Emily Kempfer          : AUTO-CI RHF CISDT and CCSDT, approximate NEVPT4
  Christian Kollmar      : KDIIS, OOCD, Brueckner-CCSD(T), CCSD density, CASPT2, CASPT2-K, improved NEVPT2 
  Axel Koslowski         : Symmetry handling                             
  Simone Kossmann        : meta-GGA functionals, TD-DFT gradient, OOMP2, (MP2 Hessian; deprecated post 5.0) 
  Lucas Lang             : DCDCAS, Hyperfine gauge corrections, ICE-SOC+SSC
  Marvin Lechner         : AUTO-CI (C++ implementation), FIC-MRCC        
  Spencer Leger          : CASSCF response                               
  Dagmar Lenk            : GEPOL surface, SMD, ORCA-2-JSON               
  Dimitrios Liakos       : Extrapolation schemes; Compound Job, Property file
  Dimitrios Manganas     : Further ROCIS development; embedding schemes. LFT, Crystal Embedding 
  Dimitrios Pantazis     : SARC Basis sets                               
  Anastasios Papadopoulos: AUTO-CI, single reference methods and gradients 
  Taras Petrenko         : pre 6.0 DFT Hessian and TD-DFT gradient,  ECA, NRVS 
  Petra Pikulova         : Analytic Raman intensities                    
  Peter Pinski           : DLPNO-MP2, DLPNO-MP2 Gradient                 
  Shashank Vittal Rao    : ES-AILFT, MagRelax                            
  Christoph Reimann      : Effective Core Potentials                     
  Marius Retegan         : Local ZFS, SOC                                
  Christoph Riplinger    : Optimizer, TS searches, QM/MM, DLPNO-CCSD(T), (RO)-DLPNO pert. Triples 
  Michael Roemelt        : Original ROCIS implementation, recursive CI coupling coefficients
  Masaaki Saitow         : Open-shell DLPNO-CCSD energy and density      
  Barbara Sandhoefer     : DKH picture change effects                    
  Yorick L. A. Schmerwitz: GMF and freeze-and-release deltaSCF, NEB S-IDPP initial path                    
  Kantharuban Sivalingam : CASSCF convergence/infrastructure, NEVPT2, NEVPT3, NEVPT4(SD), FIC-MRCI and CEPA variants
  Bernardo de Souza      : ESD, SOC TD-DFT                               
  Georgi L. Stoychev     : AutoAux, RI-MP2 NMR, DLPNO-MP2 response, X2C  
  Van Anh Tran           : RI-MP2 g-tensors                              
  Willem Van den Heuvel  : Paramagnetic NMR                              
  Zikuan Wang            : NOTCH, Electric field optimization            
  Frank Wennmohs         : Technical directorship and infrastructure     
  Hang Xu                : AUTO-CI-Response properties                   
                                                                         
[FACCTs GmbH]                                                            
  Markus Bursch, Nicolas Foglia, Miquel Garcia-Rates, Ingolf Harden, Hagen Neugebauer, Anastasios Papadopoulos, 
  Christoph Riplinger, Bernardo de Souza, Georgi L. Stoychev                                                    
                                                                 
  APM, various basis sets, CI-OPT, improved COSX, DLPNO-Multilevel,           
  DOCKER, DRACO, updates on ESD, Fragmentator, GOAT, IRC, LR-CPCM, L-BFGS, MBIS, meta-GGA TD-DFT gradient, ML-optimized integration grids, 
  MM, NACMEs, nearIR, NEB, NEB-TS, NL-DFT gradient (VV10), 2- and 3-layer-ONIOM, interface openCOSMO-RS, QMMM,   
  Crystal-QMMM, RESP, rigid body optimization, SF, symmetry and pop. for TD-DFT, various functionals, SOLVATOR                                   
                                                                         
[Other institutions]                                                     
  V. Asgeirsson          : NEB                                           
  Christoph Bannwarth    : sTDA-DFT, sTD-DFT, PBEh-3c, B97-3c, D3        
  Giovanni Bistoni       : ETS/NOCV, ADLD/ADEX, COVALED                  
  Martin Brehm           : Molecular dynamics                            
  Ronald Cardenas        : ETS/NOCV                                      
  Martina Colucci        : COVALED                                       
  Sebastian Ehlert       : rSCAN, r2SCAN, r2SCAN-3c, D4, dhf basis sets  
  Marvin Friede          : D4 for Fr, Ra, Ac-Lr                          
  Lars Goerigk           : TD-DFT with DH, B97 family of functionals     
  Stefan Grimme          : VdW corrections, initial TS optimization, DFT functionals, gCP, sTDA/sTD-DF 
  Waldemar Hujo          : DFT-NL                                        
  H. Jonsson             : NEB                                           
  Holger Kruse           : gCP                                           
  Marcel Mueller         : wB97X-3c, vDZP basis set                      
  Hagen Neugebauer       : wr2SCAN, Native XTB                           
  Gianluca Regni         : ADLD/ADEX                                     
  Tobias Risthaus        : pre 6.0 range-separated hybrid DFT and stability analysis
  Lukas Wittmann         : regularized MP2, r2SCAN double-hybrids, wr2SCAN        
                                                                         
We gratefully acknowledge several colleagues who have allowed us to      
interface, adapt or use parts of their codes:                            
  Ed Valeev, F. Pavosevic, A. Kumar             : LibInt (2-el integral package), F12 methods 
  Garnet Chan, S. Sharma, J. Yang, R. Olivares  : DMRG                   
  Ulf Ekstrom                                   : XCFun DFT Library      
  Mihaly Kallay                                 : mrcc  (arbitrary order and MRCC methods)
  Frank Weinhold                                : gennbo (NPA and NBO analysis)           
  Simon Mueller                                 : openCOSMO-RS                            
  Christopher J. Cramer and Donald G. Truhlar   : smd solvation model                     
  S Lehtola, MJT Oliveira, MAL Marques          : LibXC Library                           
  Liviu Ungur et al                             : ANISO software                          


 Your calculation uses the libint2 library for the computation of 2-el integrals
 For citations please refer to: http://libint.valeyev.net

 Your ORCA version has been built with support for libXC version: 7.0.0
 For citations please refer to: https://libxc.gitlab.io

 This ORCA versions uses:
   CBLAS   interface :  Fast vector & matrix operations
   LAPACKE interface :  Fast linear algebra routines
   SCALAPACK package :  Parallel linear algebra routines
   Shared memory     :  Shared parallel matrices
   BLAS/LAPACK       :  OpenBLAS 0.3.29  USE64BITINT DYNAMIC_ARCH NO_AFFINITY SkylakeX SINGLE_THREADED
        Core in use  :  SkylakeX
   Copyright (c) 2011-2014, The OpenBLAS Project


  ***********************************
  * Starting time: Thu Mar 12 13:12:20 2026
  * Host name:     midway3-login4.rcc.local
  * Process ID:    2962253
  * Working dir.:  /home/rzhu16/orca_TS_search/sn2_cl_f/DFT_test
  ***********************************

Your calculation utilizes the geometrical counterpoise correction gCP
Please cite in your paper:
H.Kruse, S. Grimme J.Chem.Phys., 136, (2012), 154101 
   

Your calculation utilizes the atom-pairwise dispersion correction
based on EEQ partial charges (D4)


================================================================================

----- Orbital basis set information -----
Your calculation utilizes the basis: def2-mTZVPP
   Stefan Grimme, Andreas Hansen, Sebastian Ehlert, and Jan-Michael Mewes 
   J. Chem. Phys. 154, 064103 (2021). DOI: 10.1063/5.0040021

----- AuxJ basis set information -----
Your calculation utilizes the basis: def2-mTZVPP/J
   Stefan Grimme, Andreas Hansen, Sebastian Ehlert, and Jan-Michael Mewes 
   J. Chem. Phys. 154, 000000 (2021). DOI: 10.1063/5.0040021

================================================================================
                                        WARNINGS
                       Please study these warnings very carefully!
================================================================================



WARNING: SCAN, rSCAN, or r2SCAN functional requested.
  ===> : libXC variant has now been activated.



WARNING: Geometry Optimization
  ===> : Switching off AutoStart
         For restart on a previous wavefunction, please use MOREAD

================================================================================
                                       INPUT FILE
================================================================================
NAME = reactant_optfreq.inp
|  1> ! r2SCAN-3c Opt Freq PAL8 TightSCF
|  2> 
|  3> %pal
|  4>    nprocs 8
|  5> end
|  6> 
|  7> %scf
|  8>    MaxIter 150
|  9> end
| 10> 
| 11> * xyz -1 1
| 12>   C      -0.327140      0.191498      0.331640
| 13>   H      -0.422213      1.273864      0.295509
| 14>   H       0.284691     -0.158307     -0.546623
| 15>   H      -1.309069     -0.273406      0.292821
| 16>   Cl      0.373726     -0.212925      1.912330
| 17>   F       0.634156     -0.361820     -2.133062
| 18> *
| 19> 
| 20>                          ****END OF INPUT****
================================================================================

                       *****************************
                       * Geometry Optimization Run *
                       *****************************

Geometry optimization settings:
Update method            Update   .... BFGS
Choice of coordinates    CoordSys .... (2022) Redundant Internals
Initial Hessian          InHess   .... Almloef's Model
Max. no of cycles        MaxIter  .... 50

Convergence Tolerances:
Energy Change            TolE     ....  5.0000e-06 Eh
Max. Gradient            TolMAXG  ....  3.0000e-04 Eh/bohr
RMS Gradient             TolRMSG  ....  1.0000e-04 Eh/bohr
Max. Displacement        TolMAXD  ....  4.0000e-03 bohr
RMS Displacement         TolRMSD  ....  2.0000e-03 bohr
Strict Convergence                .... False

------------------------------------------------------------------------------
                        ORCA OPTIMIZATION COORDINATE SETUP
------------------------------------------------------------------------------

The optimization will be done in redundant internal coordinates (2022)
Making redundant internal coordinates   ...  (2022 redundants) done
Evaluating the initial hessian          ...  (Almloef) done
Evaluating the coordinates              ...  done
Calculating the B-matrix                .... done
Calculating the G-matrix                .... done
The number of degrees of freedom        ....   16

    -----------------------------------------------------------------
                    Redundant Internal Coordinates


    -----------------------------------------------------------------
         Definition                    Initial Value    Approx d2E/dq
    -----------------------------------------------------------------
      1. B(H   1,C   0)                  1.0871         0.363911   
      2. B(H   2,C   0)                  1.1261         0.315404   
      3. B(H   3,C   0)                  1.0871         0.363932   
      4. B(Cl  4,H   2)                  2.4612         0.010000   
      5. B(Cl  4,C   0)                  1.7758         0.339834   
      6. B(F   5,H   2)                  1.6372         0.040149   
      7. A(H   1,C   0,H   3)          110.2181         0.291806   
      8. A(H   1,C   0,H   2)          109.3218         0.285342   
      9. A(H   1,C   0,Cl  4)          106.9087         0.333199   
     10. A(H   2,C   0,Cl  4)          114.1459         0.325418   
     11. A(H   3,C   0,Cl  4)          106.9109         0.333202   
     12. A(H   2,C   0,H   3)          109.2726         0.285345   
     13. A(C   0,H   2,F   5)          155.5546         0.205888   
     14. D(F   5,H   2,C   0,H   3)     59.9803         0.096186   
     15. D(F   5,H   2,C   0,Cl  4)    179.6135         0.096186   
     16. D(F   5,H   2,C   0,H   1)    -60.7210         0.096186   
    -----------------------------------------------------------------

Number of atoms                         .... 6
Number of degrees of freedom            .... 16


         *************************************************************
         *                GEOMETRY OPTIMIZATION CYCLE   1            *
         *************************************************************
---------------------------------
CARTESIAN COORDINATES (ANGSTROEM)
---------------------------------
  C     -0.327140    0.191498    0.331640
  H     -0.422213    1.273864    0.295509
  H      0.284691   -0.158307   -0.546623
  H     -1.309069   -0.273406    0.292821
  Cl     0.373726   -0.212925    1.912330
  F      0.634156   -0.361820   -2.133062

----------------------------
CARTESIAN COORDINATES (A.U.)
----------------------------
  NO LB      ZA    FRAG     MASS         X           Y           Z
   0 C     6.0000    0    12.011   -0.618205    0.361879    0.626709
   1 H     1.0000    0     1.008   -0.797867    2.407254    0.558431
   2 H     1.0000    0     1.008    0.537988   -0.299157   -1.032968
   3 H     1.0000    0     1.008   -2.473782   -0.516662    0.553351
   4 Cl   17.0000    0    35.453    0.706240   -0.402370    3.613780
   5 F     9.0000    0    18.998    1.198381   -0.683741   -4.030903

--------------------------------
INTERNAL COORDINATES (ANGSTROEM)
--------------------------------
 C      0   0   0     0.000000000000     0.00000000     0.00000000
 H      1   0   0     1.087134068294     0.00000000     0.00000000
 H      1   2   0     1.126075755780   109.32176909     0.00000000
 H      1   2   3     1.087118763070   110.21809283   239.87696696
 Cl     1   2   3     1.775767999764   106.90865685   124.03149902
 F      3   1   2     1.637171960460   155.55461425   299.27903750

---------------------------
INTERNAL COORDINATES (A.U.)
---------------------------
 C      0   0   0     0.000000000000     0.00000000     0.00000000
 H      1   0   0     2.054385659932     0.00000000     0.00000000
 H      1   2   0     2.127974784472   109.32176909     0.00000000
 H      1   2   3     2.054356737249   110.21809283   239.87696696
 Cl     1   2   3     3.355715196935   106.90865685   124.03149902
 F      3   1   2     3.093806639404   155.55461425   299.27903750

---------------------
BASIS SET INFORMATION
---------------------
There are 4 groups of distinct atoms

 Group   1 Type C   : 11s6p1d contracted to 5s3p1d pattern {62111/411/1}
 Group   2 Type H   : 4s1p contracted to 2s1p pattern {31/1}
 Group   3 Type Cl  : 14s9p2d contracted to 5s4p2d pattern {73211/6111/11}
 Group   4 Type F   : 11s6p2d contracted to 5s3p2d pattern {62111/411/11}

Atom   0C    basis set group =>   1
Atom   1H    basis set group =>   2
Atom   2H    basis set group =>   2
Atom   3H    basis set group =>   2
Atom   4Cl   basis set group =>   3
Atom   5F    basis set group =>   4
---------------------------------
AUXILIARY/J BASIS SET INFORMATION
---------------------------------
There are 4 groups of distinct atoms

 Group   1 Type C   : 8s3p3d contracted to 6s3p3d pattern {311111/111/111}
 Group   2 Type H   : 5s2p1d contracted to 3s1p1d pattern {311/2/1}
 Group   3 Type Cl  : 14s5p5d2f contracted to 8s4p3d1f pattern {71111111/2111/311/2}
 Group   4 Type F   : 8s3p4d contracted to 6s3p4d pattern {311111/111/1111}

Atom   0C    basis set group =>   1
Atom   1H    basis set group =>   2
Atom   2H    basis set group =>   2
Atom   3H    basis set group =>   2
Atom   4Cl   basis set group =>   3
Atom   5F    basis set group =>   4


           ************************************************************
           *        Program running with 8 parallel MPI-processes     *
           *              working on a common directory               *
           ************************************************************
------------------------------------------------------------------------------
                             ORCA STARTUP CALCULATIONS
                           -- RI-GTO INTEGRALS CHOSEN --
------------------------------------------------------------------------------
------------------------------------------------------------------------------
                   ___                                                        
                  /   \      - P O W E R E D   B Y -                         
                 /     \                                                     
                 |  |  |   _    _      __       _____    __    __             
                 |  |  |  | |  | |    /  \     |  _  \  |  |  /  |          
                  \  \/   | |  | |   /    \    | | | |  |  | /  /          
                 / \  \   | |__| |  /  /\  \   | |_| |  |  |/  /          
                |  |  |   |  __  | /  /__\  \  |    /   |      \           
                |  |  |   | |  | | |   __   |  |    \   |  |\   \          
                \     /   | |  | | |  |  |  |  | |\  \  |  | \   \       
                 \___/    |_|  |_| |__|  |__|  |_| \__\ |__|  \__/        
                                                                              
                      - O R C A' S   B I G   F R I E N D -                    
                                      &                                       
                       - I N T E G R A L  F E E D E R -                       
                                                                              
 v1 FN, 2020, v2 2021, v3 2022-2024                                           
------------------------------------------------------------------------------


----------------------
SHARK INTEGRAL PACKAGE
----------------------

Number of atoms                             ...      6
Number of basis functions                   ...     85
Number of shells                            ...     39
Maximum angular momentum                    ...      2
Integral batch strategy                     ... SHARK/LIBINT Hybrid
RI-J (if used) integral strategy            ... SPLIT-RIJ (Revised 2003 algorithm where possible)
Printlevel                                  ...      1
Contraction scheme used                     ... SEGMENTED contraction
Prescreening option                         ... SCHWARTZ
   Thresh                                   ... 2.500e-11
   Tcut                                     ... 2.500e-12
   Tpresel                                  ... 2.500e-12 
Coulomb Range Separation                    ... NOT USED
Exchange Range Separation                   ... NOT USED
Multipole approximations                    ... NOT USED
Finite Nucleus Model                        ... NOT USED
CABS basis                                  ... NOT available
Auxiliary Coulomb fitting basis             ... AVAILABLE
   # of basis functions in Aux-J            ...    140
   # of shells in Aux-J                     ...     56
   Maximum angular momentum in Aux-J        ...      3
Auxiliary J/K fitting basis                 ... NOT available
Auxiliary Correlation fitting basis         ... NOT available
Auxiliary 'external' fitting basis          ... NOT available

Checking pre-screening integrals            ... done (  0.0 sec) Dimension = 39
   => SHARK Basis and OBASIS are compatible. Storing Pre-screening
Shell pair information
Shell pair cut-off parameter TPreSel        ...   2.5e-12
Total number of shell pairs                 ...       780
Shell pairs after pre-screening             ...       725
Total number of primitive shell pairs       ...      3096
Primitive shell pairs kept                  ...      2250
          la=0 lb=0:    209 shell pairs
          la=1 lb=0:    253 shell pairs
          la=1 lb=1:     88 shell pairs
          la=2 lb=0:     98 shell pairs
          la=2 lb=1:     62 shell pairs
          la=2 lb=2:     15 shell pairs

Checking whether 4 symmetric matrices of dimension 85 fit in memory
:Max Core in MB      =   4096.00
 MB in use           =      2.91
 MB left             =   4093.09
 MB needed           =      0.11
 Data fit in memory  = YES
Calculating RI/J V-Matrix + Cholesky decomp.... done (  0.0 sec)
Calculating Nuclear repulsion               ... done (  0.0 sec) ENN=     87.798448658821 Eh

Diagonalization of the overlap matrix:
Smallest eigenvalue                        ... 5.354e-03
Time for diagonalization                   ...    0.001 sec
Threshold for overlap eigenvalues          ... 1.000e-07
Number of eigenvalues below threshold      ... 0
Time for construction of square roots      ...    0.001 sec
Total time needed                          ...    0.003 sec

-------------------
DFT GRID GENERATION
-------------------

General Integration Accuracy     IntAcc      ... 4.388
Radial Grid Type                 RadialGrid  ... OptM3 with GC (2021)
Angular Grid (max. ang.)         AngularGrid ... 4 (Lebedev-302)
Angular grid pruning method      GridPruning ... 4 (adaptive)
Weight generation scheme         WeightScheme... mBecke (2022)
Basis function cutoff            BFCut       ... 1.0000e-11
Integration weight cutoff        WCut        ... 1.0000e-14
Partially contracted basis set               ... off
Rotationally invariant grid construction     ... off
Angular grids for H and He will be reduced by one unit

Total number of grid points                  ...    29390
Total number of batches                      ...      462
Average number of points per batch           ...       63
Average number of grid points per atom       ...     4898
Grids setup in   0.5 sec
Initializing property integral containers    ... done (  0.0 sec)

SHARK setup successfully completed in   0.7 seconds

Maximum memory used throughout the entire STARTUP-calculation: 9.8 MB


           ************************************************************
           *        Program running with 8 parallel MPI-processes     *
           *              working on a common directory               *
           ************************************************************
-------------------------------------------------------------------------------
                                 ORCA GUESS
                   Start orbitals & Density for SCF / CASSCF
-------------------------------------------------------------------------------

------------
SCF SETTINGS
------------
Hamiltonian:
 Density Functional     Method          .... DFT(GTOs)
  Functional kind                       .... Exchange
  Functional name                       .... Re-regularized SCAN exchange by Furness et al
  Functional family                     .... MGGA
  Functional refs                              
    [ 0] J. W. Furness, A. D. Kaplan, J. Ning, J. P. Perdew, and J. Sun.,  J. Phys. Chem. Lett. 11, 8208-8215 (2020), doi: 10.1021/acs.jpclett.0c02405
    [ 1] J. W. Furness, A. D. Kaplan, J. Ning, J. P. Perdew, and J. Sun.,  J. Phys. Chem. Lett. 11, 9248-9248 (2020), doi: 10.1021/acs.jpclett.0c03077
  Functional external parameters        .... 6
    Parameter  0 _c1        =  6.670000e-01 : c1 parameter        
    Parameter  1 _c2        =  8.000000e-01 : c2 parameter        
    Parameter  2 _d         =  1.240000e+00 : d parameter         
    Parameter  3 _k1        =  6.500000e-02 : k1 parameter        
    Parameter  4 _eta       =  1.000000e-03 : eta parameter       
    Parameter  5 _dp2       =  3.610000e-01 : dp2 parameter       
  Functional kind                       .... Correlation
  Functional name                       .... Re-regularized SCAN correlation by Furness et al
  Functional family                     .... MGGA
  Functional refs                              
    [ 0] J. W. Furness, A. D. Kaplan, J. Ning, J. P. Perdew, and J. Sun.,  J. Phys. Chem. Lett. 11, 8208-8215 (2020), doi: 10.1021/acs.jpclett.0c02405
    [ 1] J. W. Furness, A. D. Kaplan, J. Ning, J. P. Perdew, and J. Sun.,  J. Phys. Chem. Lett. 11, 9248-9248 (2020), doi: 10.1021/acs.jpclett.0c03077
  Functional external parameters        .... 1
    Parameter  0 _eta       =  1.000000e-03 : Regularization parameter
 Gradients option       PostSCFGGA      .... off
 RI-approximation to the Coulomb term is turned on
   Number of AuxJ basis functions       .... 140


General Settings:
 Integral files         IntName         .... reactant_optfreq
 Hartree-Fock type      HFTyp           .... RHF
 Total Charge           Charge          ....   -1
 Multiplicity           Mult            ....    1
 Number of Electrons    NEL             ....   36
 Basis Dimension        Dim             ....   85
 Nuclear Repulsion      ENuc            ....     87.7984486588 Eh

Convergence Acceleration:
 AO-DIIS                CNVDIIS         .... on
   Start iteration      DIISMaxIt       ....    12
   Startup error        DIISStart       ....  0.200000
   # of expansion vecs  DIISMaxEq       ....     5
   Bias factor          DIISBfac        ....   1.050
   Max. coefficient     DIISMaxC        ....  10.000
 MO-DIIS                CNVKDIIS        .... off
 Trust-Rad. Augm. Hess. CNVTRAH         .... auto
   Auto Start mean grad. ratio tolernc. ....  1.125000
   Auto Start start iteration           ....    50
   Auto Start num. interpolation iter.  ....    10
   Max. Number of Micro iterations      ....    24
   Max. Number of Macro iterations      .... Maxiter - #DIIS iter
   Number of Davidson start vectors     ....     2
   Converg. threshold    (grad. norm)   ....   1.000e-05
   Grad. Scal. Fac. for Micro threshold ....   0.100
   Minimum threshold for Micro iter.    ....   1.000e-02
   NR start threshold (gradient norm)   ....   1.000e-04
   Initial trust radius                 ....   0.400
   Minimum AH scaling param. (alpha)    ....   1.000
   Maximum AH scaling param. (alpha)    .... 1000.000
   Quad. conv. algorithm                .... NR
   White noise on init. David. guess    .... on
   Maximum white noise                  ....   0.010
   Pseudo random numbers                .... off
   Inactive MOs                         .... canonical
   Orbital update algorithm             .... Taylor
   Preconditioner                       .... Diag
   Full preconditioner red. dimension   ....   250
   COSX micro iterations for RIJONX calc.... off
 SOSCF                 CNVSOSCF           .... on
   Start iteration     SOSCFMaxIt         ....   150
   Startup grad/error  SOSCFStart         ....  0.003300
   Hessian update      SOSCFHessUp        .... L-BFGS
   Autom. constraints  SOSCFAutoConstrain .... off
 Level Shifting         CNVShift        .... on
   Level shift para.    LevelShift      ....    0.2500
   Turn off err/grad.   ShiftErr        ....    0.0010
 Zerner damping         CNVZerner       .... off
 Static damping         CNVDamp         .... on
   Fraction old density DampFac         ....    0.7000
   Max. Damping (<1)    DampMax         ....    0.9800
   Min. Damping (>=0)   DampMin         ....    0.0000
   Turn off err/grad.   DampErr         ....    0.1000

SCF Procedure:
 Maximum # iterations   MaxIter         ....   150
 SCF integral mode      SCFMode         .... Direct
   Integral package                     .... SHARK and LIBINT hybrid scheme
 Reset frequency        DirectResetFreq ....    20
 Integral Threshold     Thresh          ....  2.500e-11 Eh
 Primitive CutOff       TCut            ....  2.500e-12 Eh

Convergence Tolerance:
 Convergence Check Mode ConvCheckMode   .... Total+1el-Energy
 Convergence forced     ConvForced      .... 0
 Energy Change          TolE            ....  1.000e-08 Eh
 1-El. energy change                    ....  1.000e-05 Eh
 Orbital Gradient       TolG            ....  1.000e-05
 Orbital Rotation angle TolX            ....  1.000e-05
 DIIS Error             TolErr          ....  5.000e-07

------------------------------
INITIAL GUESS: MODEL POTENTIAL
------------------------------
Loading Hartree-Fock densities                     ... done
Calculating cut-offs                               ... done
Initializing the effective Hamiltonian             ... done
Setting up the integral package (SHARK)            ... done
Starting the Coulomb interaction                   ... done (   0.1 sec)
Making the grid                                    ... done (   0.1 sec)
Mapping shells                                     ... done
Starting the XC term evaluation                    ... done (   0.1 sec)
  promolecular density results
     # of electrons  =     34.997825804
     EX              =    -43.291977183
     EC              =     -1.245284348
     EX+EC           =    -44.537261531
Transforming the Hamiltonian                       ... done (   0.0 sec)
Diagonalizing the Hamiltonian                      ... done (   0.0 sec)
Back transforming the eigenvectors                 ... done (   0.0 sec)
Now organizing SCF variables                       ... done
                      ------------------
                      INITIAL GUESS DONE (   0.3 sec)
                      ------------------
             **** ENERGY FILE WAS UPDATED (reactant_optfreq.en.tmp) ****
Finished Guess after   0.8 sec
Maximum memory used throughout the entire GUESS-calculation: 5.2 MB


           ************************************************************
           *        Program running with 8 parallel MPI-processes     *
           *              working on a common directory               *
           ************************************************************

-------------------------------------------------------------------------------------------
                                      ORCA LEAN-SCF
                              memory conserving SCF solver
-------------------------------------------------------------------------------------------

----------------------------------------D-I-I-S--------------------------------------------
Iteration    Energy (Eh)           Delta-E    RMSDP     MaxDP     DIISErr   Damp  Time(sec)
-------------------------------------------------------------------------------------------
               ***  Starting incremental Fock matrix formation  ***
    1    -599.7776227741662751     0.00e+00  1.37e-02  7.29e-02  3.77e-01  0.700   0.4
Warning: op=0 Small HOMO/LUMO gap (   0.098) - skipping pre-diagonalization
         Will do a full diagonalization
    2    -599.8567985254604764    -7.92e-02  9.35e-03  3.23e-02  1.22e-01  0.700   0.4
                               ***Turning on AO-DIIS***
    3    -599.8830686527190892    -2.63e-02  4.00e-03  2.00e-02  2.78e-02  0.700   0.4
    4    -599.8996306412140029    -1.66e-02  6.40e-03  3.70e-02  1.81e-02  0.000   0.4
    5    -599.9382052764970013    -3.86e-02  1.98e-03  9.37e-03  8.76e-03  0.000   0.4
                              *** Initializing SOSCF ***
---------------------------------------S-O-S-C-F--------------------------------------
Iteration    Energy (Eh)           Delta-E    RMSDP     MaxDP     MaxGrad    Time(sec)
--------------------------------------------------------------------------------------
    6    -599.9385831909546596    -3.78e-04  7.70e-04  3.31e-03  2.19e-03     0.3
               *** Restarting incremental Fock matrix formation ***
    7    -599.9386332308507690    -5.00e-05  9.72e-04  4.60e-03  1.08e-03     0.2
    8    -599.9386407771465883    -7.55e-06  2.68e-04  1.55e-03  1.40e-03     0.3
    9    -599.9386484700650044    -7.69e-06  2.74e-04  1.08e-03  6.13e-04     0.3
   10    -599.9386513269772649    -2.86e-06  6.50e-05  4.52e-04  8.32e-05     0.2
   11    -599.9386514733035938    -1.46e-07  2.36e-05  1.43e-04  5.02e-05     0.1
   12    -599.9386515008301330    -2.75e-08  1.27e-05  5.52e-05  2.53e-05     0.3
   13    -599.9386515072570774    -6.43e-09  3.88e-06  2.12e-05  1.26e-05     0.4
                 **** Energy Check signals convergence ****

               *****************************************************
               *                     SUCCESS                       *
               *           SCF CONVERGED AFTER  13 CYCLES          *
               *****************************************************

             **** ENERGY FILE WAS UPDATED (reactant_optfreq.en.tmp) ****

----------------
TOTAL SCF ENERGY
----------------

Total Energy       :       -599.93865150858085 Eh          -16325.16066 eV

Components:
Nuclear Repulsion  :         87.79844865882107 Eh            2389.11725 eV
Electronic Energy  :       -687.73710016740188 Eh          -18714.27791 eV
One Electron Energy:      -1011.28053212746204 Eh          -27518.34228 eV
Two Electron Energy:        323.54343196006022 Eh            8804.06437 eV

Virial components:
Potential Energy   :      -1198.49469403955254 Eh          -32612.69862 eV
Kinetic Energy     :        598.55604253097158 Eh           16287.53796 eV
Virial Ratio       :          2.00230990730920

DFT components:
N(Alpha)           :       17.999994597706 electrons
N(Beta)            :       17.999994597706 electrons
N(Total)           :       35.999989195413 electrons
E(X)               :      -44.143862555760 Eh       
E(C)               :       -1.264835377559 Eh       
E(XC)              :      -45.408697933319 Eh       

---------------
SCF CONVERGENCE
---------------

  Last Energy change         ...    6.4269e-09  Tolerance :   1.0000e-08
  Last MAX-Density change    ...    2.1167e-05  Tolerance :   1.0000e-07
  Last RMS-Density change    ...    3.8812e-06  Tolerance :   5.0000e-09
  Last DIIS Error            ...    2.1854e-03  Tolerance :   5.0000e-07
  Last Orbital Gradient      ...    1.2556e-05  Tolerance :   1.0000e-05
  Last Orbital Rotation      ...    1.3945e-05  Tolerance :   1.0000e-05


----------------
ORBITAL ENERGIES
----------------

  NO   OCC          E(Eh)            E(eV) 
   0   2.0000    -101.041197     -2749.4707 
   1   2.0000     -24.057488      -654.6375 
   2   2.0000      -9.885705      -269.0037 
   3   2.0000      -9.197940      -250.2887 
   4   2.0000      -6.943687      -188.9473 
   5   2.0000      -6.934187      -188.6888 
   6   2.0000      -6.934049      -188.6851 
   7   2.0000      -0.692866       -18.8539 
   8   2.0000      -0.646967       -17.6049 
   9   2.0000      -0.453530       -12.3412 
  10   2.0000      -0.237763        -6.4699 
  11   2.0000      -0.220558        -6.0017 
  12   2.0000      -0.210929        -5.7397 
  13   2.0000      -0.108218        -2.9448 
  14   2.0000      -0.103457        -2.8152 
  15   2.0000       0.023765         0.6467 
  16   2.0000       0.024638         0.6704 
  17   2.0000       0.027061         0.7364 
  18   0.0000       0.185568         5.0496 
  19   0.0000       0.264413         7.1951 
  20   0.0000       0.338075         9.1995 
  21   0.0000       0.347582         9.4582 
  22   0.0000       0.364913         9.9298 
  23   0.0000       0.380078        10.3424 
  24   0.0000       0.421149        11.4600 
  25   0.0000       0.459074        12.4920 
  26   0.0000       0.528167        14.3721 
  27   0.0000       0.536400        14.5962 
  28   0.0000       0.573967        15.6184 
*Only the first 10 virtual orbitals were printed.

                    ********************************
                    * MULLIKEN POPULATION ANALYSIS *
                    ********************************

-----------------------
MULLIKEN ATOMIC CHARGES
-----------------------
   0 C :   -0.388549
   1 H :    0.112658
   2 H :    0.335293
   3 H :    0.112885
   4 Cl:   -0.307152
   5 F :   -0.865136
Sum of atomic charges:   -1.0000000

--------------------------------
MULLIKEN REDUCED ORBITAL CHARGES
--------------------------------
  0 C s       :     3.315752  s :     3.315752
      pz      :     0.872609  p :     3.042080
      px      :     1.106467
      py      :     1.063003
      dz2     :     0.010327  d :     0.030718
      dxz     :     0.006488
      dyz     :     0.004113
      dx2y2   :     0.006535
      dxy     :     0.003254

  1 H s       :     0.868628  s :     0.868628
      pz      :     0.003360  p :     0.018713
      px      :     0.004050
      py      :     0.011303

  2 H s       :     0.638800  s :     0.638800
      pz      :     0.016528  p :     0.025907
      px      :     0.005553
      py      :     0.003826

  3 H s       :     0.868402  s :     0.868402
      pz      :     0.003364  p :     0.018713
      px      :     0.010135
      py      :     0.005214

  4 Cls       :     5.927691  s :     5.927691
      pz      :     3.488653  p :    11.324496
      px      :     3.883100
      py      :     3.952742
      dz2     :     0.020735  d :     0.054965
      dxz     :     0.014263
      dyz     :     0.012127
      dx2y2   :     0.004515
      dxy     :     0.003325

  5 F s       :     3.991020  s :     3.991020
      pz      :     1.917247  p :     5.871904
      px      :     1.974183
      py      :     1.980475
      dz2     :     0.001586  d :     0.002212
      dxz     :     0.000348
      dyz     :     0.000237
      dx2y2   :     0.000021
      dxy     :     0.000020



                     *******************************
                     * LOEWDIN POPULATION ANALYSIS *
                     *******************************

----------------------
LOEWDIN ATOMIC CHARGES
----------------------
   0 C :   -0.488970
   1 H :    0.129264
   2 H :    0.225928
   3 H :    0.129381
   4 Cl:   -0.117696
   5 F :   -0.877907

-------------------------------
LOEWDIN REDUCED ORBITAL CHARGES
-------------------------------
  0 C s       :     3.077076  s :     3.077076
      pz      :     1.014189  p :     3.339805
      px      :     1.166737
      py      :     1.158879
      dz2     :     0.023722  d :     0.072089
      dxz     :     0.014901
      dyz     :     0.008680
      dx2y2   :     0.016723
      dxy     :     0.008062

  1 H s       :     0.826124  s :     0.826124
      pz      :     0.007580  p :     0.044612
      px      :     0.009356
      py      :     0.027677

  2 H s       :     0.687174  s :     0.687174
      pz      :     0.057757  p :     0.086898
      px      :     0.018372
      py      :     0.010769

  3 H s       :     0.826005  s :     0.826005
      pz      :     0.007589  p :     0.044614
      px      :     0.024878
      py      :     0.012148

  4 Cls       :     5.700125  s :     5.700125
      pz      :     3.501500  p :    11.301463
      px      :     3.869664
      py      :     3.930299
      dz2     :     0.048036  d :     0.116108
      dxz     :     0.030612
      dyz     :     0.022853
      dx2y2   :     0.007950
      dxy     :     0.006657

  5 F s       :     3.973065  s :     3.973065
      pz      :     1.919107  p :     5.881131
      px      :     1.977303
      py      :     1.984721
      dz2     :     0.017694  d :     0.023710
      dxz     :     0.004061
      dyz     :     0.001661
      dx2y2   :     0.000133
      dxy     :     0.000162



                      *****************************
                      * MAYER POPULATION ANALYSIS *
                      *****************************

  NA   - Mulliken gross atomic population
  ZA   - Total nuclear charge
  QA   - Mulliken gross atomic charge
  VA   - Mayer's total valence
  BVA  - Mayer's bonded valence
  FA   - Mayer's free valence

  ATOM       NA         ZA         QA         VA         BVA        FA
  0 C      6.3885     6.0000    -0.3885     3.7686     3.7686    -0.0000
  1 H      0.8873     1.0000     0.1127     0.9638     0.9638     0.0000
  2 H      0.6647     1.0000     0.3353     0.9083     0.9083     0.0000
  3 H      0.8871     1.0000     0.1129     0.9638     0.9638    -0.0000
  4 Cl    17.3072    17.0000    -0.3072     0.9266     0.9266    -0.0000
  5 F      9.8651     9.0000    -0.8651     0.2201     0.2201     0.0000

  Mayer bond orders larger than 0.100000
B(  0-C ,  1-H ) :   0.9705 B(  0-C ,  2-H ) :   0.8094 B(  0-C ,  3-H ) :   0.9705 
B(  0-C ,  4-Cl) :   0.9031 B(  0-C ,  5-F ) :   0.1151 

-------
TIMINGS
-------

Total SCF time: 0 days 0 hours 0 min 5 sec 

Total time                  ....       5.195 sec
Sum of individual times     ....       4.858 sec  ( 93.5%)

SCF preparation             ....       0.598 sec  ( 11.5%)
Fock matrix formation       ....       3.290 sec  ( 63.3%)
  Startup                   ....       0.009 sec  (  0.3% of F)
  Split-RI-J                ....       0.994 sec  ( 30.2% of F)
  XC integration            ....       2.439 sec  ( 74.2% of F)
    XC Preparation          ....       0.000 sec  (  0.0% of XC)
    Basis function eval.    ....       0.389 sec  ( 16.0% of XC)
    Density eval.           ....       0.362 sec  ( 14.9% of XC)
    XC-Functional eval.     ....       0.335 sec  ( 13.8% of XC)
    XC-Potential eval.      ....       0.527 sec  ( 21.6% of XC)
Diagonalization             ....       0.000 sec  (  0.0%)
Density matrix formation    ....       0.052 sec  (  1.0%)
Total Energy calculation    ....       0.021 sec  (  0.4%)
Population analysis         ....       0.094 sec  (  1.8%)
Orbital Transformation      ....       0.093 sec  (  1.8%)
Orbital Orthonormalization  ....       0.000 sec  (  0.0%)
DIIS solution               ....       0.499 sec  (  9.6%)
SOSCF solution              ....       0.211 sec  (  4.1%)
Finished LeanSCF after   5.2 sec

Maximum memory used throughout the entire LEANSCF-calculation: 4.8 MB


           ************************************************************
           *        Program running with 8 parallel MPI-processes     *
           *              working on a common directory               *
           ************************************************************

------------------------------------------------------------------------------
                         ORCA PROPERTY INTEGRAL CALCULATIONS
------------------------------------------------------------------------------

GBWName                                   ... reactant_optfreq.gbw
Number of atoms                           ...      6
Number of basis functions                 ...     85
Max core memory                           ...   4096 MB

Dipole integrals                          ... YES
Quadrupole integrals                      ...  NO
Linear momentum integrals                 ...  NO
Angular momentum integrals                ...  NO
Higher moments length integrals           ...  NO
Higher moments velocity integrals         ...  NO
Kinetic energy integrals                  ...  NO
GIAO right hand sides                     ...  NO
GIAO dipole derivative integrals          ...  NO
SOC integrals                             ...  NO
EPR diamagnetic integrals (GIAO)          ...  NO
EPR gauge integrals                       ...  NO
Field gradient integrals                  ...  NO (   0 nuclei)
Spin-dipole/Fermi contact integrals       ...  NO (   0 nuclei)
Contact density integrals                 ...  NO (   0 nuclei)
Nucleus-orbit integrals                   ...  NO (   0 nuclei)
Geometric perturbations                   ...  NO (   6 nuclei)

Choice of electric origin   ... Center of mass
Position of electric origin ... (  0.5415, -0.3066,  0.8512) 
Choice of magnetic origin   ... GIAO
Position of magnetic origin ... (  0.0000,  0.0000,  0.0000) 

Calculating integrals                     ... Electric Dipole (Length)     done (  0.0 sec)

Property integrals calculated in   0.0 sec

Maximum memory used throughout the entire PROPINT-calculation: 5.4 MB


-------------------------------------------------------------------------------
                          DFT DISPERSION CORRECTION                            
                                                                               
                                DFTD4 V3.4.0                                   
-------------------------------------------------------------------------------
The R2SCAN3C composite method is recognized
Using three-body term ABC
Active option DFTDOPT                   ...         5   

-------------------------   ----------------
Dispersion correction           -0.000826061
-------------------------   ----------------

------------------   -----------------
gCP correction             0.006962930
------------------   -----------------

-------------------------   --------------------
FINAL SINGLE POINT ENERGY      -599.932514639632
-------------------------   --------------------



           ************************************************************
           *        Program running with 8 parallel MPI-processes     *
           *              working on a common directory               *
           ************************************************************
------------------------------------------------------------------------------
                         ORCA SCF GRADIENT CALCULATION
------------------------------------------------------------------------------

Nuc. rep. gradient        (SHARK) ... done (  0.0 sec)
HCore & Overlap gradient  (SHARK) ... done (  0.0 sec)
Split-RIJ-J gradient      (SHARK) ... done (  0.3 sec)
XC gradient                       ... done (  0.3 sec)
Dispersion correction             ... done (  0.1 sec)

-------------------
DISPERSION GRADIENT
-------------------

   1   C   :   -0.000008483    0.000004893   -0.000003320
   2   H   :   -0.000001484   -0.000001044    0.000003575
   3   H   :   -0.000002189    0.000001244    0.000000335
   4   H   :    0.000000166    0.000001813    0.000003566
   5   Cl  :    0.000002392   -0.000001391    0.000039441
   6   F   :    0.000009597   -0.000005514   -0.000043597

Difference to translation invariance:
           :   -0.0000000000    0.0000000000    0.0000000000

Difference to rotation invariance:
           :   -0.0000000000    0.0000000000   -0.0000000000

Norm of the Dispersion gradient    ...    0.0000610892
RMS gradient                       ...    0.0000143989
MAX gradient                       ...    0.0000435969
gCP correction                   ... done

------------------
CARTESIAN GRADIENT
------------------

   1   C   :    0.007517722   -0.004348192    0.018424350
   2   H   :    0.001984413   -0.004137806    0.000650637
   3   H   :   -0.002238328    0.001337160    0.007463385
   4   H   :    0.004571823    0.000369807    0.000641241
   5   Cl  :   -0.011469638    0.006604967   -0.025850310
   6   F   :   -0.000365992    0.000174064   -0.001329304

Difference to translation invariance:
           :    0.0000000000   -0.0000000000    0.0000000000

Difference to rotation invariance:
           :    0.0000249674    0.0000178124   -0.0000029595

Norm of the Cartesian gradient     ...    0.0369548376
RMS gradient                       ...    0.0087103387
MAX gradient                       ...    0.0258503101

-------
TIMINGS
-------

Total SCF gradient time     ....        0.699 sec

Densities                   ....       0.000 sec  (  0.0%)
One electron gradient       ....       0.005 sec  (  0.8%)
RI-J Coulomb gradient       ....       0.273 sec  ( 39.0%)
XC gradient                 ....       0.310 sec  ( 44.3%)

Maximum memory used throughout the entire SCFGRAD-calculation: 25.1 MB
------------------------------------------------------------------------------
                         ORCA GEOMETRY RELAXATION STEP
------------------------------------------------------------------------------

Reading the OPT-File                    .... done
Getting information on internals        .... done
Copying old internal coords+grads       .... done
Making the new internal coordinates     .... (2022 redundants) done
Validating the new internal coordinates .... (2022 redundants) done
Calculating the B-matrix                .... done
Calculating the G,G- and P matrices     .... done
Transforming gradient to internals      .... done
Projecting the internal gradient        .... done
Number of atoms                         ....   6
Number of internal coordinates          ....  16
Current Energy                          ....  -599.932514640 Eh
Current gradient norm                   ....     0.036954838 Eh/bohr
Maximum allowed component of the step   ....  0.300
Current trust radius                    ....  0.300
Evaluating the initial hessian          ....  (Almloef) done
Projecting the Hessian                  .... done
Forming the augmented Hessian           .... done
Diagonalizing the augmented Hessian     .... done
Last element of RFO vector              ....  0.992205101
Lowest eigenvalues of augmented Hessian:
 -0.002686881  0.040181033  0.089444988  0.096186004  0.205911661
Length of the computed step             ....  0.125594555
The final length of the internal step   ....  0.125594555
Converting the step to Cartesian space:
 Initial RMS(Int)=    0.0313986388
Transforming coordinates:
 Iter   0:  RMS(Cart)=    0.0201147638 RMS(Int)=    0.0314307134
done
Storing new coordinates                 .... done

                                .--------------------.
          ----------------------|Geometry convergence|-------------------------
          Item                value                   Tolerance       Converged
          ---------------------------------------------------------------------
          RMS gradient        0.0064981673            0.0001000000      NO
          MAX gradient        0.0215912972            0.0003000000      NO
          RMS step            0.0313986388            0.0020000000      NO
          MAX step            0.0863134086            0.0040000000      NO
          -------------------------------------------------------------------------
          ........................................................
          Max(Bonds)      0.0457      Max(Angles)    0.61
          Max(Dihed)        0.24      Max(Improp)    0.00
          ---------------------------------------------------------------------

The optimization has not yet converged - more geometry cycles are needed


    ---------------------------------------------------------------------------
                         Redundant Internal Coordinates
                            (Angstroem and degrees)

        Definition                    Value    dE/dq     Step     New-Value
    ----------------------------------------------------------------------------
     1. B(H   1,C   0)                1.0871 -0.004315  0.0062    1.0934   
     2. B(H   2,C   0)                1.1261 -0.000496  0.0097    1.1358   
     3. B(H   3,C   0)                1.0871 -0.004310  0.0062    1.0933   
     4. B(Cl  4,H   2)                2.4612 -0.008200  0.0457    2.5068   
     5. B(Cl  4,C   0)                1.7758 -0.021591  0.0433    1.8191   
     6. B(F   5,H   2)                1.6372  0.001188 -0.0147    1.6225   
     7. A(H   1,C   0,H   3)          110.22  0.001398   -0.46    109.76   
     8. A(H   1,C   0,H   2)          109.32 -0.001909    0.07    109.39   
     9. A(H   1,C   0,Cl  4)          106.91 -0.002995    0.18    107.09   
    10. A(H   2,C   0,Cl  4)          114.15  0.008418   -0.08    114.07   
    11. A(H   3,C   0,Cl  4)          106.91 -0.002999    0.18    107.09   
    12. A(H   2,C   0,H   3)          109.27 -0.001947    0.08    109.35   
    13. A(C   0,H   2,F   5)          155.55 -0.002219    0.61    156.16   
    14. D(F   5,H   2,C   0,H   3)     59.98 -0.000334   -0.23     59.75   
    15. D(F   5,H   2,C   0,Cl  4)    179.61 -0.000025    0.01    179.62   
    16. D(F   5,H   2,C   0,H   1)    -60.72  0.000325    0.24    -60.48   
    ----------------------------------------------------------------------------

Geometry step timings:
Preparation and reading OPT file:      0.000 s ( 2.913 %)
Internal coordinates            :      0.000 s ( 3.569 %)
B/P matrices and projection     :      0.000 s (10.488 %)
Hessian update/contruction      :      0.000 s (32.484 %)
Making the step                 :      0.000 s (10.124 %)
Converting the step to Cartesian:      0.000 s ( 3.714 %)
Storing new data                :      0.000 s ( 7.647 %)
Checking convergence            :      0.000 s ( 5.098 %)
Final printing                  :      0.000 s (23.379 %)
Total time                      :      0.001 s

Time for energy+gradient        :     10.391 s
Time for complete geometry iter :     11.082 s

         *************************************************************
         *                GEOMETRY OPTIMIZATION CYCLE   2            *
         *************************************************************
---------------------------------
CARTESIAN COORDINATES (ANGSTROEM)
---------------------------------
  C     -0.331123    0.193725    0.326019
  H     -0.431040    1.281932    0.290498
  H      0.283538   -0.157719   -0.562073
  H     -1.320618   -0.269785    0.287935
  Cl     0.393278   -0.224133    1.941492
  F      0.640116   -0.365117   -2.131256

----------------------------
CARTESIAN COORDINATES (A.U.)
----------------------------
  NO LB      ZA    FRAG     MASS         X           Y           Z
   0 C     6.0000    0    12.011   -0.625731    0.366087    0.616087
   1 H     1.0000    0     1.008   -0.814548    2.422501    0.548962
   2 H     1.0000    0     1.008    0.535810   -0.298046   -1.062165
   3 H     1.0000    0     1.008   -2.495606   -0.509820    0.544118
   4 Cl   17.0000    0    35.453    0.743188   -0.423550    3.668887
   5 F     9.0000    0    18.998    1.209643   -0.689970   -4.027490

--------------------------------
INTERNAL COORDINATES (ANGSTROEM)
--------------------------------
 C      0   0   0     0.000000000000     0.00000000     0.00000000
 H      1   0   0     1.093361996407     0.00000000     0.00000000
 H      1   2   0     1.135794821153   109.39140311     0.00000000
 H      1   2   3     1.093340298822   109.76134605   240.01836529
 Cl     1   2   3     1.819096454855   107.08957727   124.09148701
 F      3   1   2     1.622496497818   156.16408990   299.51803264

---------------------------
INTERNAL COORDINATES (A.U.)
---------------------------
 C      0   0   0     0.000000000000     0.00000000     0.00000000
 H      1   0   0     2.066154738447     0.00000000     0.00000000
 H      1   2   0     2.146341156305   109.39140311     0.00000000
 H      1   2   3     2.066113735953   109.76134605   240.01836529
 Cl     1   2   3     3.437594110862   107.08957727   124.09148701
 F      3   1   2     3.066074034123   156.16408990   299.51803264



           ************************************************************
           *        Program running with 8 parallel MPI-processes     *
           *              working on a common directory               *
           ************************************************************
------------------------------------------------------------------------------
                   ___                                                        
                  /   \      - P O W E R E D   B Y -                         
                 /     \                                                     
                 |  |  |   _    _      __       _____    __    __             
                 |  |  |  | |  | |    /  \     |  _  \  |  |  /  |          
                  \  \/   | |  | |   /    \    | | | |  |  | /  /          
                 / \  \   | |__| |  /  /\  \   | |_| |  |  |/  /          
                |  |  |   |  __  | /  /__\  \  |    /   |      \           
                |  |  |   | |  | | |   __   |  |    \   |  |\   \          
                \     /   | |  | | |  |  |  |  | |\  \  |  | \   \       
                 \___/    |_|  |_| |__|  |__|  |_| \__\ |__|  \__/        
                                                                              
                      - O R C A' S   B I G   F R I E N D -                    
                                      &                                       
                       - I N T E G R A L  F E E D E R -                       
                                                                              
 v1 FN, 2020, v2 2021, v3 2022-2024                                           
------------------------------------------------------------------------------


----------------------
SHARK INTEGRAL PACKAGE
----------------------

Number of atoms                             ...      6
Number of basis functions                   ...     85
Number of shells                            ...     39
Maximum angular momentum                    ...      2
Integral batch strategy                     ... SHARK/LIBINT Hybrid
RI-J (if used) integral strategy            ... SPLIT-RIJ (Revised 2003 algorithm where possible)
Printlevel                                  ...      1
Contraction scheme used                     ... SEGMENTED contraction
Prescreening option                         ... SCHWARTZ
   Thresh                                   ... 2.500e-11
   Tcut                                     ... 2.500e-12
   Tpresel                                  ... 2.500e-12 
Coulomb Range Separation                    ... NOT USED
Exchange Range Separation                   ... NOT USED
Multipole approximations                    ... NOT USED
Finite Nucleus Model                        ... NOT USED
CABS basis                                  ... NOT available
Auxiliary Coulomb fitting basis             ... AVAILABLE
   # of basis functions in Aux-J            ...    140
   # of shells in Aux-J                     ...     56
   Maximum angular momentum in Aux-J        ...      3
Auxiliary J/K fitting basis                 ... NOT available
Auxiliary Correlation fitting basis         ... NOT available
Auxiliary 'external' fitting basis          ... NOT available

Checking pre-screening integrals            ... done (  0.0 sec) Dimension = 39
   => SHARK Basis and OBASIS are compatible. Storing Pre-screening
Shell pair information
Shell pair cut-off parameter TPreSel        ...   2.5e-12
Total number of shell pairs                 ...       780
Shell pairs after pre-screening             ...       725
Total number of primitive shell pairs       ...      3096
Primitive shell pairs kept                  ...      2246
          la=0 lb=0:    209 shell pairs
          la=1 lb=0:    253 shell pairs
          la=1 lb=1:     88 shell pairs
          la=2 lb=0:     98 shell pairs
          la=2 lb=1:     62 shell pairs
          la=2 lb=2:     15 shell pairs

Checking whether 4 symmetric matrices of dimension 85 fit in memory
:Max Core in MB      =   4096.00
 MB in use           =      2.97
 MB left             =   4093.03
 MB needed           =      0.11
 Data fit in memory  = YES
Calculating RI/J V-Matrix + Cholesky decomp.... done (  0.0 sec)
Calculating Nuclear repulsion               ... done (  0.0 sec) ENN=     86.698329007920 Eh

Diagonalization of the overlap matrix:
Smallest eigenvalue                        ... 5.509e-03
Time for diagonalization                   ...    0.001 sec
Threshold for overlap eigenvalues          ... 1.000e-07
Number of eigenvalues below threshold      ... 0
Time for construction of square roots      ...    0.001 sec
Total time needed                          ...    0.002 sec

-------------------
DFT GRID GENERATION
-------------------

General Integration Accuracy     IntAcc      ... 4.388
Radial Grid Type                 RadialGrid  ... OptM3 with GC (2021)
Angular Grid (max. ang.)         AngularGrid ... 4 (Lebedev-302)
Angular grid pruning method      GridPruning ... 4 (adaptive)
Weight generation scheme         WeightScheme... mBecke (2022)
Basis function cutoff            BFCut       ... 1.0000e-11
Integration weight cutoff        WCut        ... 1.0000e-14
Partially contracted basis set               ... off
Rotationally invariant grid construction     ... off
Angular grids for H and He will be reduced by one unit

Total number of grid points                  ...    29397
Total number of batches                      ...      463
Average number of points per batch           ...       63
Average number of grid points per atom       ...     4900
Grids setup in   0.4 sec
Initializing property integral containers    ... done (  0.0 sec)

SHARK setup successfully completed in   0.6 seconds

Maximum memory used throughout the entire STARTUP-calculation: 9.9 MB


           ************************************************************
           *        Program running with 8 parallel MPI-processes     *
           *              working on a common directory               *
           ************************************************************
Occupation numbers will be reassigned to an Aufbau configuration
             **** ENERGY FILE WAS UPDATED (reactant_optfreq.en.tmp) ****
Finished Guess after   0.2 sec
Maximum memory used throughout the entire GUESS-calculation: 5.3 MB


           ************************************************************
           *        Program running with 8 parallel MPI-processes     *
           *              working on a common directory               *
           ************************************************************
----------------------------------------D-I-I-S--------------------------------------------
Iteration    Energy (Eh)           Delta-E    RMSDP     MaxDP     DIISErr   Damp  Time(sec)
-------------------------------------------------------------------------------------------
               ***  Starting incremental Fock matrix formation  ***
    1    -599.9396360139808166     0.00e+00  3.98e-04  1.81e-03  9.49e-03  0.700   0.4
    2    -599.9397827527495792    -1.47e-04  3.70e-04  1.57e-03  6.42e-03  0.700   0.4
                               ***Turning on AO-DIIS***
    3    -599.9398831584452410    -1.00e-04  2.94e-04  1.29e-03  4.08e-03  0.700   0.4
                              *** Initializing SOSCF ***
---------------------------------------S-O-S-C-F--------------------------------------
Iteration    Energy (Eh)           Delta-E    RMSDP     MaxDP     MaxGrad    Time(sec)
--------------------------------------------------------------------------------------
    4    -599.9399525061265877    -6.93e-05  7.40e-04  3.50e-03  3.11e-03     0.5
               *** Restarting incremental Fock matrix formation ***
    5    -599.9401156162554116    -1.63e-04  1.68e-04  6.59e-04  3.37e-04     0.4
    6    -599.9401137977486087     1.82e-06  8.81e-05  4.35e-04  6.25e-04     0.3
    7    -599.9401171654054679    -3.37e-06  1.67e-05  1.32e-04  2.48e-05     0.4
    8    -599.9401171589910291     6.41e-09  9.06e-06  5.14e-05  4.37e-05     0.4
                 **** Energy Check signals convergence ****

               *****************************************************
               *                     SUCCESS                       *
               *           SCF CONVERGED AFTER   8 CYCLES          *
               *****************************************************

             **** ENERGY FILE WAS UPDATED (reactant_optfreq.en.tmp) ****

----------------
TOTAL SCF ENERGY
----------------

Total Energy       :       -599.94011717419653 Eh          -16325.20055 eV

Components:
Nuclear Repulsion  :         86.69832900792038 Eh            2359.18147 eV
Electronic Energy  :       -686.63844618211692 Eh          -18684.38202 eV
One Electron Energy:      -1009.09646263522495 Eh          -27458.91073 eV
Two Electron Energy:        322.45801645310797 Eh            8774.52872 eV

Virial components:
Potential Energy   :      -1198.40883251094237 Eh          -32610.36221 eV
Kinetic Energy     :        598.46871533674596 Eh           16285.16167 eV
Virial Ratio       :          2.00245861111825

DFT components:
N(Alpha)           :       17.999994088441 electrons
N(Beta)            :       17.999994088441 electrons
N(Total)           :       35.999988176882 electrons
E(X)               :      -44.122186451978 Eh       
E(C)               :       -1.263228125851 Eh       
E(XC)              :      -45.385414577829 Eh       

---------------
SCF CONVERGENCE
---------------

  Last Energy change         ...   -6.4144e-09  Tolerance :   1.0000e-08
  Last MAX-Density change    ...    5.1424e-05  Tolerance :   1.0000e-07
  Last RMS-Density change    ...    9.0563e-06  Tolerance :   5.0000e-09
  Last DIIS Error            ...    3.1135e-03  Tolerance :   5.0000e-07
  Last Orbital Gradient      ...    4.3688e-05  Tolerance :   1.0000e-05
  Last Orbital Rotation      ...    2.3178e-05  Tolerance :   1.0000e-05


Total SCF time: 0 days 0 hours 0 min 4 sec 
Finished LeanSCF after   4.3 sec

Maximum memory used throughout the entire LEANSCF-calculation: 4.8 MB


           ************************************************************
           *        Program running with 8 parallel MPI-processes     *
           *              working on a common directory               *
           ************************************************************

------------------------------------------------------------------------------
                         ORCA PROPERTY INTEGRAL CALCULATIONS
------------------------------------------------------------------------------

GBWName                                   ... reactant_optfreq.gbw
Number of atoms                           ...      6
Number of basis functions                 ...     85
Max core memory                           ...   4096 MB

Dipole integrals                          ... YES
Quadrupole integrals                      ...  NO
Linear momentum integrals                 ...  NO
Angular momentum integrals                ...  NO
Higher moments length integrals           ...  NO
Higher moments velocity integrals         ...  NO
Kinetic energy integrals                  ...  NO
GIAO right hand sides                     ...  NO
GIAO dipole derivative integrals          ...  NO
SOC integrals                             ...  NO
EPR diamagnetic integrals (GIAO)          ...  NO
EPR gauge integrals                       ...  NO
Field gradient integrals                  ...  NO (   0 nuclei)
Spin-dipole/Fermi contact integrals       ...  NO (   0 nuclei)
Contact density integrals                 ...  NO (   0 nuclei)
Nucleus-orbit integrals                   ...  NO (   0 nuclei)
Geometric perturbations                   ...  NO (   6 nuclei)

Choice of electric origin   ... Center of mass
Position of electric origin ... (  0.5615, -0.3180,  0.8777) 
Choice of magnetic origin   ... GIAO
Position of magnetic origin ... (  0.0000,  0.0000,  0.0000) 

Calculating integrals                     ... Electric Dipole (Length)     done (  0.0 sec)

Property integrals calculated in   0.0 sec

Maximum memory used throughout the entire PROPINT-calculation: 5.4 MB


-------------------------------------------------------------------------------
                          DFT DISPERSION CORRECTION                            
                                                                               
                                DFTD4 V3.4.0                                   
-------------------------------------------------------------------------------
-------------------------   ----------------
Dispersion correction           -0.000823701
-------------------------   ----------------

------------------   -----------------
gCP correction             0.006568201
------------------   -----------------

-------------------------   --------------------
FINAL SINGLE POINT ENERGY      -599.934372674127
-------------------------   --------------------



           ************************************************************
           *        Program running with 8 parallel MPI-processes     *
           *              working on a common directory               *
           ************************************************************
------------------------------------------------------------------------------
                         ORCA SCF GRADIENT CALCULATION
------------------------------------------------------------------------------

Nuc. rep. gradient        (SHARK) ... done (  0.0 sec)
HCore & Overlap gradient  (SHARK) ... done (  0.0 sec)
Split-RIJ-J gradient      (SHARK) ... done (  0.5 sec)
XC gradient                       ... done (  0.4 sec)
Dispersion correction             ... done (  0.3 sec)

-------------------
DISPERSION GRADIENT
-------------------

   1   C   :   -0.000008094    0.000004669   -0.000003738
   2   H   :   -0.000001618   -0.000001241    0.000003291
   3   H   :   -0.000002991    0.000001704    0.000001355
   4   H   :    0.000000267    0.000002028    0.000003284
   5   Cl  :    0.000002761   -0.000001603    0.000039680
   6   F   :    0.000009676   -0.000005557   -0.000043873

Difference to translation invariance:
           :    0.0000000000    0.0000000000   -0.0000000000

Difference to rotation invariance:
           :    0.0000000000    0.0000000000   -0.0000000000

Norm of the Dispersion gradient    ...    0.0000614734
RMS gradient                       ...    0.0000144894
MAX gradient                       ...    0.0000438728
gCP correction                   ... done

------------------
CARTESIAN GRADIENT
------------------

   1   C   :    0.004661836   -0.002730800    0.012403874
   2   H   :    0.000315744   -0.000071940   -0.001752220
   3   H   :   -0.001312948    0.000820446    0.004148673
   4   H   :    0.000226079   -0.000232299   -0.001766888
   5   Cl  :   -0.003969978    0.002298558   -0.010948533
   6   F   :    0.000079267   -0.000083965   -0.002084906

Difference to translation invariance:
           :    0.0000000000   -0.0000000000    0.0000000000

Difference to rotation invariance:
           :   -0.0000153462    0.0000390372    0.0000189854

Norm of the Cartesian gradient     ...    0.0188236889
RMS gradient                       ...    0.0044367860
MAX gradient                       ...    0.0124038736

-------
TIMINGS
-------

Total SCF gradient time     ....        1.213 sec

Densities                   ....       0.000 sec  (  0.0%)
One electron gradient       ....       0.008 sec  (  0.7%)
RI-J Coulomb gradient       ....       0.493 sec  ( 40.6%)
XC gradient                 ....       0.409 sec  ( 33.7%)

Maximum memory used throughout the entire SCFGRAD-calculation: 25.1 MB
------------------------------------------------------------------------------
                         ORCA GEOMETRY RELAXATION STEP
------------------------------------------------------------------------------

Reading the OPT-File                    .... done
Getting information on internals        .... done
Copying old internal coords+grads       .... done
Making the new internal coordinates     .... (2022 redundants) done
Validating the new internal coordinates .... (2022 redundants) done
Calculating the B-matrix                .... done
Calculating the G,G- and P matrices     .... done
Transforming gradient to internals      .... done
Projecting the internal gradient        .... done
Number of atoms                         ....   6
Number of internal coordinates          ....  16
Current Energy                          ....  -599.934372674 Eh
Current gradient norm                   ....     0.018823689 Eh/bohr
Maximum allowed component of the step   ....  0.300
Current trust radius                    ....  0.300
Updating the Hessian (BFGS)             .... done
Forming the augmented Hessian           .... done
Diagonalizing the augmented Hessian     .... done
Last element of RFO vector              ....  0.991199938
Lowest eigenvalues of augmented Hessian:
 -0.001103125  0.036706363  0.072516733  0.096186020  0.201191127
Length of the computed step             ....  0.133548509
The final length of the internal step   ....  0.133548509
Converting the step to Cartesian space:
 Initial RMS(Int)=    0.0333871273
Transforming coordinates:
 Iter   0:  RMS(Cart)=    0.0194564303 RMS(Int)=    0.0333893155
done
Storing new coordinates                 .... done
The predicted energy change is          ....    -0.000561400
Previously predicted energy change      ....    -0.001364632
Actually observed energy change         ....    -0.001858034
Ratio of predicted to observed change   ....     1.361564559
New trust radius                        ....     0.300000000

                                .--------------------.
          ----------------------|Geometry convergence|-------------------------
          Item                value                   Tolerance       Converged
          ---------------------------------------------------------------------
          Energy change      -0.0018580345            0.0000050000      NO
          RMS gradient        0.0027131080            0.0001000000      NO
          MAX gradient        0.0085325097            0.0003000000      NO
          RMS step            0.0333871273            0.0020000000      NO
          MAX step            0.0850010901            0.0040000000      NO
          -------------------------------------------------------------------------
          ........................................................
          Max(Bonds)      0.0450      Max(Angles)    0.67
          Max(Dihed)        0.23      Max(Improp)    0.00
          ---------------------------------------------------------------------

The optimization has not yet converged - more geometry cycles are needed


    ---------------------------------------------------------------------------
                         Redundant Internal Coordinates
                            (Angstroem and degrees)

        Definition                    Value    dE/dq     Step     New-Value
    ----------------------------------------------------------------------------
     1. B(H   1,C   0)                1.0934 -0.000043  0.0010    1.0943   
     2. B(H   2,C   0)                1.1358  0.000206  0.0073    1.1431   
     3. B(H   3,C   0)                1.0933 -0.000044  0.0010    1.0943   
     4. B(Cl  4,H   2)                2.5068 -0.003624  0.0386    2.5455   
     5. B(Cl  4,C   0)                1.8191 -0.008533  0.0353    1.8544   
     6. B(F   5,H   2)                1.6225  0.002044 -0.0450    1.5775   
     7. A(H   1,C   0,H   3)          109.76  0.000650   -0.28    109.48   
     8. A(H   1,C   0,H   2)          109.39 -0.002563    0.64    110.03   
     9. A(H   1,C   0,Cl  4)          107.09  0.000904   -0.57    106.52   
    10. A(H   2,C   0,Cl  4)          114.07  0.002805    0.09    114.15   
    11. A(H   3,C   0,Cl  4)          107.09  0.000915   -0.58    106.52   
    12. A(H   2,C   0,H   3)          109.35 -0.002582    0.64    109.99   
[...]
Rotational constants in MHz :         29937.446525          2565.664908          2399.231813 

Dipole components along the rotational axes: 
x,y,z [a.u.] :     2.512493     0.665978    -0.000003 
x,y,z [Debye]:     6.386250     1.692781    -0.000007 

 

Dipole moment calculation done in   0.0 sec 

-----------
SCF HESSIAN
-----------

Occupied/Occupied contributions to the Hessian:
   => Occupied/Occupied contributions              ... done (  0.0 sec)
Perturbed density contributions to the Hessian:
   => Perturbed density contributions              ... done (  0.0 sec)
Explicit contributions to the Hessian:
   => Nuclear repulsion Hessian                    ... done (  0.0 sec)
   => HCore and overlap Hessian                    ... done (  0.3 sec)
   => RI-J Hessian                                 ... done (  0.8 sec)
   => XC-Hessian                                   ... done (  4.5 sec)
   => Van der Waals-Hessian                        ... done (  0.8 sec)
   => GCP-Hessian                                  ... done (  0.0 sec)
   => Explicit contributions done
Dipole derivatives                                 ... done (  0.0 sec)
Mass weighting the Hessian           ... done
Calculating normal modes             ... done
Scaling frequencies                  ... done

-----------------------
VIBRATIONAL FREQUENCIES
-----------------------

Scaling factor for frequencies =  1.000000000  (already applied!)

     0:       0.00 cm**-1
     1:       0.00 cm**-1
     2:       0.00 cm**-1
     3:       0.00 cm**-1
     4:       0.00 cm**-1
     5:       0.00 cm**-1
     6:      94.40 cm**-1
     7:     313.06 cm**-1
     8:     329.29 cm**-1
     9:     572.92 cm**-1
    10:     994.79 cm**-1
    11:    1062.74 cm**-1
    12:    1391.03 cm**-1
    13:    1452.40 cm**-1
    14:    1522.94 cm**-1
    15:    2082.69 cm**-1
    16:    3042.52 cm**-1
    17:    3114.54 cm**-1


------------
NORMAL MODES
------------

These modes are the Cartesian displacements weighted by the diagonal matrix
M(i,i)=1/sqrt(m[i]) where m[i] is the mass of the displaced atom
Thus, these vectors are normalized but *not* orthogonal

                  0          1          2          3          4          5    
      0       0.000000   0.000000   0.000000   0.000000   0.000000   0.000000
      1       0.000000   0.000000   0.000000   0.000000   0.000000   0.000000
      2       0.000000   0.000000   0.000000   0.000000   0.000000   0.000000
      3       0.000000   0.000000   0.000000   0.000000   0.000000   0.000000
      4       0.000000   0.000000   0.000000   0.000000   0.000000   0.000000
      5       0.000000   0.000000   0.000000   0.000000   0.000000   0.000000
      6       0.000000   0.000000   0.000000   0.000000   0.000000   0.000000
      7       0.000000   0.000000   0.000000   0.000000   0.000000   0.000000
      8       0.000000   0.000000   0.000000   0.000000   0.000000   0.000000
      9       0.000000   0.000000   0.000000   0.000000   0.000000   0.000000
     10       0.000000   0.000000   0.000000   0.000000   0.000000   0.000000
     11       0.000000   0.000000   0.000000   0.000000   0.000000   0.000000
     12       0.000000   0.000000   0.000000   0.000000   0.000000   0.000000
     13       0.000000   0.000000   0.000000   0.000000   0.000000   0.000000
     14       0.000000   0.000000   0.000000   0.000000   0.000000   0.000000
     15       0.000000   0.000000   0.000000   0.000000   0.000000   0.000000
     16       0.000000   0.000000   0.000000   0.000000   0.000000   0.000000
     17       0.000000   0.000000   0.000000   0.000000   0.000000   0.000000
                  6          7          8          9         10         11    
      0       0.334374  -0.278001   0.052422   0.266134  -0.068088  -0.043201
      1      -0.192740   0.153885   0.096913  -0.153118   0.039179  -0.075159
      2      -0.072417   0.256304   0.002376   0.531635   0.024436  -0.000075
      3       0.329756  -0.219489  -0.529362   0.212180   0.071343   0.329297
      4      -0.188973   0.149607   0.030467  -0.141137   0.063587  -0.073708
      5      -0.251693   0.335145   0.308626   0.151731  -0.533846   0.597966
      6       0.398714  -0.374053   0.241098   0.142012   0.258509   0.108953
      7      -0.232180   0.188827   0.427811  -0.081352  -0.148935   0.189338
      8       0.047401   0.315759   0.002951   0.604701   0.562266   0.000631
      9       0.326791  -0.266526   0.289179   0.229369  -0.017991  -0.229417
     10      -0.185631   0.154416  -0.439399  -0.113155  -0.093738   0.248362
     11      -0.248382   0.362776  -0.302531   0.150521  -0.533183  -0.598855
     12      -0.085366   0.030625  -0.007152  -0.103134   0.018211   0.009677
     13       0.049038  -0.016847  -0.013008   0.059367  -0.010479   0.016808
     14       0.236860   0.060735   0.000795  -0.200739   0.002809   0.000035
     15      -0.108084   0.164243  -0.019845  -0.006755  -0.007485  -0.001827
     16       0.062538  -0.092000  -0.037997   0.003827   0.004288  -0.003161
     17      -0.372213  -0.329166  -0.003465  -0.009626   0.006091  -0.000005
                 12         13         14         15         16         17    
      0      -0.050498  -0.034681   0.032898  -0.055139  -0.058093  -0.047599
      1       0.029103   0.019560   0.057570   0.031509   0.033569  -0.082636
      2      -0.077737   0.051149   0.000322   0.071987   0.009873  -0.000074
      3       0.441809   0.537576  -0.155145   0.021500   0.037567  -0.066334
      4       0.025365   0.067027   0.003662   0.083790  -0.703846   0.697595
      5       0.399539  -0.197124   0.301693  -0.003101  -0.032534   0.044879
      6       0.275050  -0.369217  -0.435935   0.686714   0.030916  -0.012836
      7      -0.159127   0.215353  -0.757157  -0.392993  -0.017645  -0.022374
      8       0.423172  -0.388224  -0.002675  -0.591395  -0.047997   0.000036
      9       0.200454   0.212544   0.082517  -0.061493   0.624302   0.638537
     10      -0.395018  -0.496471  -0.134267  -0.060465   0.321281   0.295830
     11       0.398313  -0.195810  -0.303726  -0.002873  -0.031407  -0.044074
     12      -0.006599  -0.001306   0.000955   0.000494   0.000000   0.000143
     13       0.003806   0.000749   0.001652  -0.000278  -0.000002   0.000249
     14      -0.009059   0.004125   0.000016  -0.002927  -0.000235   0.000001
     15      -0.004430   0.004153   0.004402  -0.000375  -0.000030   0.000147
     16       0.002554  -0.002404   0.007624   0.000212   0.000016   0.000257
     17       0.001268   0.001411   0.000017  -0.008355   0.000136  -0.000000


-----------
IR SPECTRUM
-----------

 Mode   freq       eps      Int      T**2         TX        TY        TZ
       cm**-1   L/(mol*cm) km/mol    a.u.
----------------------------------------------------------------------------
  6:     94.40   0.002052   10.37  0.006783  ( 0.024014 -0.013896  0.077543)
  7:    313.06   0.041073  207.56  0.040942  (-0.069130  0.039462  0.186026)
  8:    329.29   0.000078    0.40  0.000074  ( 0.002435  0.007315  0.003833)
  9:    572.92   0.033401  168.80  0.018193  ( 0.009936 -0.005756  0.134393)
 10:    994.79   0.027737  140.17  0.008701  (-0.016967  0.009675  0.091212)
 11:   1062.74   0.000239    1.21  0.000070  ( 0.004126  0.007284  0.000182)
 12:   1391.03   0.008292   41.91  0.001860  (-0.027530  0.015767  0.029220)
 13:   1452.40   0.012770   64.53  0.002744  ( 0.022101 -0.012598 -0.045789)
 14:   1522.94   0.002713   13.71  0.000556  (-0.011558 -0.020549 -0.000350)
 15:   2082.69   0.273245  1380.87  0.040942  ( 0.069432 -0.039847 -0.185832)
 16:   3042.52   0.007525   38.03  0.000772  (-0.018309  0.010588 -0.018015)
 17:   3114.54   0.005898   29.81  0.000591  (-0.012087 -0.021091  0.000032)

* The epsilon (eps) is given for a Dirac delta lineshape.
** The dipole moment derivative (T) already includes vibrational overlap.

The first frequency considered to be a vibration is 6
The total number of vibrations considered is 12


--------------------------
THERMOCHEMISTRY AT 298.15K
--------------------------

Temperature         ...   298.15 K
Pressure            ...     1.00 atm
Total Mass          ...    69.49 AMU
Quasi RRHO          ...     True
Cut-Off Frequency   ...     1.00 cm^-1

Throughout the following assumptions are being made:
  (1) The electronic state is orbitally nondegenerate
  (2) There are no thermally accessible electronically excited states
  (3) Hindered rotations indicated by low frequency modes are not
      treated as such but are treated as vibrations and this may
      cause some error
  (4) All equations used are the standard statistical mechanics
      equations for an ideal gas
  (5) All vibrations are strictly harmonic

freq.      94.40  E(vib)   ...       0.47 
freq.     313.06  E(vib)   ...       0.25 
freq.     329.29  E(vib)   ...       0.24 
freq.     572.92  E(vib)   ...       0.11 
freq.     994.79  E(vib)   ...       0.02 
freq.    1062.74  E(vib)   ...       0.02 
freq.    1391.03  E(vib)   ...       0.00 
freq.    1452.40  E(vib)   ...       0.00 
freq.    1522.94  E(vib)   ...       0.00 
freq.    2082.69  E(vib)   ...       0.00 
freq.    3042.52  E(vib)   ...       0.00 
freq.    3114.54  E(vib)   ...       0.00 

------------
INNER ENERGY
------------

The inner energy is: U= E(el) + E(ZPE) + E(vib) + E(rot) + E(trans)
    E(el)   - is the total energy from the electronic structure calculation
              = E(kin-el) + E(nuc-el) + E(el-el) + E(nuc-nuc)
    E(ZPE)  - the the zero temperature vibrational energy from the frequency calculation
    E(vib)  - the the finite temperature correction to E(ZPE) due to population
              of excited vibrational states
    E(rot)  - is the rotational thermal energy
    E(trans)- is the translational thermal energy

Summary of contributions to the inner energy U:
Electronic energy                ...   -599.93558264 Eh
Zero point energy                ...      0.03638991 Eh      22.83 kcal/mol
Thermal vibrational correction   ...      0.00179489 Eh       1.13 kcal/mol
Thermal rotational correction    ...      0.00141627 Eh       0.89 kcal/mol
Thermal translational correction ...      0.00141627 Eh       0.89 kcal/mol
-----------------------------------------------------------------------
Total thermal energy                   -599.89456530 Eh


Summary of corrections to the electronic energy:
(perhaps to be used in another calculation)
Total thermal correction                  0.00462744 Eh       2.90 kcal/mol
Non-thermal (ZPE) correction              0.03638991 Eh      22.83 kcal/mol
-----------------------------------------------------------------------
Total correction                          0.04101735 Eh      25.74 kcal/mol


--------
ENTHALPY
--------

The enthalpy is H = U + kB*T
                kB is Boltzmann's constant
Total thermal energy              ...   -599.89456530 Eh 
Thermal Enthalpy correction       ...      0.00094421 Eh       0.59 kcal/mol
-----------------------------------------------------------------------
Total Enthalpy                    ...   -599.89362109 Eh


Note: Only C1 symmetry has been detected, increase convergence thresholds 
      if your molecule has a higher symmetry. Symmetry factor of 1.0 is   
      used for the rotational entropy correction. 
 

Note: Rotational entropy computed according to Herzberg 
Infrared and Raman Spectra, Chapter V,1, Van Nostrand Reinhold, 1945 
Point Group:  C1, Symmetry Number:   1  
Rotational constants in cm-1:     0.998607     0.085581     0.080030 

Vibrational entropy computed according to the QRRHO of S. Grimme
Chem.Eur.J. 2012 18 9955 using a reference frequency of 100.0 cm-1


-------
ENTROPY
-------

The entropy contributions are T*S = T*(S(el)+S(vib)+S(rot)+S(trans))
     S(el)   - electronic entropy
     S(vib)  - vibrational entropy
     S(rot)  - rotational entropy
     S(trans)- translational entropy
The entropies will be listed as multiplied by the temperature to get
units of energy

Electronic entropy                ...      0.00000000 Eh      0.00 kcal/mol
Vibrational entropy               ...      0.00310289 Eh      1.95 kcal/mol
Rotational entropy                ...      0.01186420 Eh      7.44 kcal/mol
Translational entropy             ...      0.01835566 Eh     11.52 kcal/mol
-----------------------------------------------------------------------
Final entropy term                ...      0.03332274 Eh     20.91 kcal/mol

In case the symmetry of your molecule has not been determined correctly
or in case you have a reason to use a different symmetry number we print 
out the resulting rotational entropy values for sn=1,12:

 non-linear molecules -----------------------------------
|  sn= 1 | S(rot)=       0.01186420 Eh      7.44 kcal/mol|
|  sn= 2 | S(rot)=       0.01120974 Eh      7.03 kcal/mol|
|  sn= 3 | S(rot)=       0.01082691 Eh      6.79 kcal/mol|
|  sn= 4 | S(rot)=       0.01055529 Eh      6.62 kcal/mol|
|  sn= 5 | S(rot)=       0.01034460 Eh      6.49 kcal/mol|
|  sn= 6 | S(rot)=       0.01017245 Eh      6.38 kcal/mol|
|  sn= 7 | S(rot)=       0.01002691 Eh      6.29 kcal/mol|
|  sn= 8 | S(rot)=       0.00990083 Eh      6.21 kcal/mol|
|  sn= 9 | S(rot)=       0.00978962 Eh      6.14 kcal/mol|
|  sn=10 | S(rot)=       0.00969014 Eh      6.08 kcal/mol|
|  sn=11 | S(rot)=       0.00960015 Eh      6.02 kcal/mol|
|  sn=12 | S(rot)=       0.00951800 Eh      5.97 kcal/mol|
 linear molecules ---------------------------------------
|  Dinfh | S(rot)=       0.00771020 Eh      4.84 kcal/mol|
|  Cinfv | S(rot)=       0.00836466 Eh      5.25 kcal/mol|
 --------------------------------------------------------


-------------------
GIBBS FREE ENERGY
-------------------

The Gibbs free energy is G = H - T*S

Total enthalpy                    ...   -599.89362109 Eh 
Total entropy correction          ...     -0.03332274 Eh    -20.91 kcal/mol
-----------------------------------------------------------------------
Final Gibbs free energy         ...   -599.92694383 Eh

For completeness - the Gibbs free energy minus the electronic energy
G-E(el)                           ...      0.00863881 Eh      5.42 kcal/mol


Maximum memory used throughout the entire PROP-calculation: 25.2 MB

--------------------------------
SUGGESTED CITATIONS FOR THIS RUN
--------------------------------

Below you find a list of papers that are relevant to this ORCA run
We neither can nor want to force you to cite these papers, but we appreciate if you do
You receive ORCA, which is the product of decades of hard work by many enthusiastic individuals, for free
The only thing we kindly ask in return is that you cite our papers,
We deeply appreciate it, if you show your appreciation for ORCA by not just citing the generic ORCA reference.

Please note that relegating all ORCA citations to the supporting information does *not* help us.
SI sections are not indexed - citations you put there will not count into any citation statistics
But we need these citations in order to attract the funding resources that allow us to do what we are doing

Therefore, if you are a happy ORCA user, please consider citing a few of the papers listed below in the main body of your paper

In addition to the list printed below, the program has created the file reactant_optfreq.bibtex that contains the list in bibtex format
You can import this file easily into all common literature databanks and citation aid programs


List of essential papers. We consider these as the minimum necessary citations

  1. Grimme, S.; Hansen, A.; Ehlert, S.; Mewes, J.
     r2SCAN-3c: A 'Swiss army knife' composite electronic-structure method
     J. Chem. Phys. 2021 154 , 064103
     doi.org/10.1063/5.0040021
  2. Neese, F.
     Software update: the ORCA program system, version 6.0
     WIRES Comput. Molec. Sci. 2025 15(1), e70019
     doi.org/10.1002/wcms.7019

List of papers to cite with high priority. The work reported in these papers was absolutely
necessary for this run to complete.
Our perspective: the developers of density functionals and basis sets usually get cited in chemistry papers
Good! But without the algorithms to do something with them, the functionals or basis sets would not do anything.
Hence, in our opinion, the algorithm design and method developments papers are equally worthy of getting cited

  1. Neese, F.
     An improvement of the resolution of the identity approximation for the formation of the Coulomb matrix
     J. Comp. Chem. 2003 24(14), 1740-1747
     doi.org/10.1002/jcc.10318
  2. Bykov, D.; Petrenko, T.; Izsak, R.; Kossmann, S.; Becker, U.; Valeev, E.; Neese, F.
     Efficient implementation of the analytic second derivatives of Hartree-Fock and hybrid DFT energies: a detailed analysis of different approximations
     Molec. Phys. 2015 113 , 1961-1977
     doi.org/10.1080/00268976.2015.1025114
  3. Caldeweyher, E.; Bannwarth, C.; Grimme, S.
     Extension of the D3 dispersion coefficient model
     J. Chem. Phys. 2017 147 , 034112
     doi.org/10.1063/1.4993215
  4. Lehtola, S.; Steigemann, C.; Oliveira, M.; Marques, M.
     Recent developments in Libxc - A comprehensive library of functionals for density functional theory
     Software X 2018 7 , 
     doi.org/10.1016/j.softx.2017.11.002
  5. Caldeweyher, E.; Ehlert, S.; Hansen, A.; Neugebauer, H.; Spicher, S.; Bannwarth, C.; Grimme, S.
     A generally applicable atomic-charge dependent London dispersion correction
     J. Chem. Phys. 2019 150 , 154122
     doi.org/10.1063/1.5090222
  6. Caldeweyher, E.; Mewes, J.; Ehlert, S.; Grimme, S.
     Extension and evaluation of the D4 London-dispersion model for periodic systems
     Phys. Chem. Chem. Phys. 2020 22(16), 8499-8512
     doi.org/10.1039/D0CP00502A
  7. Neese, F.
     The SHARK Integral Generation and Digestion System
     J. Comp. Chem. 2022 44(3), 381
     doi.org/10.1002/jcc.26942
  8. Wittmann, L.; Gordiy, I.; Friede, M.; Helmich-Paris, B.; Grimme, S.; Hansen, A.; Bursch, M.
     Extension of the D3 and D4 London Dispersion Corrections to the full Actinides Series
     Phys. Chem. Chem. Phys. 2024 26(32), 21379-21394
     doi.org/10.1039/D4CP01514B

List of suggested additional citations. These are papers that are important in the 'surrounding' of 
of this run, or papers that preceded the highly important papers. If you like your results we are grateful for a citation.

  1. Neese, F.
     The ORCA program system
     WIRES Comput. Molec. Sci. 2012 2(1), 73-78
     doi.org/10.1002/wcms.81
  2. Neese, F.
     Software update: the ORCA program system, version 4.0
     WIRES Comput. Molec. Sci. 2018 8(1), 1-6
     doi.org/10.1002/wcms.1327
  3. Neese, F.; Wennmohs, F.; Becker, U.; Riplinger, C.
     The ORCA quantum chemistry program package
     J. Chem. Phys. 2020 152(22), 224108
     doi.org/10.1063/5.0004608
  4. Neese, F.
     Software update: The ORCA program system—Version 5.0
     WIRES Comput. Molec. Sci. 2022 12(1), e1606
     doi.org/10.1002/wcms.1606

List of optional additional citations

  1. Neese, F.
     Approximate second-order SCF convergence for spin unrestricted wavefunctions
     Chem. Phys. Lett. 2000 325(1-3), 93-98
     doi.org/10.1016/s0009-2614(00)00662-x

Timings for individual modules:

Sum of individual times          ...      124.314 sec (=   2.072 min)
Startup calculation              ...       17.459 sec (=   0.291 min)  14.0 %
SCF iterations                   ...       56.028 sec (=   0.934 min)  45.1 %
Property integrals               ...       19.871 sec (=   0.331 min)  16.0 %
SCF Response                     ...        4.787 sec (=   0.080 min)   3.9 %
Property calculations            ...        7.441 sec (=   0.124 min)   6.0 %
SCF Gradient evaluation          ...       18.695 sec (=   0.312 min)  15.0 %
Geometry relaxation              ...        0.032 sec (=   0.001 min)   0.0 %
                             ****ORCA TERMINATED NORMALLY****
TOTAL RUN TIME: 0 days 0 hours 2 minutes 13 seconds 451 msec
