
                                 *****************
                                 * O   R   C   A *
                                 *****************

                                            #,                                       
                                            ###                                      
                                            ####                                     
                                            #####                                    
                                            ######                                   
                                           ########,                                 
                                     ,,################,,,,,                         
                               ,,#################################,,                 
                          ,,##########################################,,             
                       ,#########################################, ''#####,          
                    ,#############################################,,   '####,        
                  ,##################################################,,,,####,       
                ,###########''''           ''''###############################       
              ,#####''   ,,,,##########,,,,          '''####'''          '####       
            ,##' ,,,,###########################,,,                        '##       
           ' ,,###''''                  '''############,,,                           
         ,,##''                                '''############,,,,        ,,,,,,###''
      ,#''                                            '''#######################'''  
     '                                                          ''''####''''         
             ,#######,   #######,   ,#######,      ##                                
            ,#'     '#,  ##    ##  ,#'     '#,    #''#        ,####,    ,#,          
            ##       ##  ##   ,#'  ##            #'  '#       #'       ,# #          
            ##       ##  #######   ##           ,######,      #####,      #          
            '#,     ,#'  ##    ##  '#,     ,#' ,#      #,     #,   #      #          
             '#######'   ##     ##  '#######'  #'      '#     '####' #    #          



                #########################################################
                #                        -***-                          #
                #          Department of theory and spectroscopy        #
                #                                                       #
                #                      Frank Neese                      #
                #                                                       #
                #     Directorship, Architecture, Infrastructure        #
                #                    SHARK, DRIVERS                     #
                #        Core code/Algorithms in most modules           #
                #                                                       #
                #        Max Planck Institute fuer Kohlenforschung      #
                #                Kaiser Wilhelm Platz 1                 #
                #                 D-45470 Muelheim/Ruhr                 #
                #                      Germany                          #
                #                                                       #
                #                  All rights reserved                  #
                #                        -***-                          #
                #########################################################


                         Program Version 6.1.0  -  RELEASE   -
                                (GIT: $679e74b$)
                          ($2025-06-10 18:02:51 +0200$)


 With contributions from (in alphabetic order):
[Max-Planck-Institut fuer Kohlenforschung]                               
  Daniel Aravena         : Magnetic Suceptibility                        
  Michael Atanasov       : Ab Initio Ligand Field Theory (pilot matlab implementation)
  Alexander A. Auer      : GIAO ZORA, VPT2 properties, NMR spectrum      
  Ute Becker             : All parallelization in ORCA, NUMFREQ, NUMCALC 
  Giovanni Bistoni       : ED, misc. LED, open-shell LED, HFLD           
  Dmytro Bykov           : pre 5.0 version of the SCF Hessian            
  Marcos Casanova-Páez   : Triplet and SCS-CIS(D). UHF-(DLPNO)-IP/EA/STEOM-CCSD. UHF-CVS-IP/STEOM-CCSD   
  Vijay G. Chilkuri      : MRCI spin determinant printing, contributions to CSF-ICE 
  Pauline Colinet        : FMM embedding                                 
  Dipayan Datta          : RHF DLPNO-CCSD density                        
  Achintya Kumar Dutta   : EOM-CC, STEOM-CC                              
  Nicolas Foglia         : Exact transition moments, OPA infrastructure, MCD improvements    
  Dmitry Ganyushin       : Spin-Orbit,Spin-Spin,Magnetic field MRCI      
  Miquel Garcia-Rates    : C-PCM and meta-GGA Hessian, CCSD/C-PCM, Gaussian charge scheme 
  Tiago L. C. Gouveia    : GS-ROHF, GS-ROCIS                             
  Yang Guo               : DLPNO-NEVPT2, F12-NEVPT2, CIM, IAO-localization        
  Andreas Hansen         : Spin unrestricted coupled pair/coupled cluster methods 
  Ingolf Harden          : AUTO-CI MPn and infrastructure                
  Benjamin Helmich-Paris : MC-RPA, TRAH-(SCF,CASSCF), AVAS, COSX integrals, SCF dyn. polar., MC-PDFT, srDFT 
  Lee Huntington         : MR-EOM, pCC                                   
  Robert Izsak           : Overlap fitted RIJCOSX, COSX-SCS-MP3, EOM     
  Riya Kayal             : Wick's Theorem for AUTO-CI, AUTO-CI UHF-CCSDT 
  Emily Kempfer          : AUTO-CI RHF CISDT and CCSDT, approximate NEVPT4
  Christian Kollmar      : KDIIS, OOCD, Brueckner-CCSD(T), CCSD density, CASPT2, CASPT2-K, improved NEVPT2 
  Axel Koslowski         : Symmetry handling                             
  Simone Kossmann        : meta-GGA functionals, TD-DFT gradient, OOMP2, (MP2 Hessian; deprecated post 5.0) 
  Lucas Lang             : DCDCAS, Hyperfine gauge corrections, ICE-SOC+SSC
  Marvin Lechner         : AUTO-CI (C++ implementation), FIC-MRCC        
  Spencer Leger          : CASSCF response                               
  Dagmar Lenk            : GEPOL surface, SMD, ORCA-2-JSON               
  Dimitrios Liakos       : Extrapolation schemes; Compound Job, Property file
  Dimitrios Manganas     : Further ROCIS development; embedding schemes. LFT, Crystal Embedding 
  Dimitrios Pantazis     : SARC Basis sets                               
  Anastasios Papadopoulos: AUTO-CI, single reference methods and gradients 
  Taras Petrenko         : pre 6.0 DFT Hessian and TD-DFT gradient,  ECA, NRVS 
  Petra Pikulova         : Analytic Raman intensities                    
  Peter Pinski           : DLPNO-MP2, DLPNO-MP2 Gradient                 
  Shashank Vittal Rao    : ES-AILFT, MagRelax                            
  Christoph Reimann      : Effective Core Potentials                     
  Marius Retegan         : Local ZFS, SOC                                
  Christoph Riplinger    : Optimizer, TS searches, QM/MM, DLPNO-CCSD(T), (RO)-DLPNO pert. Triples 
  Michael Roemelt        : Original ROCIS implementation, recursive CI coupling coefficients
  Masaaki Saitow         : Open-shell DLPNO-CCSD energy and density      
  Barbara Sandhoefer     : DKH picture change effects                    
  Yorick L. A. Schmerwitz: GMF and freeze-and-release deltaSCF, NEB S-IDPP initial path                    
  Kantharuban Sivalingam : CASSCF convergence/infrastructure, NEVPT2, NEVPT3, NEVPT4(SD), FIC-MRCI and CEPA variants
  Bernardo de Souza      : ESD, SOC TD-DFT                               
  Georgi L. Stoychev     : AutoAux, RI-MP2 NMR, DLPNO-MP2 response, X2C  
  Van Anh Tran           : RI-MP2 g-tensors                              
  Willem Van den Heuvel  : Paramagnetic NMR                              
  Zikuan Wang            : NOTCH, Electric field optimization            
  Frank Wennmohs         : Technical directorship and infrastructure     
  Hang Xu                : AUTO-CI-Response properties                   
                                                                         
[FACCTs GmbH]                                                            
  Markus Bursch, Nicolas Foglia, Miquel Garcia-Rates, Ingolf Harden, Hagen Neugebauer, Anastasios Papadopoulos, 
  Christoph Riplinger, Bernardo de Souza, Georgi L. Stoychev                                                    
                                                                 
  APM, various basis sets, CI-OPT, improved COSX, DLPNO-Multilevel,           
  DOCKER, DRACO, updates on ESD, Fragmentator, GOAT, IRC, LR-CPCM, L-BFGS, MBIS, meta-GGA TD-DFT gradient, ML-optimized integration grids, 
  MM, NACMEs, nearIR, NEB, NEB-TS, NL-DFT gradient (VV10), 2- and 3-layer-ONIOM, interface openCOSMO-RS, QMMM,   
  Crystal-QMMM, RESP, rigid body optimization, SF, symmetry and pop. for TD-DFT, various functionals, SOLVATOR                                   
                                                                         
[Other institutions]                                                     
  V. Asgeirsson          : NEB                                           
  Christoph Bannwarth    : sTDA-DFT, sTD-DFT, PBEh-3c, B97-3c, D3        
  Giovanni Bistoni       : ETS/NOCV, ADLD/ADEX, COVALED                  
  Martin Brehm           : Molecular dynamics                            
  Ronald Cardenas        : ETS/NOCV                                      
  Martina Colucci        : COVALED                                       
  Sebastian Ehlert       : rSCAN, r2SCAN, r2SCAN-3c, D4, dhf basis sets  
  Marvin Friede          : D4 for Fr, Ra, Ac-Lr                          
  Lars Goerigk           : TD-DFT with DH, B97 family of functionals     
  Stefan Grimme          : VdW corrections, initial TS optimization, DFT functionals, gCP, sTDA/sTD-DF 
  Waldemar Hujo          : DFT-NL                                        
  H. Jonsson             : NEB                                           
  Holger Kruse           : gCP                                           
  Marcel Mueller         : wB97X-3c, vDZP basis set                      
  Hagen Neugebauer       : wr2SCAN, Native XTB                           
  Gianluca Regni         : ADLD/ADEX                                     
  Tobias Risthaus        : pre 6.0 range-separated hybrid DFT and stability analysis
  Lukas Wittmann         : regularized MP2, r2SCAN double-hybrids, wr2SCAN        
                                                                         
We gratefully acknowledge several colleagues who have allowed us to      
interface, adapt or use parts of their codes:                            
  Ed Valeev, F. Pavosevic, A. Kumar             : LibInt (2-el integral package), F12 methods 
  Garnet Chan, S. Sharma, J. Yang, R. Olivares  : DMRG                   
  Ulf Ekstrom                                   : XCFun DFT Library      
  Mihaly Kallay                                 : mrcc  (arbitrary order and MRCC methods)
  Frank Weinhold                                : gennbo (NPA and NBO analysis)           
  Simon Mueller                                 : openCOSMO-RS                            
  Christopher J. Cramer and Donald G. Truhlar   : smd solvation model                     
  S Lehtola, MJT Oliveira, MAL Marques          : LibXC Library                           
  Liviu Ungur et al                             : ANISO software                          


 Your calculation uses the libint2 library for the computation of 2-el integrals
 For citations please refer to: http://libint.valeyev.net

 Your ORCA version has been built with support for libXC version: 7.0.0
 For citations please refer to: https://libxc.gitlab.io

 This ORCA versions uses:
   CBLAS   interface :  Fast vector & matrix operations
   LAPACKE interface :  Fast linear algebra routines
   SCALAPACK package :  Parallel linear algebra routines
   Shared memory     :  Shared parallel matrices
   BLAS/LAPACK       :  OpenBLAS 0.3.29  USE64BITINT DYNAMIC_ARCH NO_AFFINITY SkylakeX SINGLE_THREADED
        Core in use  :  SkylakeX
   Copyright (c) 2011-2014, The OpenBLAS Project


  ***********************************
  * Starting time: Thu Mar 12 13:36:35 2026
  * Host name:     midway3-login4.rcc.local
  * Process ID:    3150360
  * Working dir.:  /home/rzhu16/orca_TS_search/sn2_br_i/DFT_test
  ***********************************

Your calculation utilizes the geometrical counterpoise correction gCP
Please cite in your paper:
H.Kruse, S. Grimme J.Chem.Phys., 136, (2012), 154101 
   

Your calculation utilizes the atom-pairwise dispersion correction
based on EEQ partial charges (D4)


================================================================================

cite the ECPs for I  [Def2-ECP] as follows:
Ce-Yb(ecp-28): M. Dolg, H. Stoll, H.Preuss, J. Chem. Phys., 1989, 90, 1730-1734.
Y-Cd(ecp-28), Hf-Hg(ecp-46): D. Andrae,U. Haeussermann, M. Dolg, H. Stoll, H. Preuss, Theor. Chim. Acta, 1990, 77, 123-141.
In-Sb(ecp-28), Tl-Bi(ecp-46): B. Metz, H. Stoll, M. Dolg, J. Chem. Phys., 2000, 113, 2563-2569.
Te-Xe(ecp-28), Po-Rn(ecp-46): K. A. Peterson, D. Figgen, E. Goll, H. Stoll, M. Dolg, J. Chem. Phys., 2003, 119, 11113-11123.
Rb(ecp-28), Cs(ecp-46): T. Leininger, A. Nicklass, W. Kuechle, H. Stoll, M. Dolg, A. Bergner, Chem. Phys. Lett., 1996, 255, 274-280.
Sr(ecp-28), Ba(ecp-46): M. Kaupp, P. V. Schleyer, H. Stoll and H. Preuss, J. Chem. Phys., 1991, 94, 1360-1366.
La(ecp-46): M. Dolg, H. Stoll, A. Savin, H. Preuss, Theor. Chim. Acta, 1989, 75, 173-194.
Lu(ecp-28): X. Cao, M. Dolg, J. Chem. Phys., 2001, 115, 7348-7355.
Fr-Ra(ecp-78) K. Eichkorn, F. Weigend, O. Treutler, R. Ahlrichs, Theor. Chem. Acc. 1997, 97, 119.
Ac-Lr(ecp-60) K. Eichkorn, F. Weigend, O. Treutler, R. Ahlrichs, Theor. Chem. Acc. 1997, 97, 119.

ECP parameters for I  [Def2-ECP] have been obtained from:
TURBOMOLE (7.0.2)

----- Orbital basis set information -----
Your calculation utilizes the basis: def2-mTZVPP
   Stefan Grimme, Andreas Hansen, Sebastian Ehlert, and Jan-Michael Mewes 
   J. Chem. Phys. 154, 064103 (2021). DOI: 10.1063/5.0040021

----- AuxJ basis set information -----
Your calculation utilizes the basis: def2-mTZVPP/J
   Stefan Grimme, Andreas Hansen, Sebastian Ehlert, and Jan-Michael Mewes 
   J. Chem. Phys. 154, 000000 (2021). DOI: 10.1063/5.0040021

================================================================================
                                        WARNINGS
                       Please study these warnings very carefully!
================================================================================



WARNING: SCAN, rSCAN, or r2SCAN functional requested.
  ===> : libXC variant has now been activated.



WARNING: Geometry Optimization
  ===> : Switching off AutoStart
         For restart on a previous wavefunction, please use MOREAD

================================================================================
                                       INPUT FILE
================================================================================
NAME = product_optfreq.inp
|  1> ! r2SCAN-3c Opt Freq PAL8 TightSCF
|  2> 
|  3> %pal
|  4>    nprocs 8
|  5> end
|  6> 
|  7> %scf
|  8>    MaxIter 150
|  9> end
| 10> 
| 11> * xyz -1 1
| 12>   C      -0.000263     -0.000268      0.378005
| 13>   H       0.000029      1.031131      0.055165
| 14>   H       0.892887     -0.515463      0.055197
| 15>   H      -0.892559     -0.515306      0.055280
| 16>   Br      0.000019      0.000018      2.350096
| 17>   I       0.000003      0.000003     -2.774278
| 18> *
| 19> 
| 20>                          ****END OF INPUT****
================================================================================

                       *****************************
                       * Geometry Optimization Run *
                       *****************************

Geometry optimization settings:
Update method            Update   .... BFGS
Choice of coordinates    CoordSys .... (2022) Redundant Internals
Initial Hessian          InHess   .... Almloef's Model
Max. no of cycles        MaxIter  .... 50

Convergence Tolerances:
Energy Change            TolE     ....  5.0000e-06 Eh
Max. Gradient            TolMAXG  ....  3.0000e-04 Eh/bohr
RMS Gradient             TolRMSG  ....  1.0000e-04 Eh/bohr
Max. Displacement        TolMAXD  ....  4.0000e-03 bohr
RMS Displacement         TolRMSD  ....  2.0000e-03 bohr
Strict Convergence                .... False

------------------------------------------------------------------------------
                        ORCA OPTIMIZATION COORDINATE SETUP
------------------------------------------------------------------------------

The optimization will be done in redundant internal coordinates (2022)
Making redundant internal coordinates   ...  (2022 redundants) done
Evaluating the initial hessian          ...  (Almloef) done
Evaluating the coordinates              ...  done
Calculating the B-matrix                .... done
Calculating the G-matrix                .... done
The number of degrees of freedom        ....   17

    -----------------------------------------------------------------
                    Redundant Internal Coordinates


    -----------------------------------------------------------------
         Definition                    Initial Value    Approx d2E/dq
    -----------------------------------------------------------------
      1. B(H   1,C   0)                  1.0807         0.372554   
      2. B(H   2,C   0)                  1.0804         0.372973   
      3. B(H   3,C   0)                  1.0796         0.374079   
      4. B(Br  4,C   0)                  1.9721         0.247482   
      5. B(I   5,H   2)                  3.0115         0.010000   
      6. B(I   5,H   1)                  3.0115         0.010000   
      7. B(I   5,H   3)                  3.0114         0.010000   
      8. B(I   5,C   0)                  3.1523         0.010000   
      9. A(H   1,C   0,H   3)          111.4813         0.294159   
     10. A(H   2,C   0,H   3)          111.4955         0.294212   
     11. A(H   1,C   0,Br  4)          107.3724         0.323389   
     12. A(H   2,C   0,Br  4)          107.3811         0.323448   
     13. A(H   3,C   0,Br  4)          107.4041         0.323605   
     14. A(H   1,C   0,I   5)           72.6143         0.176854   
     15. A(H   2,C   0,I   5)           72.6142         0.176876   
     16. A(H   3,C   0,I   5)           72.6138         0.176935   
     17. A(H   1,C   0,H   2)          111.4441         0.294022   
    -----------------------------------------------------------------

Number of atoms                         .... 6
Number of degrees of freedom            .... 17


         *************************************************************
         *                GEOMETRY OPTIMIZATION CYCLE   1            *
         *************************************************************
---------------------------------
CARTESIAN COORDINATES (ANGSTROEM)
---------------------------------
  C     -0.000263   -0.000268    0.378005
  H      0.000029    1.031131    0.055165
  H      0.892887   -0.515463    0.055197
  H     -0.892559   -0.515306    0.055280
  Br     0.000019    0.000018    2.350096
  I      0.000003    0.000003   -2.774278

----------------------------
CARTESIAN COORDINATES (A.U.)
----------------------------
  NO LB      ZA    FRAG     MASS         X           Y           Z
   0 C     6.0000    0    12.011   -0.000497   -0.000506    0.714326
   1 H     1.0000    0     1.008    0.000055    1.948555    0.104247
   2 H     1.0000    0     1.008    1.687312   -0.974084    0.104307
   3 H     1.0000    0     1.008   -1.686692   -0.973787    0.104464
   4 Br   35.0000    0    79.900    0.000036    0.000034    4.441038
   5 I    25.0000*   0   126.900    0.000006    0.000006   -5.242626
* core charge reduced due to ECP

--------------------------------
INTERNAL COORDINATES (ANGSTROEM)
--------------------------------
 C      0   0   0     0.000000000000     0.00000000     0.00000000
 H      1   0   0     1.080744950516     0.00000000     0.00000000
 H      1   2   0     1.080438714314   111.44409835     0.00000000
 H      1   2   3     1.079633140787   111.48127074   234.71510621
 Br     1   2   3     1.972091040901   107.37242051   117.33333548
 I      4   1   2     3.011413084366    87.37920113    62.63217712

---------------------------
INTERNAL COORDINATES (A.U.)
---------------------------
 C      0   0   0     0.000000000000     0.00000000     0.00000000
 H      1   0   0     2.042311977093     0.00000000     0.00000000
 H      1   2   0     2.041733274540   111.44409835     0.00000000
 H      1   2   3     2.040210961192   111.48127074   234.71510621
 Br     1   2   3     3.726711978462   107.37242051   117.33333548
 I      4   1   2     5.690746005558    87.37920113    62.63217712

---------------------
BASIS SET INFORMATION
---------------------
There are 4 groups of distinct atoms

 Group   1 Type C   : 11s6p1d contracted to 5s3p1d pattern {62111/411/1}
 Group   2 Type H   : 4s1p contracted to 2s1p pattern {31/1}
 Group   3 Type Br  : 17s13p7d contracted to 6s5p3d pattern {842111/64111/511}
 Group   4 Type I   : 11s10p8d contracted to 6s5p3d pattern {521111/34111/611}

Atom   0C    basis set group =>   1
Atom   1H    basis set group =>   2
Atom   2H    basis set group =>   2
Atom   3H    basis set group =>   2
Atom   4Br   basis set group =>   3
Atom   5I    basis set group =>   4
---------------------------------
AUXILIARY/J BASIS SET INFORMATION
---------------------------------
There are 4 groups of distinct atoms

 Group   1 Type C   : 8s3p3d contracted to 6s3p3d pattern {311111/111/111}
 Group   2 Type H   : 5s2p1d contracted to 3s1p1d pattern {311/2/1}
 Group   3 Type Br  : 19s5p5d3f1g contracted to 8s4p3d2f1g pattern {121111111/2111/311/21/1}
 Group   4 Type I   : 11s5p5d3f1g contracted to 8s4p3d2f1g pattern {41111111/2111/311/21/1}

Atom   0C    basis set group =>   1
Atom   1H    basis set group =>   2
Atom   2H    basis set group =>   2
Atom   3H    basis set group =>   2
Atom   4Br   basis set group =>   3
Atom   5I    basis set group =>   4
-------------------------
ECP PARAMETER INFORMATION
-------------------------

 Group 1, Type I  ECP Def2-ECP (replacing 28 core electrons, lmax=3)

Atom   5I    ECP group =>   1



           ************************************************************
           *        Program running with 8 parallel MPI-processes     *
           *              working on a common directory               *
           ************************************************************
------------------------------------------------------------------------------
                             ORCA STARTUP CALCULATIONS
                           -- RI-GTO INTEGRALS CHOSEN --
------------------------------------------------------------------------------
------------------------------------------------------------------------------
                   ___                                                        
                  /   \      - P O W E R E D   B Y -                         
                 /     \                                                     
                 |  |  |   _    _      __       _____    __    __             
                 |  |  |  | |  | |    /  \     |  _  \  |  |  /  |          
                  \  \/   | |  | |   /    \    | | | |  |  | /  /          
                 / \  \   | |__| |  /  /\  \   | |_| |  |  |/  /          
                |  |  |   |  __  | /  /__\  \  |    /   |      \           
                |  |  |   | |  | | |   __   |  |    \   |  |\   \          
                \     /   | |  | | |  |  |  |  | |\  \  |  | \   \       
                 \___/    |_|  |_| |__|  |__|  |_| \__\ |__|  \__/        
                                                                              
                      - O R C A' S   B I G   F R I E N D -                    
                                      &                                       
                       - I N T E G R A L  F E E D E R -                       
                                                                              
 v1 FN, 2020, v2 2021, v3 2022-2024                                           
------------------------------------------------------------------------------


----------------------
SHARK INTEGRAL PACKAGE
----------------------

Number of atoms                             ...      6
Number of basis functions                   ...    106
Number of shells                            ...     46
Maximum angular momentum                    ...      2
Integral batch strategy                     ... SHARK/LIBINT Hybrid
RI-J (if used) integral strategy            ... SPLIT-RIJ (Revised 2003 algorithm where possible)
Printlevel                                  ...      1
Contraction scheme used                     ... SEGMENTED contraction
Prescreening option                         ... SCHWARTZ
   Thresh                                   ... 2.500e-11
   Tcut                                     ... 2.500e-12
   Tpresel                                  ... 2.500e-12 
Coulomb Range Separation                    ... NOT USED
Exchange Range Separation                   ... NOT USED
Multipole approximations                    ... NOT USED
Finite Nucleus Model                        ... NOT USED
CABS basis                                  ... NOT available
Auxiliary Coulomb fitting basis             ... AVAILABLE
   # of basis functions in Aux-J            ...    179
   # of shells in Aux-J                     ...     63
   Maximum angular momentum in Aux-J        ...      4
Auxiliary J/K fitting basis                 ... NOT available
Auxiliary Correlation fitting basis         ... NOT available
Auxiliary 'external' fitting basis          ... NOT available

Checking pre-screening integrals            ... done (  0.0 sec) Dimension = 46
   => SHARK Basis and OBASIS are compatible. Storing Pre-screening
Shell pair information
Shell pair cut-off parameter TPreSel        ...   2.5e-12
Total number of shell pairs                 ...      1081
Shell pairs after pre-screening             ...       963
Total number of primitive shell pairs       ...      5082
Primitive shell pairs kept                  ...      3373
          la=0 lb=0:    240 shell pairs
          la=1 lb=0:    330 shell pairs
          la=1 lb=1:    128 shell pairs
          la=2 lb=0:    139 shell pairs
          la=2 lb=1:    101 shell pairs
          la=2 lb=2:     25 shell pairs

Checking whether 4 symmetric matrices of dimension 106 fit in memory
:Max Core in MB      =   4096.00
 MB in use           =      4.64
 MB left             =   4091.36
 MB needed           =      0.17
 Data fit in memory  = YES
Calculating RI/J V-Matrix + Cholesky decomp.... done (  0.0 sec)
Calculating Nuclear repulsion               ... done (  0.0 sec) ENN=    216.860392372161 Eh

Diagonalization of the overlap matrix:
Smallest eigenvalue                        ... 4.748e-03
Time for diagonalization                   ...    0.001 sec
Threshold for overlap eigenvalues          ... 1.000e-07
Number of eigenvalues below threshold      ... 0
Time for construction of square roots      ...    0.001 sec
Total time needed                          ...    0.003 sec

-------------------
DFT GRID GENERATION
-------------------

General Integration Accuracy     IntAcc      ... 4.388
Radial Grid Type                 RadialGrid  ... OptM3 with GC (2021)
Angular Grid (max. ang.)         AngularGrid ... 4 (Lebedev-302)
Angular grid pruning method      GridPruning ... 4 (adaptive)
Weight generation scheme         WeightScheme... mBecke (2022)
Basis function cutoff            BFCut       ... 1.0000e-11
Integration weight cutoff        WCut        ... 1.0000e-14
Partially contracted basis set               ... off
Rotationally invariant grid construction     ... off
Angular grids for H and He will be reduced by one unit
Core-polarized basis detected: some atoms will have their core
                               angular grid increased.

Total number of grid points                  ...    38825
Total number of batches                      ...      610
Average number of points per batch           ...       63
Average number of grid points per atom       ...     6471
Grids setup in   0.8 sec
Initializing property integral containers    ... done (  0.0 sec)

SHARK setup successfully completed in   1.4 seconds

Maximum memory used throughout the entire STARTUP-calculation: 14.1 MB


           ************************************************************
           *        Program running with 8 parallel MPI-processes     *
           *              working on a common directory               *
           ************************************************************
-------------------------------------------------------------------------------
                                 ORCA GUESS
                   Start orbitals & Density for SCF / CASSCF
-------------------------------------------------------------------------------

------------
SCF SETTINGS
------------
Hamiltonian:
 Density Functional     Method          .... DFT(GTOs)
  Functional kind                       .... Exchange
  Functional name                       .... Re-regularized SCAN exchange by Furness et al
  Functional family                     .... MGGA
  Functional refs                              
    [ 0] J. W. Furness, A. D. Kaplan, J. Ning, J. P. Perdew, and J. Sun.,  J. Phys. Chem. Lett. 11, 8208-8215 (2020), doi: 10.1021/acs.jpclett.0c02405
    [ 1] J. W. Furness, A. D. Kaplan, J. Ning, J. P. Perdew, and J. Sun.,  J. Phys. Chem. Lett. 11, 9248-9248 (2020), doi: 10.1021/acs.jpclett.0c03077
  Functional external parameters        .... 6
    Parameter  0 _c1        =  6.670000e-01 : c1 parameter        
    Parameter  1 _c2        =  8.000000e-01 : c2 parameter        
    Parameter  2 _d         =  1.240000e+00 : d parameter         
    Parameter  3 _k1        =  6.500000e-02 : k1 parameter        
    Parameter  4 _eta       =  1.000000e-03 : eta parameter       
    Parameter  5 _dp2       =  3.610000e-01 : dp2 parameter       
  Functional kind                       .... Correlation
  Functional name                       .... Re-regularized SCAN correlation by Furness et al
  Functional family                     .... MGGA
  Functional refs                              
    [ 0] J. W. Furness, A. D. Kaplan, J. Ning, J. P. Perdew, and J. Sun.,  J. Phys. Chem. Lett. 11, 8208-8215 (2020), doi: 10.1021/acs.jpclett.0c02405
    [ 1] J. W. Furness, A. D. Kaplan, J. Ning, J. P. Perdew, and J. Sun.,  J. Phys. Chem. Lett. 11, 9248-9248 (2020), doi: 10.1021/acs.jpclett.0c03077
  Functional external parameters        .... 1
    Parameter  0 _eta       =  1.000000e-03 : Regularization parameter
 Gradients option       PostSCFGGA      .... off
 RI-approximation to the Coulomb term is turned on
   Number of AuxJ basis functions       .... 179


General Settings:
 Integral files         IntName         .... product_optfreq
 Hartree-Fock type      HFTyp           .... RHF
 Total Charge           Charge          ....   -1
 Multiplicity           Mult            ....    1
 Number of Electrons    NEL             ....   70
 Basis Dimension        Dim             ....  106
 Nuclear Repulsion      ENuc            ....    216.8603923722 Eh

Convergence Acceleration:
 AO-DIIS                CNVDIIS         .... on
   Start iteration      DIISMaxIt       ....    12
   Startup error        DIISStart       ....  0.200000
   # of expansion vecs  DIISMaxEq       ....     5
   Bias factor          DIISBfac        ....   1.050
   Max. coefficient     DIISMaxC        ....  10.000
 MO-DIIS                CNVKDIIS        .... off
 Trust-Rad. Augm. Hess. CNVTRAH         .... auto
   Auto Start mean grad. ratio tolernc. ....  1.125000
   Auto Start start iteration           ....    50
   Auto Start num. interpolation iter.  ....    10
   Max. Number of Micro iterations      ....    24
   Max. Number of Macro iterations      .... Maxiter - #DIIS iter
   Number of Davidson start vectors     ....     2
   Converg. threshold    (grad. norm)   ....   1.000e-05
   Grad. Scal. Fac. for Micro threshold ....   0.100
   Minimum threshold for Micro iter.    ....   1.000e-02
   NR start threshold (gradient norm)   ....   1.000e-04
   Initial trust radius                 ....   0.400
   Minimum AH scaling param. (alpha)    ....   1.000
   Maximum AH scaling param. (alpha)    .... 1000.000
   Quad. conv. algorithm                .... NR
   White noise on init. David. guess    .... on
   Maximum white noise                  ....   0.010
   Pseudo random numbers                .... off
   Inactive MOs                         .... canonical
   Orbital update algorithm             .... Taylor
   Preconditioner                       .... Diag
   Full preconditioner red. dimension   ....   250
   COSX micro iterations for RIJONX calc.... off
 SOSCF                 CNVSOSCF           .... on
   Start iteration     SOSCFMaxIt         ....   150
   Startup grad/error  SOSCFStart         ....  0.003300
   Hessian update      SOSCFHessUp        .... L-BFGS
   Autom. constraints  SOSCFAutoConstrain .... off
 Level Shifting         CNVShift        .... on
   Level shift para.    LevelShift      ....    0.2500
   Turn off err/grad.   ShiftErr        ....    0.0010
 Zerner damping         CNVZerner       .... off
 Static damping         CNVDamp         .... on
   Fraction old density DampFac         ....    0.7000
   Max. Damping (<1)    DampMax         ....    0.9800
   Min. Damping (>=0)   DampMin         ....    0.0000
   Turn off err/grad.   DampErr         ....    0.1000

SCF Procedure:
 Maximum # iterations   MaxIter         ....   150
 SCF integral mode      SCFMode         .... Direct
   Integral package                     .... SHARK and LIBINT hybrid scheme
 Reset frequency        DirectResetFreq ....    20
 Integral Threshold     Thresh          ....  2.500e-11 Eh
 Primitive CutOff       TCut            ....  2.500e-12 Eh

Convergence Tolerance:
 Convergence Check Mode ConvCheckMode   .... Total+1el-Energy
 Convergence forced     ConvForced      .... 0
 Energy Change          TolE            ....  1.000e-08 Eh
 1-El. energy change                    ....  1.000e-05 Eh
 Orbital Gradient       TolG            ....  1.000e-05
 Orbital Rotation angle TolX            ....  1.000e-05
 DIIS Error             TolErr          ....  5.000e-07

------------------------------
INITIAL GUESS: MODEL POTENTIAL
------------------------------
Loading Hartree-Fock densities                     ... done
Atomic calculation to generate a density for atom 5 (I  with ECP)
  Multiplicity assumed   :    2
  Atomic configuration   : 1s2 2s2 2p6 3s2 3p6 4s2 3d10 4p6 5s2 4d10 5p5 
  Number of open shells  : 1
  Command: /software/orca-6.1.0-el8-x86_64/bin/orca product_optfreq_atom53.inp "" > product_optfreq_atom53.out
Returned from the atomic calculation with res=0
Calculating cut-offs                               ... done
Initializing the effective Hamiltonian             ... done
Setting up the integral package (SHARK)            ... done
Starting the Coulomb interaction                   ... done (   0.1 sec)
Making the grid                                    ... done (   0.2 sec)
Mapping shells                                     ... done
Starting the XC term evaluation                    ... done (   0.0 sec)
  promolecular density results
     # of electrons  =     96.997830794
     EX              =   -268.363509791
     EC              =     -4.850411380
     EX+EC           =   -273.213921171
Transforming the Hamiltonian                       ... done (   0.0 sec)
Diagonalizing the Hamiltonian                      ... done (   0.0 sec)
Back transforming the eigenvectors                 ... done (   0.0 sec)
Now organizing SCF variables                       ... done
                      ------------------
                      INITIAL GUESS DONE (   5.7 sec)
                      ------------------
             **** ENERGY FILE WAS UPDATED (product_optfreq.en.tmp) ****
Finished Guess after   6.0 sec
Maximum memory used throughout the entire GUESS-calculation: 7.8 MB


           ************************************************************
           *        Program running with 8 parallel MPI-processes     *
           *              working on a common directory               *
           ************************************************************

-------------------------------------------------------------------------------------------
                                      ORCA LEAN-SCF
                              memory conserving SCF solver
-------------------------------------------------------------------------------------------

----------------------------------------D-I-I-S--------------------------------------------
Iteration    Energy (Eh)           Delta-E    RMSDP     MaxDP     DIISErr   Damp  Time(sec)
-------------------------------------------------------------------------------------------
               ***  Starting incremental Fock matrix formation  ***
    1    -2911.7169914422006514     0.00e+00  1.37e-02  1.56e-01  6.01e-01  0.700   0.5
    2    -2911.7857418609100932    -6.88e-02  1.04e-02  1.09e-01  4.03e-01  0.700   0.7
    3    -2911.8167355977175248    -3.10e-02  5.94e-03  4.99e-02  2.71e-01  0.700   0.6
                               ***Turning on AO-DIIS***
    4    -2911.8340343506874888    -1.73e-02  2.84e-03  2.15e-02  1.85e-01  0.700   0.5
    5    -2911.8458561750389890    -1.18e-02  1.50e-03  1.33e-02  1.32e-01  0.700   0.5
    6    -2911.8542621642272934    -8.41e-03  8.59e-04  7.56e-03  9.39e-02  0.700   0.2
    7    -2911.8603440109818621    -6.08e-03  2.54e-03  2.02e-02  6.60e-02  0.000   0.4
    8    -2911.8744983781430165    -1.42e-02  5.46e-04  3.73e-03  6.02e-03  0.000   0.2
                              *** Initializing SOSCF ***
---------------------------------------S-O-S-C-F--------------------------------------
Iteration    Energy (Eh)           Delta-E    RMSDP     MaxDP     MaxGrad    Time(sec)
--------------------------------------------------------------------------------------
    9    -2911.8745707296175169    -7.24e-05  1.98e-04  2.53e-03  1.48e-03     0.3
               *** Restarting incremental Fock matrix formation ***
   10    -2911.8745761537861654    -5.42e-06  1.33e-04  1.20e-03  2.64e-04     0.3
   11    -2911.8745756363650798     5.17e-07  6.92e-05  5.34e-04  4.09e-04     0.4
   12    -2911.8745767964733204    -1.16e-06  2.94e-05  2.94e-04  5.37e-05     0.4
   13    -2911.8745767884324778     8.04e-09  1.85e-05  1.82e-04  5.76e-05     0.5
                 **** Energy Check signals convergence ****

               *****************************************************
               *                     SUCCESS                       *
               *           SCF CONVERGED AFTER  13 CYCLES          *
               *****************************************************

             **** ENERGY FILE WAS UPDATED (product_optfreq.en.tmp) ****

----------------
TOTAL SCF ENERGY
----------------

Total Energy       :      -2911.87457682729473 Eh          -79236.13552 eV

Components:
Nuclear Repulsion  :        216.86039237216124 Eh            5901.07128 eV
Electronic Energy  :      -3128.73496919945592 Eh          -85137.20680 eV
One Electron Energy:      -4598.27603026966790 Eh         -125125.45204 eV
Two Electron Energy:       1469.54106107021175 Eh           39988.24523 eV

Virial components:
Potential Energy   :      -5634.50025889445897 Eh         -153322.54681 eV
Kinetic Energy     :       2722.62568206716469 Eh           74086.41129 eV
Virial Ratio       :          2.06950970014227

DFT components:
N(Alpha)           :       34.999993255360 electrons
N(Beta)            :       34.999993255360 electrons
N(Total)           :       69.999986510720 electrons
E(X)               :     -117.300020401102 Eh       
E(C)               :       -3.075611650178 Eh       
E(XC)              :     -120.375632051280 Eh       

---------------
SCF CONVERGENCE
---------------

  Last Energy change         ...   -8.0408e-09  Tolerance :   1.0000e-08
  Last MAX-Density change    ...    1.8199e-04  Tolerance :   1.0000e-07
  Last RMS-Density change    ...    1.8465e-05  Tolerance :   5.0000e-09
  Last DIIS Error            ...    1.4826e-03  Tolerance :   5.0000e-07
  Last Orbital Gradient      ...    5.7625e-05  Tolerance :   1.0000e-05
  Last Orbital Rotation      ...    6.5202e-05  Tolerance :   1.0000e-05


----------------
ORBITAL ENERGIES
----------------

  NO   OCC          E(Eh)            E(eV) 
   0   2.0000    -482.086023    -13118.2276 
   1   2.0000     -62.158044     -1691.4064 
   2   2.0000     -55.938978     -1522.1770 
   3   2.0000     -55.935527     -1522.0831 
   4   2.0000     -55.935526     -1522.0831 
   5   2.0000      -9.938005      -270.4269 
   6   2.0000      -8.490095      -231.0272 
   7   2.0000      -6.566736      -178.6900 
   8   2.0000      -6.296332      -171.3319 
   9   2.0000      -6.284521      -171.0105 
  10   2.0000      -6.284520      -171.0105 
  11   2.0000      -4.574964      -124.4911 
  12   2.0000      -4.574122      -124.4682 
  13   2.0000      -4.574122      -124.4682 
  14   2.0000      -2.394233       -65.1504 
  15   2.0000      -2.391403       -65.0734 
  16   2.0000      -2.391402       -65.0734 
  17   2.0000      -2.382400       -64.8284 
  18   2.0000      -2.382395       -64.8283 
  19   2.0000      -1.612220       -43.8707 
  20   2.0000      -1.611971       -43.8640 
  21   2.0000      -1.611971       -43.8640 
  22   2.0000      -1.611152       -43.8417 
  23   2.0000      -1.611151       -43.8416 
  24   2.0000      -0.631761       -17.1911 
  25   2.0000      -0.499225       -13.5846 
  26   2.0000      -0.403700       -10.9852 
  27   2.0000      -0.269175        -7.3246 
  28   2.0000      -0.268964        -7.3189 
  29   2.0000      -0.227576        -6.1927 
  30   2.0000      -0.128160        -3.4874 
  31   2.0000      -0.128131        -3.4866 
  32   2.0000      -0.028780        -0.7831 
  33   2.0000      -0.028183        -0.7669 
  34   2.0000      -0.028181        -0.7668 
  35   0.0000       0.113531         3.0893 
  36   0.0000       0.233805         6.3622 
  37   0.0000       0.296577         8.0703 
  38   0.0000       0.296885         8.0787 
  39   0.0000       0.320436         8.7195 
  40   0.0000       0.320500         8.7213 
  41   0.0000       0.332329         9.0431 
  42   0.0000       0.343493         9.3469 
  43   0.0000       0.370931        10.0935 
  44   0.0000       0.370934        10.0936 
  45   0.0000       0.393444        10.7062 
*Only the first 10 virtual orbitals were printed.

                    ********************************
                    * MULLIKEN POPULATION ANALYSIS *
                    ********************************

-----------------------
MULLIKEN ATOMIC CHARGES
-----------------------
   0 C :   -0.340739
   1 H :    0.191439
   2 H :    0.191467
   3 H :    0.191526
   4 Br:   -0.325521
   5 I :   -0.908172
Sum of atomic charges:   -1.0000000

--------------------------------
MULLIKEN REDUCED ORBITAL CHARGES
--------------------------------
  0 C s       :     3.297434  s :     3.297434
      pz      :     0.745806  p :     3.017284
      px      :     1.135776
      py      :     1.135702
      dz2     :     0.009332  d :     0.026021
      dxz     :     0.004046
      dyz     :     0.004045
      dx2y2   :     0.004299
      dxy     :     0.004299

  1 H s       :     0.789176  s :     0.789176
      pz      :     0.004938  p :     0.019385
      px      :     0.003537
      py      :     0.010910

  2 H s       :     0.789136  s :     0.789136
      pz      :     0.004942  p :     0.019397
      px      :     0.009074
      py      :     0.005381

  3 H s       :     0.789046  s :     0.789046
      pz      :     0.004951  p :     0.019429
      px      :     0.009084
      py      :     0.005394

  4 Brs       :     7.956286  s :     7.956286
      pz      :     5.348387  p :    17.328932
      px      :     5.990269
      py      :     5.990276
      dz2     :     2.020340  d :    10.040303
      dxz     :     2.009904
      dyz     :     2.009913
      dx2y2   :     2.000073
      dxy     :     2.000073

  5 I s       :     3.988840  s :     3.988840
      pz      :     3.919433  p :    11.913988
      px      :     3.997277
      py      :     3.997278
      dz2     :     2.002875  d :    10.005343
      dxz     :     2.001213
      dyz     :     2.001214
      dx2y2   :     2.000020
      dxy     :     2.000020



                     *******************************
                     * LOEWDIN POPULATION ANALYSIS *
                     *******************************

----------------------
LOEWDIN ATOMIC CHARGES
----------------------
   0 C :   -0.563130
   1 H :    0.161777
   2 H :    0.161723
   3 H :    0.161573
   4 Br:   -0.075104
   5 I :   -0.846839

-------------------------------
LOEWDIN REDUCED ORBITAL CHARGES
-------------------------------
  0 C s       :     3.100048  s :     3.100048
      pz      :     0.986426  p :     3.403378
      px      :     1.208509
      py      :     1.208444
      dz2     :     0.020907  d :     0.059703
      dxz     :     0.008739
      dyz     :     0.008730
      dx2y2   :     0.010665
      dxy     :     0.010662

  1 H s       :     0.790409  s :     0.790409
      pz      :     0.010490  p :     0.047814
      px      :     0.008241
      py      :     0.029083

  2 H s       :     0.790427  s :     0.790427
      pz      :     0.010499  p :     0.047850
      px      :     0.023893
      py      :     0.013458

  3 H s       :     0.790482  s :     0.790482
      pz      :     0.010525  p :     0.047945
      px      :     0.023925
      py      :     0.013496

  4 Brs       :     7.732439  s :     7.732439
      pz      :     5.348793  p :    17.283708
      px      :     5.967453
      py      :     5.967462
      dz2     :     2.034950  d :    10.058958
      dxz     :     2.011916
      dyz     :     2.011927
      dx2y2   :     2.000082
      dxy     :     2.000083

  5 I s       :     3.964513  s :     3.964513
      pz      :     3.880403  p :    11.868251
      px      :     3.993923
      py      :     3.993926
      dz2     :     2.007958  d :    10.014075
      dxz     :     2.003010
      dyz     :     2.003013
      dx2y2   :     2.000047
      dxy     :     2.000047



                      *****************************
                      * MAYER POPULATION ANALYSIS *
                      *****************************

  NA   - Mulliken gross atomic population
  ZA   - Total nuclear charge
  QA   - Mulliken gross atomic charge
  VA   - Mayer's total valence
  BVA  - Mayer's bonded valence
  FA   - Mayer's free valence

  ATOM       NA         ZA         QA         VA         BVA        FA
  0 C      6.3407     6.0000    -0.3407     3.7937     3.7937     0.0000
  1 H      0.8086     1.0000     0.1914     0.9462     0.9462    -0.0000
  2 H      0.8085     1.0000     0.1915     0.9462     0.9462    -0.0000
  3 H      0.8085     1.0000     0.1915     0.9462     0.9462     0.0000
  4 Br    35.3255    35.0000    -0.3255     0.8917     0.8917    -0.0000
  5 I     25.9082    25.0000    -0.9082     0.1721     0.1721    -0.0000

  Mayer bond orders larger than 0.100000
B(  0-C ,  1-H ) :   0.9507 B(  0-C ,  2-H ) :   0.9507 B(  0-C ,  3-H ) :   0.9507 
B(  0-C ,  4-Br) :   0.8275 B(  0-C ,  5-I ) :   0.1140 

-------
TIMINGS
-------

Total SCF time: 0 days 0 hours 0 min 6 sec 

Total time                  ....       6.251 sec
Sum of individual times     ....       5.850 sec  ( 93.6%)

SCF preparation             ....       0.324 sec  (  5.2%)
Fock matrix formation       ....       4.554 sec  ( 72.8%)
  Startup                   ....       0.017 sec  (  0.4% of F)
  Split-RI-J                ....       0.940 sec  ( 20.6% of F)
  XC integration            ....       3.521 sec  ( 77.3% of F)
    XC Preparation          ....       0.000 sec  (  0.0% of XC)
    Basis function eval.    ....       0.417 sec  ( 11.9% of XC)
    Density eval.           ....       0.700 sec  ( 19.9% of XC)
    XC-Functional eval.     ....       0.527 sec  ( 15.0% of XC)
    XC-Potential eval.      ....       0.743 sec  ( 21.1% of XC)
Diagonalization             ....       0.000 sec  (  0.0%)
Density matrix formation    ....       0.129 sec  (  2.1%)
Total Energy calculation    ....       0.109 sec  (  1.7%)
Population analysis         ....       0.010 sec  (  0.2%)
Orbital Transformation      ....       0.017 sec  (  0.3%)
Orbital Orthonormalization  ....       0.000 sec  (  0.0%)
DIIS solution               ....       0.584 sec  (  9.3%)
SOSCF solution              ....       0.124 sec  (  2.0%)
Finished LeanSCF after   6.3 sec

Maximum memory used throughout the entire LEANSCF-calculation: 7.0 MB


           ************************************************************
           *        Program running with 8 parallel MPI-processes     *
           *              working on a common directory               *
           ************************************************************

------------------------------------------------------------------------------
                         ORCA PROPERTY INTEGRAL CALCULATIONS
------------------------------------------------------------------------------

GBWName                                   ... product_optfreq.gbw
Number of atoms                           ...      6
Number of basis functions                 ...    106
Max core memory                           ...   4096 MB

Dipole integrals                          ... YES
Quadrupole integrals                      ...  NO
Linear momentum integrals                 ...  NO
Angular momentum integrals                ...  NO
Higher moments length integrals           ...  NO
Higher moments velocity integrals         ...  NO
Kinetic energy integrals                  ...  NO
GIAO right hand sides                     ...  NO
GIAO dipole derivative integrals          ...  NO
SOC integrals                             ...  NO
EPR diamagnetic integrals (GIAO)          ...  NO
EPR gauge integrals                       ...  NO
Field gradient integrals                  ...  NO (   0 nuclei)
Spin-dipole/Fermi contact integrals       ...  NO (   0 nuclei)
Contact density integrals                 ...  NO (   0 nuclei)
Nucleus-orbit integrals                   ...  NO (   0 nuclei)
Geometric perturbations                   ...  NO (   6 nuclei)

Choice of electric origin   ... Center of mass
Position of electric origin ... ( -0.0000, -0.0000, -1.3594) 
Choice of magnetic origin   ... GIAO
Position of magnetic origin ... (  0.0000,  0.0000,  0.0000) 

Calculating integrals                     ... Electric Dipole (Length)     done (  0.0 sec)

Property integrals calculated in   0.0 sec

Maximum memory used throughout the entire PROPINT-calculation: 7.4 MB


-------------------------------------------------------------------------------
                          DFT DISPERSION CORRECTION                            
                                                                               
                                DFTD4 V3.4.0                                   
-------------------------------------------------------------------------------
The R2SCAN3C composite method is recognized
Using three-body term ABC
Active option DFTDOPT                   ...         5   

-------------------------   ----------------
Dispersion correction           -0.001255790
-------------------------   ----------------

------------------   -----------------
gCP correction             0.003197248
------------------   -----------------

-------------------------   --------------------
FINAL SINGLE POINT ENERGY     -2911.872635369322
-------------------------   --------------------



           ************************************************************
           *        Program running with 8 parallel MPI-processes     *
           *              working on a common directory               *
           ************************************************************
------------------------------------------------------------------------------
                         ORCA SCF GRADIENT CALCULATION
------------------------------------------------------------------------------

Nuc. rep. gradient        (SHARK) ... done (  0.0 sec)
HCore & Overlap gradient  (SHARK) ... done (  0.1 sec)
ECP gradient              (SHARK) ... done (  0.2 sec)
Split-RIJ-J gradient      (SHARK) ... done (  1.4 sec)
XC gradient                       ... done (  0.6 sec)
Dispersion correction             ... done (  0.1 sec)

-------------------
DISPERSION GRADIENT
-------------------

   1   C   :    0.000000020    0.000000020    0.000013899
   2   H   :   -0.000000002    0.000003381    0.000007520
   3   H   :    0.000002934   -0.000001697    0.000007519
   4   H   :   -0.000002953   -0.000001706    0.000007515
   5   Br  :   -0.000000000   -0.000000000    0.000071160
   6   I   :    0.000000001    0.000000001   -0.000107614

Difference to translation invariance:
           :    0.0000000000   -0.0000000000    0.0000000000

Difference to rotation invariance:
           :    0.0000000000    0.0000000000    0.0000000000

Norm of the Dispersion gradient    ...    0.0001305444
RMS gradient                       ...    0.0000307696
MAX gradient                       ...    0.0001076142
gCP correction                   ... done

------------------
CARTESIAN GRADIENT
------------------

   1   C   :   -0.000509875   -0.000537715    0.007761337
   2   H   :    0.000021172   -0.002219968    0.000821240
   3   H   :   -0.002098596    0.001252914    0.000877322
   4   H   :    0.002571951    0.001501787    0.001025372
   5   Br  :    0.000014359    0.000014965   -0.019735976
   6   I   :    0.000000988   -0.000011983    0.009250705

Difference to translation invariance:
           :    0.0000000000    0.0000000000    0.0000000009

Difference to rotation invariance:
           :   -0.0000587261   -0.0000000023   -0.0000000378

Norm of the Cartesian gradient     ...    0.0236250021
RMS gradient                       ...    0.0055684664
MAX gradient                       ...    0.0197359757

-------
TIMINGS
-------

Total SCF gradient time     ....        2.402 sec

Densities                   ....       0.000 sec  (  0.0%)
One electron gradient       ....       0.086 sec  (  3.6%)
RI-J Coulomb gradient       ....       1.406 sec  ( 58.5%)
XC gradient                 ....       0.576 sec  ( 24.0%)

Maximum memory used throughout the entire SCFGRAD-calculation: 27.2 MB
------------------------------------------------------------------------------
                         ORCA GEOMETRY RELAXATION STEP
------------------------------------------------------------------------------

Reading the OPT-File                    .... done
Getting information on internals        .... done
Copying old internal coords+grads       .... done
Making the new internal coordinates     .... (2022 redundants) done
Validating the new internal coordinates .... (2022 redundants) done
Calculating the B-matrix                .... done
Calculating the G,G- and P matrices     .... done
Transforming gradient to internals      .... done
Projecting the internal gradient        .... done
Number of atoms                         ....   6
Number of internal coordinates          ....  17
Current Energy                          .... -2911.872635369 Eh
Current gradient norm                   ....     0.023625002 Eh/bohr
Maximum allowed component of the step   ....  0.300
Current trust radius                    ....  0.300
Evaluating the initial hessian          ....  (Almloef) done
Projecting the Hessian                  .... done
Forming the augmented Hessian           .... done
Diagonalizing the augmented Hessian     .... done
Last element of RFO vector              ....  0.938031384
Lowest eigenvalues of augmented Hessian:
 -0.003450356  0.011731244  0.042325700  0.042366615  0.190867948
Length of the computed step             ....  0.369444267
Warning: the length of the step is outside the trust region - taking restricted step instead
The input lambda is                     ....     0.009000
   iter:   5  x=    0.002792  g=  387.370600 f(x)=     0.875483
   iter:  10  x=   -0.006775  g=   10.134687 f(x)=     0.000817
The output lambda is                    ....    -0.006776 (13 iterations)
The final length of the internal step   ....  0.300000000
Converting the step to Cartesian space:
 Initial RMS(Int)=    0.0727606875
Transforming coordinates:
 Iter   0:  RMS(Cart)=    0.0407750490 RMS(Int)=    0.0728267190
done
Storing new coordinates                 .... done

                                .--------------------.
          ----------------------|Geometry convergence|-------------------------
          Item                value                   Tolerance       Converged
          ---------------------------------------------------------------------
          RMS gradient        0.0051640408            0.0001000000      NO
          MAX gradient        0.0197359719            0.0003000000      NO
          RMS step            0.0727606875            0.0020000000      NO
          MAX step            0.1610557190            0.0040000000      NO
          -------------------------------------------------------------------------
          ........................................................
          Max(Bonds)      0.0852      Max(Angles)    0.37
          Max(Dihed)        0.00      Max(Improp)    0.00
          ---------------------------------------------------------------------

The optimization has not yet converged - more geometry cycles are needed


    ---------------------------------------------------------------------------
                         Redundant Internal Coordinates
                            (Angstroem and degrees)

        Definition                    Value    dE/dq     Step     New-Value
    ----------------------------------------------------------------------------
     1. B(H   1,C   0)                1.0807 -0.002287  0.0031    1.0839   
     2. B(H   2,C   0)                1.0804 -0.002516  0.0035    1.0839   
     3. B(H   3,C   0)                1.0796 -0.003070  0.0042    1.0839   
     4. B(Br  4,C   0)                1.9721 -0.019736  0.0411    2.0132   
     5. B(I   5,H   2)                3.0115 -0.001700  0.0733    3.0848   
     6. B(I   5,H   1)                3.0115 -0.001682  0.0732    3.0846   
     7. B(I   5,H   3)                3.0114 -0.001701  0.0734    3.0848   
     8. B(I   5,C   0)                3.1523 -0.004475  0.0852    3.2375   
     9. A(H   1,C   0,H   3)          111.48  0.001191   -0.34    111.14   
    10. A(H   2,C   0,H   3)          111.50  0.001225   -0.35    111.15   
    11. A(H   1,C   0,Br  4)          107.37 -0.001322    0.37    107.75   
    12. A(H   2,C   0,Br  4)          107.38 -0.001311    0.37    107.75   
    13. A(H   3,C   0,Br  4)          107.40 -0.001238    0.36    107.76   
    14. A(H   1,C   0,I   5)           72.61  0.001288   -0.37     72.24   
    15. A(H   2,C   0,I   5)           72.61  0.001285   -0.37     72.25   
    16. A(H   3,C   0,I   5)           72.61  0.001297   -0.37     72.25   
    17. A(H   1,C   0,H   2)          111.44  0.001141   -0.33    111.11   
    ----------------------------------------------------------------------------

Geometry step timings:
Preparation and reading OPT file:      0.000 s ( 2.804 %)
Internal coordinates            :      0.000 s ( 3.573 %)
B/P matrices and projection     :      0.000 s (10.665 %)
Hessian update/contruction      :      0.001 s (32.820 %)
Making the step                 :      0.000 s (15.118 %)
Converting the step to Cartesian:      0.000 s ( 3.299 %)
Storing new data                :      0.000 s ( 6.872 %)
Checking convergence            :      0.000 s ( 4.838 %)
Final printing                  :      0.000 s (19.571 %)
Total time                      :      0.002 s

Time for energy+gradient        :     18.305 s
Time for complete geometry iter :     18.860 s

         *************************************************************
         *                GEOMETRY OPTIMIZATION CYCLE   2            *
         *************************************************************
---------------------------------
CARTESIAN COORDINATES (ANGSTROEM)
---------------------------------
  C     -0.000075   -0.000118    0.389231
  H      0.000138    1.032140    0.058672
  H      0.894039   -0.516038    0.058728
  H     -0.894026   -0.516188    0.058663
  Br     0.000043    0.000183    2.402397
  I     -0.000003    0.000136   -2.848226

----------------------------
CARTESIAN COORDINATES (A.U.)
----------------------------
  NO LB      ZA    FRAG     MASS         X           Y           Z
   0 C     6.0000    0    12.011   -0.000143   -0.000223    0.735539
   1 H     1.0000    0     1.008    0.000260    1.950462    0.110875
   2 H     1.0000    0     1.008    1.689490   -0.975171    0.110980
   3 H     1.0000    0     1.008   -1.689464   -0.975454    0.110857
   4 Br   35.0000    0    79.900    0.000081    0.000346    4.539873
   5 I    25.0000*   0   126.900   -0.000005    0.000257   -5.382368
* core charge reduced due to ECP

--------------------------------
INTERNAL COORDINATES (ANGSTROEM)
--------------------------------
 C      0   0   0     0.000000000000     0.00000000     0.00000000
 H      1   0   0     1.083893595312     0.00000000     0.00000000
 H      1   2   0     1.083903528882   111.10962356     0.00000000
 H      1   2   3     1.083858940400   111.13744653   235.67855043
 Br     1   2   3     2.013166761768   107.74796544   117.82523232
 I      2   1   3     3.084654289843    88.21072828    62.16988350

---------------------------
INTERNAL COORDINATES (A.U.)
---------------------------
 C      0   0   0     0.000000000000     0.00000000     0.00000000
 H      1   0   0     2.048262053451     0.00000000     0.00000000
 H      1   2   0     2.048280825178   111.10962356     0.00000000
 H      1   2   3     2.048196565159   111.13744653   235.67855043
 Br     1   2   3     3.804333841655   107.74796544   117.82523232
 I      2   1   3     5.829151825629    88.21072828    62.16988350



           ************************************************************
           *        Program running with 8 parallel MPI-processes     *
           *              working on a common directory               *
           ************************************************************
------------------------------------------------------------------------------
                   ___                                                        
                  /   \      - P O W E R E D   B Y -                         
                 /     \                                                     
                 |  |  |   _    _      __       _____    __    __             
                 |  |  |  | |  | |    /  \     |  _  \  |  |  /  |          
                  \  \/   | |  | |   /    \    | | | |  |  | /  /          
                 / \  \   | |__| |  /  /\  \   | |_| |  |  |/  /          
                |  |  |   |  __  | /  /__\  \  |    /   |      \           
                |  |  |   | |  | | |   __   |  |    \   |  |\   \          
                \     /   | |  | | |  |  |  |  | |\  \  |  | \   \       
                 \___/    |_|  |_| |__|  |__|  |_| \__\ |__|  \__/        
                                                                              
                      - O R C A' S   B I G   F R I E N D -                    
                                      &                                       
                       - I N T E G R A L  F E E D E R -                       
                                                                              
 v1 FN, 2020, v2 2021, v3 2022-2024                                           
------------------------------------------------------------------------------


----------------------
SHARK INTEGRAL PACKAGE
----------------------

Number of atoms                             ...      6
Number of basis functions                   ...    106
Number of shells                            ...     46
Maximum angular momentum                    ...      2
Integral batch strategy                     ... SHARK/LIBINT Hybrid
RI-J (if used) integral strategy            ... SPLIT-RIJ (Revised 2003 algorithm where possible)
Printlevel                                  ...      1
Contraction scheme used                     ... SEGMENTED contraction
Prescreening option                         ... SCHWARTZ
   Thresh                                   ... 2.500e-11
   Tcut                                     ... 2.500e-12
   Tpresel                                  ... 2.500e-12 
Coulomb Range Separation                    ... NOT USED
Exchange Range Separation                   ... NOT USED
Multipole approximations                    ... NOT USED
Finite Nucleus Model                        ... NOT USED
CABS basis                                  ... NOT available
Auxiliary Coulomb fitting basis             ... AVAILABLE
   # of basis functions in Aux-J            ...    179
   # of shells in Aux-J                     ...     63
   Maximum angular momentum in Aux-J        ...      4
Auxiliary J/K fitting basis                 ... NOT available
Auxiliary Correlation fitting basis         ... NOT available
Auxiliary 'external' fitting basis          ... NOT available

Checking pre-screening integrals            ... done (  0.0 sec) Dimension = 46
   => SHARK Basis and OBASIS are compatible. Storing Pre-screening
Shell pair information
Shell pair cut-off parameter TPreSel        ...   2.5e-12
Total number of shell pairs                 ...      1081
Shell pairs after pre-screening             ...       954
Total number of primitive shell pairs       ...      5082
Primitive shell pairs kept                  ...      3333
          la=0 lb=0:    239 shell pairs
          la=1 lb=0:    327 shell pairs
          la=1 lb=1:    125 shell pairs
          la=2 lb=0:    138 shell pairs
          la=2 lb=1:    101 shell pairs
          la=2 lb=2:     24 shell pairs

Checking whether 4 symmetric matrices of dimension 106 fit in memory
:Max Core in MB      =   4096.00
 MB in use           =      4.71
 MB left             =   4091.29
 MB needed           =      0.17
 Data fit in memory  = YES
Calculating RI/J V-Matrix + Cholesky decomp.... done (  0.0 sec)
Calculating Nuclear repulsion               ... done (  0.0 sec) ENN=    212.142379092742 Eh

Diagonalization of the overlap matrix:
Smallest eigenvalue                        ... 4.862e-03
Time for diagonalization                   ...    0.001 sec
Threshold for overlap eigenvalues          ... 1.000e-07
Number of eigenvalues below threshold      ... 0
Time for construction of square roots      ...    0.001 sec
Total time needed                          ...    0.003 sec

-------------------
DFT GRID GENERATION
-------------------

General Integration Accuracy     IntAcc      ... 4.388
Radial Grid Type                 RadialGrid  ... OptM3 with GC (2021)
Angular Grid (max. ang.)         AngularGrid ... 4 (Lebedev-302)
Angular grid pruning method      GridPruning ... 4 (adaptive)
Weight generation scheme         WeightScheme... mBecke (2022)
Basis function cutoff            BFCut       ... 1.0000e-11
Integration weight cutoff        WCut        ... 1.0000e-14
Partially contracted basis set               ... off
Rotationally invariant grid construction     ... off
Angular grids for H and He will be reduced by one unit
Core-polarized basis detected: some atoms will have their core
                               angular grid increased.

Total number of grid points                  ...    38834
Total number of batches                      ...      611
Average number of points per batch           ...       63
Average number of grid points per atom       ...     6472
Grids setup in   1.6 sec
Initializing property integral containers    ... done (  0.0 sec)

SHARK setup successfully completed in   1.9 seconds

Maximum memory used throughout the entire STARTUP-calculation: 14.1 MB


           ************************************************************
           *        Program running with 8 parallel MPI-processes     *
           *              working on a common directory               *
           ************************************************************
Occupation numbers will be reassigned to an Aufbau configuration
             **** ENERGY FILE WAS UPDATED (product_optfreq.en.tmp) ****
Finished Guess after   0.7 sec
Maximum memory used throughout the entire GUESS-calculation: 7.3 MB


           ************************************************************
           *        Program running with 8 parallel MPI-processes     *
           *              working on a common directory               *
           ************************************************************
----------------------------------------D-I-I-S--------------------------------------------
Iteration    Energy (Eh)           Delta-E    RMSDP     MaxDP     DIISErr   Damp  Time(sec)
-------------------------------------------------------------------------------------------
               ***  Starting incremental Fock matrix formation  ***
    1    -2911.8762298579736125     0.00e+00  3.04e-04  1.75e-03  7.77e-03  0.700   0.4
    2    -2911.8763118288602527    -8.20e-05  3.16e-04  2.26e-03  5.58e-03  0.700   0.5
                               ***Turning on AO-DIIS***
    3    -2911.8763714987394451    -5.97e-05  2.75e-04  2.18e-03  3.79e-03  0.700   0.5
                              *** Initializing SOSCF ***
---------------------------------------S-O-S-C-F--------------------------------------
Iteration    Energy (Eh)           Delta-E    RMSDP     MaxDP     MaxGrad    Time(sec)
--------------------------------------------------------------------------------------
    4    -2911.8764130268054942    -4.15e-05  7.19e-04  5.99e-03  2.89e-03     0.5
               *** Restarting incremental Fock matrix formation ***
    5    -2911.8765115277610676    -9.85e-05  9.86e-05  7.11e-04  2.55e-04     0.3
    6    -2911.8765107395483938     7.88e-07  4.97e-05  2.78e-04  4.74e-04     0.1
    7    -2911.8765120366438168    -1.30e-06  7.79e-06  7.66e-05  1.57e-05     0.4
    8    -2911.8765120382668101    -1.62e-09  4.16e-06  4.01e-05  1.58e-05     0.4
                 **** Energy Check signals convergence ****

               *****************************************************
               *                     SUCCESS                       *
               *           SCF CONVERGED AFTER   8 CYCLES          *
               *****************************************************

             **** ENERGY FILE WAS UPDATED (product_optfreq.en.tmp) ****

----------------
TOTAL SCF ENERGY
----------------

Total Energy       :      -2911.87651204209487 Eh          -79236.18818 eV

Components:
Nuclear Repulsion  :        212.14237909274200 Eh            5772.68761 eV
Electronic Energy  :      -3124.01889113483685 Eh          -85008.87580 eV
One Electron Energy:      -4588.75767678236753 Eh         -124866.44447 eV
Two Electron Energy:       1464.73878564753090 Eh           39857.56868 eV

Virial components:
Potential Energy   :      -5634.42213237153373 Eh         -153320.42088 eV
Kinetic Energy     :       2722.54562032943841 Eh           74084.23270 eV
Virial Ratio       :          2.06954186196143

DFT components:
N(Alpha)           :       34.999990473153 electrons
N(Beta)            :       34.999990473153 electrons
N(Total)           :       69.999980946306 electrons
E(X)               :     -117.281308765884 Eh       
E(C)               :       -3.073115867374 Eh       
E(XC)              :     -120.354424633258 Eh       

---------------
SCF CONVERGENCE
---------------

  Last Energy change         ...    1.6230e-09  Tolerance :   1.0000e-08
  Last MAX-Density change    ...    4.0112e-05  Tolerance :   1.0000e-07
  Last RMS-Density change    ...    4.1610e-06  Tolerance :   5.0000e-09
  Last DIIS Error            ...    2.8928e-03  Tolerance :   5.0000e-07
  Last Orbital Gradient      ...    1.5808e-05  Tolerance :   1.0000e-05
  Last Orbital Rotation      ...    2.1634e-05  Tolerance :   1.0000e-05


Total SCF time: 0 days 0 hours 0 min 3 sec 
Finished LeanSCF after   3.5 sec

Maximum memory used throughout the entire LEANSCF-calculation: 7.0 MB


           ************************************************************
           *        Program running with 8 parallel MPI-processes     *
           *              working on a common directory               *
           ************************************************************

------------------------------------------------------------------------------
                         ORCA PROPERTY INTEGRAL CALCULATIONS
------------------------------------------------------------------------------

GBWName                                   ... product_optfreq.gbw
Number of atoms                           ...      6
Number of basis functions                 ...    106
Max core memory                           ...   4096 MB

Dipole integrals                          ... YES
Quadrupole integrals                      ...  NO
Linear momentum integrals                 ...  NO
Angular momentum integrals                ...  NO
Higher moments length integrals           ...  NO
Higher moments velocity integrals         ...  NO
Kinetic energy integrals                  ...  NO
GIAO right hand sides                     ...  NO
GIAO dipole derivative integrals          ...  NO
SOC integrals                             ...  NO
EPR diamagnetic integrals (GIAO)          ...  NO
EPR gauge integrals                       ...  NO
Field gradient integrals                  ...  NO (   0 nuclei)
Spin-dipole/Fermi contact integrals       ...  NO (   0 nuclei)
Contact density integrals                 ...  NO (   0 nuclei)
Nucleus-orbit integrals                   ...  NO (   0 nuclei)
Geometric perturbations                   ...  NO (   6 nuclei)

Choice of electric origin   ... Center of mass
Position of electric origin ... (  0.0000,  0.0003, -1.4025) 
Choice of magnetic origin   ... GIAO
Position of magnetic origin ... (  0.0000,  0.0000,  0.0000) 

Calculating integrals                     ... Electric Dipole (Length)     done (  0.0 sec)

Property integrals calculated in   0.0 sec

Maximum memory used throughout the entire PROPINT-calculation: 7.3 MB


-------------------------------------------------------------------------------
                          DFT DISPERSION CORRECTION                            
                                                                               
                                DFTD4 V3.4.0                                   
-------------------------------------------------------------------------------
-------------------------   ----------------
Dispersion correction           -0.001233283
-------------------------   ----------------

------------------   -----------------
gCP correction             0.002986727
------------------   -----------------

-------------------------   --------------------
FINAL SINGLE POINT ENERGY     -2911.874758598068
-------------------------   --------------------



           ************************************************************
           *        Program running with 8 parallel MPI-processes     *
           *              working on a common directory               *
           ************************************************************
------------------------------------------------------------------------------
                         ORCA SCF GRADIENT CALCULATION
------------------------------------------------------------------------------

Nuc. rep. gradient        (SHARK) ... done (  0.0 sec)
HCore & Overlap gradient  (SHARK) ... done (  0.0 sec)
ECP gradient              (SHARK) ... done (  0.1 sec)
Split-RIJ-J gradient      (SHARK) ... done (  1.3 sec)
XC gradient                       ... done (  0.5 sec)
Dispersion correction             ... done (  0.2 sec)

-------------------
DISPERSION GRADIENT
-------------------

   1   C   :    0.000000003   -0.000000000    0.000014675
   2   H   :   -0.000000001    0.000003333    0.000008248
   3   H   :    0.000002887   -0.000001670    0.000008249
   4   H   :   -0.000002890   -0.000001669    0.000008247
   5   Br  :    0.000000001    0.000000002    0.000069065
   6   I   :   -0.000000001    0.000000004   -0.000108484

Difference to translation invariance:
           :   -0.0000000000    0.0000000000    0.0000000000

Difference to rotation invariance:
           :   -0.0000000000   -0.0000000000   -0.0000000000

Norm of the Dispersion gradient    ...    0.0001303515
RMS gradient                       ...    0.0000307241
MAX gradient                       ...    0.0001084839
gCP correction                   ... done

------------------
CARTESIAN GRADIENT
------------------

   1   C   :   -0.000061143   -0.000069258    0.005242306
   2   H   :    0.000024605   -0.001151781   -0.001488754
   3   H   :   -0.000991866    0.000616763   -0.001501890
   4   H   :    0.001023132    0.000606401   -0.001495013
   5   Br  :    0.000005448    0.000007758   -0.005885961
   6   I   :   -0.000000177   -0.000009883    0.005129311

Difference to translation invariance:
           :   -0.0000000000    0.0000000000    0.0000000004

Difference to rotation invariance:
           :   -0.0000281731    0.0000000818    0.0000000060

Norm of the Cartesian gradient     ...    0.0099628265
RMS gradient                       ...    0.0023482607
MAX gradient                       ...    0.0058859606

-------
TIMINGS
-------

Total SCF gradient time     ....        2.096 sec

Densities                   ....       0.000 sec  (  0.0%)
One electron gradient       ....       0.009 sec  (  0.4%)
RI-J Coulomb gradient       ....       1.284 sec  ( 61.2%)
XC gradient                 ....       0.485 sec  ( 23.2%)

Maximum memory used throughout the entire SCFGRAD-calculation: 27.2 MB
------------------------------------------------------------------------------
                         ORCA GEOMETRY RELAXATION STEP
------------------------------------------------------------------------------

Reading the OPT-File                    .... done
Getting information on internals        .... done
Copying old internal coords+grads       .... done
Making the new internal coordinates     .... (2022 redundants) done
Validating the new internal coordinates .... (2022 redundants) done
Calculating the B-matrix                .... done
Calculating the G,G- and P matrices     .... done
Transforming gradient to internals      .... done
Projecting the internal gradient        .... done
Number of atoms                         ....   6
Number of internal coordinates          ....  17
Current Energy                          .... -2911.874758598 Eh
Current gradient norm                   ....     0.009962827 Eh/bohr
Maximum allowed component of the step   ....  0.300
Current trust radius                    ....  0.300
[...]



--------------------
Rotational spectrum 
--------------------
 
Rotational constants in cm-1:             5.170395             0.011345             0.011345 
Rotational constants in MHz :        155004.552227           340.107373           340.107353 

Dipole components along the rotational axes: 
x,y,z [a.u.] :     2.123742    -0.000364     0.000015 
x,y,z [Debye]:     5.398123    -0.000924     0.000037 

 

Dipole moment calculation done in   0.0 sec 

-----------
SCF HESSIAN
-----------

Occupied/Occupied contributions to the Hessian:
   => Occupied/Occupied contributions              ... done (  0.0 sec)
Perturbed density contributions to the Hessian:
   => Perturbed density contributions              ... done (  0.0 sec)
Explicit contributions to the Hessian:
   => Nuclear repulsion Hessian                    ... done (  0.0 sec)
   => HCore and overlap Hessian                    ... done (  0.4 sec)
   => ECP Hessian                                  ... done (  2.0 sec)
   => RI-J Hessian                                 ... done (  2.3 sec)
   => XC-Hessian                                   ... done (  2.9 sec)
   => Van der Waals-Hessian                        ... done (  0.4 sec)
   => GCP-Hessian                                  ... done (  0.0 sec)
   => Explicit contributions done
Dipole derivatives                                 ... done (  0.1 sec)
Mass weighting the Hessian           ... done
Calculating normal modes             ... done
Scaling frequencies                  ... done

-----------------------
VIBRATIONAL FREQUENCIES
-----------------------

Scaling factor for frequencies =  1.000000000  (already applied!)

     0:       0.00 cm**-1
     1:       0.00 cm**-1
     2:       0.00 cm**-1
     3:       0.00 cm**-1
     4:       0.00 cm**-1
     5:       0.00 cm**-1
     6:      64.62 cm**-1
     7:      82.25 cm**-1
     8:      82.30 cm**-1
     9:     443.56 cm**-1
    10:     913.70 cm**-1
    11:     914.08 cm**-1
    12:    1249.86 cm**-1
    13:    1444.90 cm**-1
    14:    1444.94 cm**-1
    15:    3103.10 cm**-1
    16:    3247.12 cm**-1
    17:    3248.17 cm**-1


------------
NORMAL MODES
------------

These modes are the Cartesian displacements weighted by the diagonal matrix
M(i,i)=1/sqrt(m[i]) where m[i] is the mass of the displaced atom
Thus, these vectors are normalized but *not* orthogonal

                  0          1          2          3          4          5    
      0       0.000000   0.000000   0.000000   0.000000   0.000000   0.000000
      1       0.000000   0.000000   0.000000   0.000000   0.000000   0.000000
      2       0.000000   0.000000   0.000000   0.000000   0.000000   0.000000
      3       0.000000   0.000000   0.000000   0.000000   0.000000   0.000000
      4       0.000000   0.000000   0.000000   0.000000   0.000000   0.000000
      5       0.000000   0.000000   0.000000   0.000000   0.000000   0.000000
      6       0.000000   0.000000   0.000000   0.000000   0.000000   0.000000
      7       0.000000   0.000000   0.000000   0.000000   0.000000   0.000000
      8       0.000000   0.000000   0.000000   0.000000   0.000000   0.000000
      9       0.000000   0.000000   0.000000   0.000000   0.000000   0.000000
     10       0.000000   0.000000   0.000000   0.000000   0.000000   0.000000
     11       0.000000   0.000000   0.000000   0.000000   0.000000   0.000000
     12       0.000000   0.000000   0.000000   0.000000   0.000000   0.000000
     13       0.000000   0.000000   0.000000   0.000000   0.000000   0.000000
     14       0.000000   0.000000   0.000000   0.000000   0.000000   0.000000
     15       0.000000   0.000000   0.000000   0.000000   0.000000   0.000000
     16       0.000000   0.000000   0.000000   0.000000   0.000000   0.000000
     17       0.000000   0.000000   0.000000   0.000000   0.000000   0.000000
                  6          7          8          9         10         11    
      0       0.000032  -0.005222   0.423834   0.000005   0.000540  -0.098104
      1       0.006847  -0.423748  -0.005223  -0.000273   0.098122   0.000539
      2       0.444698   0.000998   0.000012  -0.671713   0.000097   0.000000
      3       0.000038  -0.006051   0.488504   0.000003  -0.001150   0.209934
      4       0.003952  -0.498830  -0.006148   0.067509  -0.124677  -0.000686
      5       0.424182  -0.242409  -0.002988  -0.416836  -0.775623  -0.004265
      6      -0.003724  -0.000990   0.495030   0.058584  -0.037873   0.145363
      7       0.010186  -0.489648  -0.012445  -0.034201  -0.188110   0.036331
      8       0.417447   0.119920   0.211994  -0.416384   0.383459   0.673331
      9       0.003799  -0.011176   0.494907  -0.058578   0.036268   0.145779
     10       0.010188  -0.489864   0.000373  -0.034202  -0.187700  -0.038396
     11       0.417415   0.125108  -0.208977  -0.416384   0.390840  -0.669076
     12      -0.000002   0.000613  -0.049777  -0.000001  -0.000046   0.008443
     13      -0.000825   0.049767   0.000613   0.000046  -0.008450  -0.000046
     14       0.417508   0.000712   0.000005   0.120551   0.000014   0.000000
     15      -0.000002   0.000253  -0.020518  -0.000000   0.000000  -0.000011
     16      -0.000322   0.020515   0.000253   0.000004   0.000009   0.000000
     17      -0.314967  -0.000564  -0.000004  -0.002399  -0.000007  -0.000000
                 12         13         14         15         16         17    
      0      -0.000000  -0.073389  -0.001207  -0.000002   0.000125  -0.097308
      1      -0.000093  -0.001208   0.073417   0.000132  -0.097313  -0.000125
      2       0.089922  -0.000001   0.000059   0.036592   0.000099  -0.000001
      3       0.000000   0.761395   0.012525  -0.000000   0.000024  -0.018874
      4      -0.165942  -0.002078   0.126294   0.557694   0.783111   0.000993
      5      -0.550004  -0.004248   0.258326  -0.144306  -0.218796  -0.000278
      6      -0.143012   0.101888  -0.383096   0.484132  -0.347171   0.581735
      7       0.083291   0.393196  -0.533157  -0.279636   0.181693  -0.346886
      8      -0.550931  -0.222536  -0.133386  -0.144372   0.109041  -0.188659
      9       0.143017   0.089228   0.386242  -0.484107   0.345676   0.582643
     10       0.083294  -0.375446  -0.545804  -0.279621   0.180800   0.347363
     11      -0.550926   0.226801  -0.125990  -0.144370   0.108561   0.188951
     12      -0.000000  -0.000861  -0.000014   0.000000  -0.000000   0.000156
     13       0.000008  -0.000014   0.000858  -0.000000   0.000155   0.000000
     14       0.006846  -0.000000   0.000003  -0.000103   0.000000   0.000000
     15       0.000000  -0.000078  -0.000001   0.000000  -0.000000   0.000013
     16      -0.000001  -0.000001   0.000078  -0.000000   0.000013   0.000000
     17       0.000300  -0.000000   0.000001   0.000041  -0.000000  -0.000000


-----------
IR SPECTRUM
-----------

 Mode   freq       eps      Int      T**2         TX        TY        TZ
       cm**-1   L/(mol*cm) km/mol    a.u.
----------------------------------------------------------------------------
  6:     64.62   0.002199   11.11  0.010621  ( 0.000002  0.000347  0.103057)
  7:     82.25   0.000780    3.94  0.002958  (-0.000670 -0.054384  0.000640)
  8:     82.30   0.000779    3.94  0.002954  ( 0.054344 -0.000670  0.000008)
  9:    443.56   0.062418  315.44  0.043914  (-0.000000 -0.000050 -0.209557)
 10:    913.70   0.000580    2.93  0.000198  (-0.000078 -0.014073  0.000090)
 11:    914.08   0.000583    2.95  0.000199  ( 0.014106 -0.000077 -0.000000)
 12:   1249.86   0.006909   34.91  0.001725  (-0.000000  0.000031  0.041532)
 13:   1444.90   0.001343    6.79  0.000290  ( 0.017028  0.000282 -0.000001)
 14:   1444.94   0.001356    6.85  0.000293  ( 0.000280 -0.017111  0.000104)
 15:   3103.10   0.000620    3.14  0.000062  ( 0.000000  0.000061  0.007899)
 16:   3247.12   0.000154    0.78  0.000015  (-0.000005  0.003846  0.000002)
 17:   3248.17   0.000163    0.82  0.000016  ( 0.003958  0.000005  0.000000)

* The epsilon (eps) is given for a Dirac delta lineshape.
** The dipole moment derivative (T) already includes vibrational overlap.

The first frequency considered to be a vibration is 6
The total number of vibrations considered is 12


--------------------------
THERMOCHEMISTRY AT 298.15K
--------------------------

Temperature         ...   298.15 K
Pressure            ...     1.00 atm
Total Mass          ...   221.84 AMU
Quasi RRHO          ...     True
Cut-Off Frequency   ...     1.00 cm^-1

Throughout the following assumptions are being made:
  (1) The electronic state is orbitally nondegenerate
  (2) There are no thermally accessible electronically excited states
  (3) Hindered rotations indicated by low frequency modes are not
      treated as such but are treated as vibrations and this may
      cause some error
  (4) All equations used are the standard statistical mechanics
      equations for an ideal gas
  (5) All vibrations are strictly harmonic

freq.      64.62  E(vib)   ...       0.50 
freq.      82.25  E(vib)   ...       0.48 
freq.      82.30  E(vib)   ...       0.48 
freq.     443.56  E(vib)   ...       0.17 
freq.     913.70  E(vib)   ...       0.03 
freq.     914.08  E(vib)   ...       0.03 
freq.    1249.86  E(vib)   ...       0.01 
freq.    1444.90  E(vib)   ...       0.00 
freq.    1444.94  E(vib)   ...       0.00 
freq.    3103.10  E(vib)   ...       0.00 
freq.    3247.12  E(vib)   ...       0.00 
freq.    3248.17  E(vib)   ...       0.00 

------------
INNER ENERGY
------------

The inner energy is: U= E(el) + E(ZPE) + E(vib) + E(rot) + E(trans)
    E(el)   - is the total energy from the electronic structure calculation
              = E(kin-el) + E(nuc-el) + E(el-el) + E(nuc-nuc)
    E(ZPE)  - the the zero temperature vibrational energy from the frequency calculation
    E(vib)  - the the finite temperature correction to E(ZPE) due to population
              of excited vibrational states
    E(rot)  - is the rotational thermal energy
    E(trans)- is the translational thermal energy

Summary of contributions to the inner energy U:
Electronic energy                ...  -2911.87577580 Eh
Zero point energy                ...      0.03699422 Eh      23.21 kcal/mol
Thermal vibrational correction   ...      0.00274083 Eh       1.72 kcal/mol
Thermal rotational correction    ...      0.00141627 Eh       0.89 kcal/mol
Thermal translational correction ...      0.00141627 Eh       0.89 kcal/mol
-----------------------------------------------------------------------
Total thermal energy                  -2911.83320821 Eh


Summary of corrections to the electronic energy:
(perhaps to be used in another calculation)
Total thermal correction                  0.00557337 Eh       3.50 kcal/mol
Non-thermal (ZPE) correction              0.03699422 Eh      23.21 kcal/mol
-----------------------------------------------------------------------
Total correction                          0.04256759 Eh      26.71 kcal/mol


--------
ENTHALPY
--------

The enthalpy is H = U + kB*T
                kB is Boltzmann's constant
Total thermal energy              ...  -2911.83320821 Eh 
Thermal Enthalpy correction       ...      0.00094421 Eh       0.59 kcal/mol
-----------------------------------------------------------------------
Total Enthalpy                    ...  -2911.83226400 Eh


Note: Rotational entropy computed according to Herzberg 
Infrared and Raman Spectra, Chapter V,1, Van Nostrand Reinhold, 1945 
Point Group:  Cs, Symmetry Number:   1  
Rotational constants in cm-1:     5.170400     0.011345     0.011345 

Vibrational entropy computed according to the QRRHO of S. Grimme
Chem.Eur.J. 2012 18 9955 using a reference frequency of 100.0 cm-1


-------
ENTROPY
-------

The entropy contributions are T*S = T*(S(el)+S(vib)+S(rot)+S(trans))
     S(el)   - electronic entropy
     S(vib)  - vibrational entropy
     S(rot)  - rotational entropy
     S(trans)- translational entropy
The entropies will be listed as multiplied by the temperature to get
units of energy

Electronic entropy                ...      0.00000000 Eh      0.00 kcal/mol
Vibrational entropy               ...      0.00531087 Eh      3.33 kcal/mol
Rotational entropy                ...      0.01296417 Eh      8.14 kcal/mol
Translational entropy             ...      0.01999968 Eh     12.55 kcal/mol
-----------------------------------------------------------------------
Final entropy term                ...      0.03827472 Eh     24.02 kcal/mol

In case the symmetry of your molecule has not been determined correctly
or in case you have a reason to use a different symmetry number we print 
out the resulting rotational entropy values for sn=1,12:

 non-linear molecules -----------------------------------
|  sn= 1 | S(rot)=       0.01296417 Eh      8.14 kcal/mol|
|  sn= 2 | S(rot)=       0.01230972 Eh      7.72 kcal/mol|
|  sn= 3 | S(rot)=       0.01192689 Eh      7.48 kcal/mol|
|  sn= 4 | S(rot)=       0.01165526 Eh      7.31 kcal/mol|
|  sn= 5 | S(rot)=       0.01144457 Eh      7.18 kcal/mol|
|  sn= 6 | S(rot)=       0.01127243 Eh      7.07 kcal/mol|
|  sn= 7 | S(rot)=       0.01112688 Eh      6.98 kcal/mol|
|  sn= 8 | S(rot)=       0.01100081 Eh      6.90 kcal/mol|
|  sn= 9 | S(rot)=       0.01088960 Eh      6.83 kcal/mol|
|  sn=10 | S(rot)=       0.01079012 Eh      6.77 kcal/mol|
|  sn=11 | S(rot)=       0.01070013 Eh      6.71 kcal/mol|
|  sn=12 | S(rot)=       0.01061797 Eh      6.66 kcal/mol|
 linear molecules ---------------------------------------
|  Dinfh | S(rot)=       0.00955479 Eh      6.00 kcal/mol|
|  Cinfv | S(rot)=       0.01020925 Eh      6.41 kcal/mol|
 --------------------------------------------------------


-------------------
GIBBS FREE ENERGY
-------------------

The Gibbs free energy is G = H - T*S

Total enthalpy                    ...  -2911.83226400 Eh 
Total entropy correction          ...     -0.03827472 Eh    -24.02 kcal/mol
-----------------------------------------------------------------------
Final Gibbs free energy         ...  -2911.87053872 Eh

For completeness - the Gibbs free energy minus the electronic energy
G-E(el)                           ...      0.00523708 Eh      3.29 kcal/mol


Maximum memory used throughout the entire PROP-calculation: 32.3 MB

--------------------------------
SUGGESTED CITATIONS FOR THIS RUN
--------------------------------

Below you find a list of papers that are relevant to this ORCA run
We neither can nor want to force you to cite these papers, but we appreciate if you do
You receive ORCA, which is the product of decades of hard work by many enthusiastic individuals, for free
The only thing we kindly ask in return is that you cite our papers,
We deeply appreciate it, if you show your appreciation for ORCA by not just citing the generic ORCA reference.

Please note that relegating all ORCA citations to the supporting information does *not* help us.
SI sections are not indexed - citations you put there will not count into any citation statistics
But we need these citations in order to attract the funding resources that allow us to do what we are doing

Therefore, if you are a happy ORCA user, please consider citing a few of the papers listed below in the main body of your paper

In addition to the list printed below, the program has created the file product_optfreq.bibtex that contains the list in bibtex format
You can import this file easily into all common literature databanks and citation aid programs


List of essential papers. We consider these as the minimum necessary citations

  1. Grimme, S.; Hansen, A.; Ehlert, S.; Mewes, J.
     r2SCAN-3c: A 'Swiss army knife' composite electronic-structure method
     J. Chem. Phys. 2021 154 , 064103
     doi.org/10.1063/5.0040021
  2. Neese, F.
     Software update: the ORCA program system, version 6.0
     WIRES Comput. Molec. Sci. 2025 15(1), e70019
     doi.org/10.1002/wcms.7019

List of papers to cite with high priority. The work reported in these papers was absolutely
necessary for this run to complete.
Our perspective: the developers of density functionals and basis sets usually get cited in chemistry papers
Good! But without the algorithms to do something with them, the functionals or basis sets would not do anything.
Hence, in our opinion, the algorithm design and method developments papers are equally worthy of getting cited

  1. Neese, F.
     An improvement of the resolution of the identity approximation for the formation of the Coulomb matrix
     J. Comp. Chem. 2003 24(14), 1740-1747
     doi.org/10.1002/jcc.10318
  2. Bykov, D.; Petrenko, T.; Izsak, R.; Kossmann, S.; Becker, U.; Valeev, E.; Neese, F.
     Efficient implementation of the analytic second derivatives of Hartree-Fock and hybrid DFT energies: a detailed analysis of different approximations
     Molec. Phys. 2015 113 , 1961-1977
     doi.org/10.1080/00268976.2015.1025114
  3. Caldeweyher, E.; Bannwarth, C.; Grimme, S.
     Extension of the D3 dispersion coefficient model
     J. Chem. Phys. 2017 147 , 034112
     doi.org/10.1063/1.4993215
  4. Lehtola, S.; Steigemann, C.; Oliveira, M.; Marques, M.
     Recent developments in Libxc - A comprehensive library of functionals for density functional theory
     Software X 2018 7 , 
     doi.org/10.1016/j.softx.2017.11.002
  5. Caldeweyher, E.; Ehlert, S.; Hansen, A.; Neugebauer, H.; Spicher, S.; Bannwarth, C.; Grimme, S.
     A generally applicable atomic-charge dependent London dispersion correction
     J. Chem. Phys. 2019 150 , 154122
     doi.org/10.1063/1.5090222
  6. Caldeweyher, E.; Mewes, J.; Ehlert, S.; Grimme, S.
     Extension and evaluation of the D4 London-dispersion model for periodic systems
     Phys. Chem. Chem. Phys. 2020 22(16), 8499-8512
     doi.org/10.1039/D0CP00502A
  7. Neese, F.
     The SHARK Integral Generation and Digestion System
     J. Comp. Chem. 2022 44(3), 381
     doi.org/10.1002/jcc.26942
  8. Wittmann, L.; Gordiy, I.; Friede, M.; Helmich-Paris, B.; Grimme, S.; Hansen, A.; Bursch, M.
     Extension of the D3 and D4 London Dispersion Corrections to the full Actinides Series
     Phys. Chem. Chem. Phys. 2024 26(32), 21379-21394
     doi.org/10.1039/D4CP01514B

List of suggested additional citations. These are papers that are important in the 'surrounding' of 
of this run, or papers that preceded the highly important papers. If you like your results we are grateful for a citation.

  1. Neese, F.
     The ORCA program system
     WIRES Comput. Molec. Sci. 2012 2(1), 73-78
     doi.org/10.1002/wcms.81
  2. Neese, F.
     Software update: the ORCA program system, version 4.0
     WIRES Comput. Molec. Sci. 2018 8(1), 1-6
     doi.org/10.1002/wcms.1327
  3. Neese, F.; Wennmohs, F.; Becker, U.; Riplinger, C.
     The ORCA quantum chemistry program package
     J. Chem. Phys. 2020 152(22), 224108
     doi.org/10.1063/5.0004608
  4. Neese, F.
     Software update: The ORCA program system—Version 5.0
     WIRES Comput. Molec. Sci. 2022 12(1), e1606
     doi.org/10.1002/wcms.1606

List of optional additional citations

  1. Neese, F.
     Approximate second-order SCF convergence for spin unrestricted wavefunctions
     Chem. Phys. Lett. 2000 325(1-3), 93-98
     doi.org/10.1016/s0009-2614(00)00662-x

Timings for individual modules:

Sum of individual times          ...      118.895 sec (=   1.982 min)
Startup calculation              ...       18.576 sec (=   0.310 min)  15.6 %
SCF iterations                   ...       46.713 sec (=   0.779 min)  39.3 %
Property integrals               ...       17.489 sec (=   0.291 min)  14.7 %
SCF Response                     ...        6.264 sec (=   0.104 min)   5.3 %
Property calculations            ...        8.605 sec (=   0.143 min)   7.2 %
SCF Gradient evaluation          ...       21.230 sec (=   0.354 min)  17.9 %
Geometry relaxation              ...        0.016 sec (=   0.000 min)   0.0 %
                             ****ORCA TERMINATED NORMALLY****
TOTAL RUN TIME: 0 days 0 hours 2 minutes 6 seconds 144 msec
