
                                 *****************
                                 * O   R   C   A *
                                 *****************

                                            #,                                       
                                            ###                                      
                                            ####                                     
                                            #####                                    
                                            ######                                   
                                           ########,                                 
                                     ,,################,,,,,                         
                               ,,#################################,,                 
                          ,,##########################################,,             
                       ,#########################################, ''#####,          
                    ,#############################################,,   '####,        
                  ,##################################################,,,,####,       
                ,###########''''           ''''###############################       
              ,#####''   ,,,,##########,,,,          '''####'''          '####       
            ,##' ,,,,###########################,,,                        '##       
           ' ,,###''''                  '''############,,,                           
         ,,##''                                '''############,,,,        ,,,,,,###''
      ,#''                                            '''#######################'''  
     '                                                          ''''####''''         
             ,#######,   #######,   ,#######,      ##                                
            ,#'     '#,  ##    ##  ,#'     '#,    #''#        ,####,    ,#,          
            ##       ##  ##   ,#'  ##            #'  '#       #'       ,# #          
            ##       ##  #######   ##           ,######,      #####,      #          
            '#,     ,#'  ##    ##  '#,     ,#' ,#      #,     #,   #      #          
             '#######'   ##     ##  '#######'  #'      '#     '####' #    #          



                #########################################################
                #                        -***-                          #
                #          Department of theory and spectroscopy        #
                #                                                       #
                #                      Frank Neese                      #
                #                                                       #
                #     Directorship, Architecture, Infrastructure        #
                #                    SHARK, DRIVERS                     #
                #        Core code/Algorithms in most modules           #
                #                                                       #
                #        Max Planck Institute fuer Kohlenforschung      #
                #                Kaiser Wilhelm Platz 1                 #
                #                 D-45470 Muelheim/Ruhr                 #
                #                      Germany                          #
                #                                                       #
                #                  All rights reserved                  #
                #                        -***-                          #
                #########################################################


                         Program Version 6.1.0  -  RELEASE   -
                                (GIT: $679e74b$)
                          ($2025-06-10 18:02:51 +0200$)


 With contributions from (in alphabetic order):
[Max-Planck-Institut fuer Kohlenforschung]                               
  Daniel Aravena         : Magnetic Suceptibility                        
  Michael Atanasov       : Ab Initio Ligand Field Theory (pilot matlab implementation)
  Alexander A. Auer      : GIAO ZORA, VPT2 properties, NMR spectrum      
  Ute Becker             : All parallelization in ORCA, NUMFREQ, NUMCALC 
  Giovanni Bistoni       : ED, misc. LED, open-shell LED, HFLD           
  Dmytro Bykov           : pre 5.0 version of the SCF Hessian            
  Marcos Casanova-Páez   : Triplet and SCS-CIS(D). UHF-(DLPNO)-IP/EA/STEOM-CCSD. UHF-CVS-IP/STEOM-CCSD   
  Vijay G. Chilkuri      : MRCI spin determinant printing, contributions to CSF-ICE 
  Pauline Colinet        : FMM embedding                                 
  Dipayan Datta          : RHF DLPNO-CCSD density                        
  Achintya Kumar Dutta   : EOM-CC, STEOM-CC                              
  Nicolas Foglia         : Exact transition moments, OPA infrastructure, MCD improvements    
  Dmitry Ganyushin       : Spin-Orbit,Spin-Spin,Magnetic field MRCI      
  Miquel Garcia-Rates    : C-PCM and meta-GGA Hessian, CCSD/C-PCM, Gaussian charge scheme 
  Tiago L. C. Gouveia    : GS-ROHF, GS-ROCIS                             
  Yang Guo               : DLPNO-NEVPT2, F12-NEVPT2, CIM, IAO-localization        
  Andreas Hansen         : Spin unrestricted coupled pair/coupled cluster methods 
  Ingolf Harden          : AUTO-CI MPn and infrastructure                
  Benjamin Helmich-Paris : MC-RPA, TRAH-(SCF,CASSCF), AVAS, COSX integrals, SCF dyn. polar., MC-PDFT, srDFT 
  Lee Huntington         : MR-EOM, pCC                                   
  Robert Izsak           : Overlap fitted RIJCOSX, COSX-SCS-MP3, EOM     
  Riya Kayal             : Wick's Theorem for AUTO-CI, AUTO-CI UHF-CCSDT 
  Emily Kempfer          : AUTO-CI RHF CISDT and CCSDT, approximate NEVPT4
  Christian Kollmar      : KDIIS, OOCD, Brueckner-CCSD(T), CCSD density, CASPT2, CASPT2-K, improved NEVPT2 
  Axel Koslowski         : Symmetry handling                             
  Simone Kossmann        : meta-GGA functionals, TD-DFT gradient, OOMP2, (MP2 Hessian; deprecated post 5.0) 
  Lucas Lang             : DCDCAS, Hyperfine gauge corrections, ICE-SOC+SSC
  Marvin Lechner         : AUTO-CI (C++ implementation), FIC-MRCC        
  Spencer Leger          : CASSCF response                               
  Dagmar Lenk            : GEPOL surface, SMD, ORCA-2-JSON               
  Dimitrios Liakos       : Extrapolation schemes; Compound Job, Property file
  Dimitrios Manganas     : Further ROCIS development; embedding schemes. LFT, Crystal Embedding 
  Dimitrios Pantazis     : SARC Basis sets                               
  Anastasios Papadopoulos: AUTO-CI, single reference methods and gradients 
  Taras Petrenko         : pre 6.0 DFT Hessian and TD-DFT gradient,  ECA, NRVS 
  Petra Pikulova         : Analytic Raman intensities                    
  Peter Pinski           : DLPNO-MP2, DLPNO-MP2 Gradient                 
  Shashank Vittal Rao    : ES-AILFT, MagRelax                            
  Christoph Reimann      : Effective Core Potentials                     
  Marius Retegan         : Local ZFS, SOC                                
  Christoph Riplinger    : Optimizer, TS searches, QM/MM, DLPNO-CCSD(T), (RO)-DLPNO pert. Triples 
  Michael Roemelt        : Original ROCIS implementation, recursive CI coupling coefficients
  Masaaki Saitow         : Open-shell DLPNO-CCSD energy and density      
  Barbara Sandhoefer     : DKH picture change effects                    
  Yorick L. A. Schmerwitz: GMF and freeze-and-release deltaSCF, NEB S-IDPP initial path                    
  Kantharuban Sivalingam : CASSCF convergence/infrastructure, NEVPT2, NEVPT3, NEVPT4(SD), FIC-MRCI and CEPA variants
  Bernardo de Souza      : ESD, SOC TD-DFT                               
  Georgi L. Stoychev     : AutoAux, RI-MP2 NMR, DLPNO-MP2 response, X2C  
  Van Anh Tran           : RI-MP2 g-tensors                              
  Willem Van den Heuvel  : Paramagnetic NMR                              
  Zikuan Wang            : NOTCH, Electric field optimization            
  Frank Wennmohs         : Technical directorship and infrastructure     
  Hang Xu                : AUTO-CI-Response properties                   
                                                                         
[FACCTs GmbH]                                                            
  Markus Bursch, Nicolas Foglia, Miquel Garcia-Rates, Ingolf Harden, Hagen Neugebauer, Anastasios Papadopoulos, 
  Christoph Riplinger, Bernardo de Souza, Georgi L. Stoychev                                                    
                                                                 
  APM, various basis sets, CI-OPT, improved COSX, DLPNO-Multilevel,           
  DOCKER, DRACO, updates on ESD, Fragmentator, GOAT, IRC, LR-CPCM, L-BFGS, MBIS, meta-GGA TD-DFT gradient, ML-optimized integration grids, 
  MM, NACMEs, nearIR, NEB, NEB-TS, NL-DFT gradient (VV10), 2- and 3-layer-ONIOM, interface openCOSMO-RS, QMMM,   
  Crystal-QMMM, RESP, rigid body optimization, SF, symmetry and pop. for TD-DFT, various functionals, SOLVATOR                                   
                                                                         
[Other institutions]                                                     
  V. Asgeirsson          : NEB                                           
  Christoph Bannwarth    : sTDA-DFT, sTD-DFT, PBEh-3c, B97-3c, D3        
  Giovanni Bistoni       : ETS/NOCV, ADLD/ADEX, COVALED                  
  Martin Brehm           : Molecular dynamics                            
  Ronald Cardenas        : ETS/NOCV                                      
  Martina Colucci        : COVALED                                       
  Sebastian Ehlert       : rSCAN, r2SCAN, r2SCAN-3c, D4, dhf basis sets  
  Marvin Friede          : D4 for Fr, Ra, Ac-Lr                          
  Lars Goerigk           : TD-DFT with DH, B97 family of functionals     
  Stefan Grimme          : VdW corrections, initial TS optimization, DFT functionals, gCP, sTDA/sTD-DF 
  Waldemar Hujo          : DFT-NL                                        
  H. Jonsson             : NEB                                           
  Holger Kruse           : gCP                                           
  Marcel Mueller         : wB97X-3c, vDZP basis set                      
  Hagen Neugebauer       : wr2SCAN, Native XTB                           
  Gianluca Regni         : ADLD/ADEX                                     
  Tobias Risthaus        : pre 6.0 range-separated hybrid DFT and stability analysis
  Lukas Wittmann         : regularized MP2, r2SCAN double-hybrids, wr2SCAN        
                                                                         
We gratefully acknowledge several colleagues who have allowed us to      
interface, adapt or use parts of their codes:                            
  Ed Valeev, F. Pavosevic, A. Kumar             : LibInt (2-el integral package), F12 methods 
  Garnet Chan, S. Sharma, J. Yang, R. Olivares  : DMRG                   
  Ulf Ekstrom                                   : XCFun DFT Library      
  Mihaly Kallay                                 : mrcc  (arbitrary order and MRCC methods)
  Frank Weinhold                                : gennbo (NPA and NBO analysis)           
  Simon Mueller                                 : openCOSMO-RS                            
  Christopher J. Cramer and Donald G. Truhlar   : smd solvation model                     
  S Lehtola, MJT Oliveira, MAL Marques          : LibXC Library                           
  Liviu Ungur et al                             : ANISO software                          


 Your calculation uses the libint2 library for the computation of 2-el integrals
 For citations please refer to: http://libint.valeyev.net

 Your ORCA version has been built with support for libXC version: 7.0.0
 For citations please refer to: https://libxc.gitlab.io

 This ORCA versions uses:
   CBLAS   interface :  Fast vector & matrix operations
   LAPACKE interface :  Fast linear algebra routines
   SCALAPACK package :  Parallel linear algebra routines
   Shared memory     :  Shared parallel matrices
   BLAS/LAPACK       :  OpenBLAS 0.3.29  USE64BITINT DYNAMIC_ARCH NO_AFFINITY SkylakeX SINGLE_THREADED
        Core in use  :  SkylakeX
   Copyright (c) 2011-2014, The OpenBLAS Project


  ***********************************
  * Starting time: Thu Mar 12 13:34:01 2026
  * Host name:     midway3-login4.rcc.local
  * Process ID:    3115510
  * Working dir.:  /home/rzhu16/orca_TS_search/sn2_br_i/DFT_test
  ***********************************

Your calculation utilizes the geometrical counterpoise correction gCP
Please cite in your paper:
H.Kruse, S. Grimme J.Chem.Phys., 136, (2012), 154101 
   

Your calculation utilizes the atom-pairwise dispersion correction
based on EEQ partial charges (D4)


================================================================================

cite the ECPs for I  [Def2-ECP] as follows:
Ce-Yb(ecp-28): M. Dolg, H. Stoll, H.Preuss, J. Chem. Phys., 1989, 90, 1730-1734.
Y-Cd(ecp-28), Hf-Hg(ecp-46): D. Andrae,U. Haeussermann, M. Dolg, H. Stoll, H. Preuss, Theor. Chim. Acta, 1990, 77, 123-141.
In-Sb(ecp-28), Tl-Bi(ecp-46): B. Metz, H. Stoll, M. Dolg, J. Chem. Phys., 2000, 113, 2563-2569.
Te-Xe(ecp-28), Po-Rn(ecp-46): K. A. Peterson, D. Figgen, E. Goll, H. Stoll, M. Dolg, J. Chem. Phys., 2003, 119, 11113-11123.
Rb(ecp-28), Cs(ecp-46): T. Leininger, A. Nicklass, W. Kuechle, H. Stoll, M. Dolg, A. Bergner, Chem. Phys. Lett., 1996, 255, 274-280.
Sr(ecp-28), Ba(ecp-46): M. Kaupp, P. V. Schleyer, H. Stoll and H. Preuss, J. Chem. Phys., 1991, 94, 1360-1366.
La(ecp-46): M. Dolg, H. Stoll, A. Savin, H. Preuss, Theor. Chim. Acta, 1989, 75, 173-194.
Lu(ecp-28): X. Cao, M. Dolg, J. Chem. Phys., 2001, 115, 7348-7355.
Fr-Ra(ecp-78) K. Eichkorn, F. Weigend, O. Treutler, R. Ahlrichs, Theor. Chem. Acc. 1997, 97, 119.
Ac-Lr(ecp-60) K. Eichkorn, F. Weigend, O. Treutler, R. Ahlrichs, Theor. Chem. Acc. 1997, 97, 119.

ECP parameters for I  [Def2-ECP] have been obtained from:
TURBOMOLE (7.0.2)

----- Orbital basis set information -----
Your calculation utilizes the basis: def2-mTZVPP
   Stefan Grimme, Andreas Hansen, Sebastian Ehlert, and Jan-Michael Mewes 
   J. Chem. Phys. 154, 064103 (2021). DOI: 10.1063/5.0040021

----- AuxJ basis set information -----
Your calculation utilizes the basis: def2-mTZVPP/J
   Stefan Grimme, Andreas Hansen, Sebastian Ehlert, and Jan-Michael Mewes 
   J. Chem. Phys. 154, 000000 (2021). DOI: 10.1063/5.0040021

================================================================================
                                        WARNINGS
                       Please study these warnings very carefully!
================================================================================



WARNING: SCAN, rSCAN, or r2SCAN functional requested.
  ===> : libXC variant has now been activated.



WARNING: Geometry Optimization
  ===> : Switching off AutoStart
         For restart on a previous wavefunction, please use MOREAD

================================================================================
                                       INPUT FILE
================================================================================
NAME = reactant_optfreq.inp
|  1> ! r2SCAN-3c Opt Freq PAL8 TightSCF
|  2> 
|  3> %pal
|  4>    nprocs 8
|  5> end
|  6> 
|  7> %scf
|  8>    MaxIter 150
|  9> end
| 10> 
| 11> * xyz -1 1
| 12>   C       0.000055      0.000044     -0.315127
| 13>   H      -0.000027      1.031215     -0.002254
| 14>   H       0.893072     -0.515658     -0.002251
| 15>   H      -0.893198     -0.515699     -0.002238
| 16>   Br     -0.000003     -0.000003      2.624879
| 17>   I      -0.000015     -0.000014     -2.520475
| 18> *
| 19> 
| 20>                          ****END OF INPUT****
================================================================================

                       *****************************
                       * Geometry Optimization Run *
                       *****************************

Geometry optimization settings:
Update method            Update   .... BFGS
Choice of coordinates    CoordSys .... (2022) Redundant Internals
Initial Hessian          InHess   .... Almloef's Model
Max. no of cycles        MaxIter  .... 50

Convergence Tolerances:
Energy Change            TolE     ....  5.0000e-06 Eh
Max. Gradient            TolMAXG  ....  3.0000e-04 Eh/bohr
RMS Gradient             TolRMSG  ....  1.0000e-04 Eh/bohr
Max. Displacement        TolMAXD  ....  4.0000e-03 bohr
RMS Displacement         TolRMSD  ....  2.0000e-03 bohr
Strict Convergence                .... False

------------------------------------------------------------------------------
                        ORCA OPTIMIZATION COORDINATE SETUP
------------------------------------------------------------------------------

The optimization will be done in redundant internal coordinates (2022)
Making redundant internal coordinates   ...  (2022 redundants) done
Evaluating the initial hessian          ...  (Almloef) done
Evaluating the coordinates              ...  done
Calculating the B-matrix                .... done
Calculating the G-matrix                .... done
The number of degrees of freedom        ....   17

    -----------------------------------------------------------------
                    Redundant Internal Coordinates


    -----------------------------------------------------------------
         Definition                    Initial Value    Approx d2E/dq
    -----------------------------------------------------------------
      1. B(H   1,C   0)                  1.0776         0.376895   
      2. B(H   2,C   0)                  1.0776         0.376820   
      3. B(H   3,C   0)                  1.0779         0.376517   
      4. B(Br  4,H   2)                  2.8223         0.010000   
      5. B(Br  4,H   1)                  2.8223         0.010000   
      6. B(Br  4,H   3)                  2.8223         0.010000   
      7. B(Br  4,C   0)                  2.9400         0.010000   
      8. B(I   5,C   0)                  2.2053         0.105050   
      9. A(H   1,C   0,H   3)          111.9333         0.295001   
     10. A(H   2,C   0,H   3)          111.9308         0.294992   
     11. A(H   1,C   0,I   5)          106.8801         0.282573   
     12. A(H   2,C   0,I   5)          106.8787         0.282564   
     13. A(H   3,C   0,I   5)          106.8728         0.282529   
     14. A(H   1,C   0,Br  4)           73.1223         0.194088   
     15. A(H   2,C   0,Br  4)           73.1226         0.194084   
     16. A(H   3,C   0,Br  4)           73.1235         0.194065   
     17. A(H   1,C   0,H   2)          111.9438         0.295038   
    -----------------------------------------------------------------

Number of atoms                         .... 6
Number of degrees of freedom            .... 17


         *************************************************************
         *                GEOMETRY OPTIMIZATION CYCLE   1            *
         *************************************************************
---------------------------------
CARTESIAN COORDINATES (ANGSTROEM)
---------------------------------
  C      0.000055    0.000044   -0.315127
  H     -0.000027    1.031215   -0.002254
  H      0.893072   -0.515658   -0.002251
  H     -0.893198   -0.515699   -0.002238
  Br    -0.000003   -0.000003    2.624879
  I     -0.000015   -0.000014   -2.520475

----------------------------
CARTESIAN COORDINATES (A.U.)
----------------------------
  NO LB      ZA    FRAG     MASS         X           Y           Z
   0 C     6.0000    0    12.011    0.000104    0.000083   -0.595504
   1 H     1.0000    0     1.008   -0.000051    1.948714   -0.004259
   2 H     1.0000    0     1.008    1.687661   -0.974452   -0.004254
   3 H     1.0000    0     1.008   -1.687900   -0.974530   -0.004229
   4 Br   35.0000    0    79.900   -0.000006   -0.000006    4.960302
   5 I    25.0000*   0   126.900   -0.000028   -0.000026   -4.763007
* core charge reduced due to ECP

--------------------------------
INTERNAL COORDINATES (ANGSTROEM)
--------------------------------
 C      0   0   0     0.000000000000     0.00000000     0.00000000
 H      1   0   0     1.077591366008     0.00000000     0.00000000
 H      1   2   0     1.077645260032   111.94379622     0.00000000
 H      1   2   3     1.077864226319   111.93334950   126.60600015
 Br     2   1   3     2.822275387660    85.44729912   296.70034562
 I      1   2   3     2.205348001874   106.88010377   243.29657247

---------------------------
INTERNAL COORDINATES (A.U.)
---------------------------
 C      0   0   0     0.000000000000     0.00000000     0.00000000
 H      1   0   0     2.036352566032     0.00000000     0.00000000
 H      1   2   0     2.036454410978   111.94379622     0.00000000
 H      1   2   3     2.036868197294   111.93334950   126.60600015
 Br     2   1   3     5.333327557183    85.44729912   296.70034562
 I      1   2   3     4.167503753532   106.88010377   243.29657247

---------------------
BASIS SET INFORMATION
---------------------
There are 4 groups of distinct atoms

 Group   1 Type C   : 11s6p1d contracted to 5s3p1d pattern {62111/411/1}
 Group   2 Type H   : 4s1p contracted to 2s1p pattern {31/1}
 Group   3 Type Br  : 17s13p7d contracted to 6s5p3d pattern {842111/64111/511}
 Group   4 Type I   : 11s10p8d contracted to 6s5p3d pattern {521111/34111/611}

Atom   0C    basis set group =>   1
Atom   1H    basis set group =>   2
Atom   2H    basis set group =>   2
Atom   3H    basis set group =>   2
Atom   4Br   basis set group =>   3
Atom   5I    basis set group =>   4
---------------------------------
AUXILIARY/J BASIS SET INFORMATION
---------------------------------
There are 4 groups of distinct atoms

 Group   1 Type C   : 8s3p3d contracted to 6s3p3d pattern {311111/111/111}
 Group   2 Type H   : 5s2p1d contracted to 3s1p1d pattern {311/2/1}
 Group   3 Type Br  : 19s5p5d3f1g contracted to 8s4p3d2f1g pattern {121111111/2111/311/21/1}
 Group   4 Type I   : 11s5p5d3f1g contracted to 8s4p3d2f1g pattern {41111111/2111/311/21/1}

Atom   0C    basis set group =>   1
Atom   1H    basis set group =>   2
Atom   2H    basis set group =>   2
Atom   3H    basis set group =>   2
Atom   4Br   basis set group =>   3
Atom   5I    basis set group =>   4
-------------------------
ECP PARAMETER INFORMATION
-------------------------

 Group 1, Type I  ECP Def2-ECP (replacing 28 core electrons, lmax=3)

Atom   5I    ECP group =>   1



           ************************************************************
           *        Program running with 8 parallel MPI-processes     *
           *              working on a common directory               *
           ************************************************************
------------------------------------------------------------------------------
                             ORCA STARTUP CALCULATIONS
                           -- RI-GTO INTEGRALS CHOSEN --
------------------------------------------------------------------------------
------------------------------------------------------------------------------
                   ___                                                        
                  /   \      - P O W E R E D   B Y -                         
                 /     \                                                     
                 |  |  |   _    _      __       _____    __    __             
                 |  |  |  | |  | |    /  \     |  _  \  |  |  /  |          
                  \  \/   | |  | |   /    \    | | | |  |  | /  /          
                 / \  \   | |__| |  /  /\  \   | |_| |  |  |/  /          
                |  |  |   |  __  | /  /__\  \  |    /   |      \           
                |  |  |   | |  | | |   __   |  |    \   |  |\   \          
                \     /   | |  | | |  |  |  |  | |\  \  |  | \   \       
                 \___/    |_|  |_| |__|  |__|  |_| \__\ |__|  \__/        
                                                                              
                      - O R C A' S   B I G   F R I E N D -                    
                                      &                                       
                       - I N T E G R A L  F E E D E R -                       
                                                                              
 v1 FN, 2020, v2 2021, v3 2022-2024                                           
------------------------------------------------------------------------------


----------------------
SHARK INTEGRAL PACKAGE
----------------------

Number of atoms                             ...      6
Number of basis functions                   ...    106
Number of shells                            ...     46
Maximum angular momentum                    ...      2
Integral batch strategy                     ... SHARK/LIBINT Hybrid
RI-J (if used) integral strategy            ... SPLIT-RIJ (Revised 2003 algorithm where possible)
Printlevel                                  ...      1
Contraction scheme used                     ... SEGMENTED contraction
Prescreening option                         ... SCHWARTZ
   Thresh                                   ... 2.500e-11
   Tcut                                     ... 2.500e-12
   Tpresel                                  ... 2.500e-12 
Coulomb Range Separation                    ... NOT USED
Exchange Range Separation                   ... NOT USED
Multipole approximations                    ... NOT USED
Finite Nucleus Model                        ... NOT USED
CABS basis                                  ... NOT available
Auxiliary Coulomb fitting basis             ... AVAILABLE
   # of basis functions in Aux-J            ...    179
   # of shells in Aux-J                     ...     63
   Maximum angular momentum in Aux-J        ...      4
Auxiliary J/K fitting basis                 ... NOT available
Auxiliary Correlation fitting basis         ... NOT available
Auxiliary 'external' fitting basis          ... NOT available

Checking pre-screening integrals            ... done (  0.0 sec) Dimension = 46
   => SHARK Basis and OBASIS are compatible. Storing Pre-screening
Shell pair information
Shell pair cut-off parameter TPreSel        ...   2.5e-12
Total number of shell pairs                 ...      1081
Shell pairs after pre-screening             ...       965
Total number of primitive shell pairs       ...      5082
Primitive shell pairs kept                  ...      3370
          la=0 lb=0:    240 shell pairs
          la=1 lb=0:    332 shell pairs
          la=1 lb=1:    128 shell pairs
          la=2 lb=0:    139 shell pairs
          la=2 lb=1:    101 shell pairs
          la=2 lb=2:     25 shell pairs

Checking whether 4 symmetric matrices of dimension 106 fit in memory
:Max Core in MB      =   4096.00
 MB in use           =      4.64
 MB left             =   4091.36
 MB needed           =      0.17
 Data fit in memory  = YES
Calculating RI/J V-Matrix + Cholesky decomp.... done (  0.0 sec)
Calculating Nuclear repulsion               ... done (  0.0 sec) ENN=    207.780358644723 Eh

Diagonalization of the overlap matrix:
Smallest eigenvalue                        ... 3.992e-03
Time for diagonalization                   ...    0.003 sec
Threshold for overlap eigenvalues          ... 1.000e-07
Number of eigenvalues below threshold      ... 0
Time for construction of square roots      ...    0.002 sec
Total time needed                          ...    0.092 sec

-------------------
DFT GRID GENERATION
-------------------

General Integration Accuracy     IntAcc      ... 4.388
Radial Grid Type                 RadialGrid  ... OptM3 with GC (2021)
Angular Grid (max. ang.)         AngularGrid ... 4 (Lebedev-302)
Angular grid pruning method      GridPruning ... 4 (adaptive)
Weight generation scheme         WeightScheme... mBecke (2022)
Basis function cutoff            BFCut       ... 1.0000e-11
Integration weight cutoff        WCut        ... 1.0000e-14
Partially contracted basis set               ... off
Rotationally invariant grid construction     ... off
Angular grids for H and He will be reduced by one unit
Core-polarized basis detected: some atoms will have their core
                               angular grid increased.

Total number of grid points                  ...    38799
Total number of batches                      ...      610
Average number of points per batch           ...       63
Average number of grid points per atom       ...     6466
Grids setup in   1.6 sec
Initializing property integral containers    ... done (  0.0 sec)

SHARK setup successfully completed in   2.3 seconds

Maximum memory used throughout the entire STARTUP-calculation: 14.1 MB


           ************************************************************
           *        Program running with 8 parallel MPI-processes     *
           *              working on a common directory               *
           ************************************************************
-------------------------------------------------------------------------------
                                 ORCA GUESS
                   Start orbitals & Density for SCF / CASSCF
-------------------------------------------------------------------------------

------------
SCF SETTINGS
------------
Hamiltonian:
 Density Functional     Method          .... DFT(GTOs)
  Functional kind                       .... Exchange
  Functional name                       .... Re-regularized SCAN exchange by Furness et al
  Functional family                     .... MGGA
  Functional refs                              
    [ 0] J. W. Furness, A. D. Kaplan, J. Ning, J. P. Perdew, and J. Sun.,  J. Phys. Chem. Lett. 11, 8208-8215 (2020), doi: 10.1021/acs.jpclett.0c02405
    [ 1] J. W. Furness, A. D. Kaplan, J. Ning, J. P. Perdew, and J. Sun.,  J. Phys. Chem. Lett. 11, 9248-9248 (2020), doi: 10.1021/acs.jpclett.0c03077
  Functional external parameters        .... 6
    Parameter  0 _c1        =  6.670000e-01 : c1 parameter        
    Parameter  1 _c2        =  8.000000e-01 : c2 parameter        
    Parameter  2 _d         =  1.240000e+00 : d parameter         
    Parameter  3 _k1        =  6.500000e-02 : k1 parameter        
    Parameter  4 _eta       =  1.000000e-03 : eta parameter       
    Parameter  5 _dp2       =  3.610000e-01 : dp2 parameter       
  Functional kind                       .... Correlation
  Functional name                       .... Re-regularized SCAN correlation by Furness et al
  Functional family                     .... MGGA
  Functional refs                              
    [ 0] J. W. Furness, A. D. Kaplan, J. Ning, J. P. Perdew, and J. Sun.,  J. Phys. Chem. Lett. 11, 8208-8215 (2020), doi: 10.1021/acs.jpclett.0c02405
    [ 1] J. W. Furness, A. D. Kaplan, J. Ning, J. P. Perdew, and J. Sun.,  J. Phys. Chem. Lett. 11, 9248-9248 (2020), doi: 10.1021/acs.jpclett.0c03077
  Functional external parameters        .... 1
    Parameter  0 _eta       =  1.000000e-03 : Regularization parameter
 Gradients option       PostSCFGGA      .... off
 RI-approximation to the Coulomb term is turned on
   Number of AuxJ basis functions       .... 179


General Settings:
 Integral files         IntName         .... reactant_optfreq
 Hartree-Fock type      HFTyp           .... RHF
 Total Charge           Charge          ....   -1
 Multiplicity           Mult            ....    1
 Number of Electrons    NEL             ....   70
 Basis Dimension        Dim             ....  106
 Nuclear Repulsion      ENuc            ....    207.7803586447 Eh

Convergence Acceleration:
 AO-DIIS                CNVDIIS         .... on
   Start iteration      DIISMaxIt       ....    12
   Startup error        DIISStart       ....  0.200000
   # of expansion vecs  DIISMaxEq       ....     5
   Bias factor          DIISBfac        ....   1.050
   Max. coefficient     DIISMaxC        ....  10.000
 MO-DIIS                CNVKDIIS        .... off
 Trust-Rad. Augm. Hess. CNVTRAH         .... auto
   Auto Start mean grad. ratio tolernc. ....  1.125000
   Auto Start start iteration           ....    50
   Auto Start num. interpolation iter.  ....    10
   Max. Number of Micro iterations      ....    24
   Max. Number of Macro iterations      .... Maxiter - #DIIS iter
   Number of Davidson start vectors     ....     2
   Converg. threshold    (grad. norm)   ....   1.000e-05
   Grad. Scal. Fac. for Micro threshold ....   0.100
   Minimum threshold for Micro iter.    ....   1.000e-02
   NR start threshold (gradient norm)   ....   1.000e-04
   Initial trust radius                 ....   0.400
   Minimum AH scaling param. (alpha)    ....   1.000
   Maximum AH scaling param. (alpha)    .... 1000.000
   Quad. conv. algorithm                .... NR
   White noise on init. David. guess    .... on
   Maximum white noise                  ....   0.010
   Pseudo random numbers                .... off
   Inactive MOs                         .... canonical
   Orbital update algorithm             .... Taylor
   Preconditioner                       .... Diag
   Full preconditioner red. dimension   ....   250
   COSX micro iterations for RIJONX calc.... off
 SOSCF                 CNVSOSCF           .... on
   Start iteration     SOSCFMaxIt         ....   150
   Startup grad/error  SOSCFStart         ....  0.003300
   Hessian update      SOSCFHessUp        .... L-BFGS
   Autom. constraints  SOSCFAutoConstrain .... off
 Level Shifting         CNVShift        .... on
   Level shift para.    LevelShift      ....    0.2500
   Turn off err/grad.   ShiftErr        ....    0.0010
 Zerner damping         CNVZerner       .... off
 Static damping         CNVDamp         .... on
   Fraction old density DampFac         ....    0.7000
   Max. Damping (<1)    DampMax         ....    0.9800
   Min. Damping (>=0)   DampMin         ....    0.0000
   Turn off err/grad.   DampErr         ....    0.1000

SCF Procedure:
 Maximum # iterations   MaxIter         ....   150
 SCF integral mode      SCFMode         .... Direct
   Integral package                     .... SHARK and LIBINT hybrid scheme
 Reset frequency        DirectResetFreq ....    20
 Integral Threshold     Thresh          ....  2.500e-11 Eh
 Primitive CutOff       TCut            ....  2.500e-12 Eh

Convergence Tolerance:
 Convergence Check Mode ConvCheckMode   .... Total+1el-Energy
 Convergence forced     ConvForced      .... 0
 Energy Change          TolE            ....  1.000e-08 Eh
 1-El. energy change                    ....  1.000e-05 Eh
 Orbital Gradient       TolG            ....  1.000e-05
 Orbital Rotation angle TolX            ....  1.000e-05
 DIIS Error             TolErr          ....  5.000e-07

------------------------------
INITIAL GUESS: MODEL POTENTIAL
------------------------------
Loading Hartree-Fock densities                     ... done
Atomic calculation to generate a density for atom 5 (I  with ECP)
  Multiplicity assumed   :    2
  Atomic configuration   : 1s2 2s2 2p6 3s2 3p6 4s2 3d10 4p6 5s2 4d10 5p5 
  Number of open shells  : 1
  Command: /software/orca-6.1.0-el8-x86_64/bin/orca reactant_optfreq_atom53.inp "" > reactant_optfreq_atom53.out
Returned from the atomic calculation with res=0
Calculating cut-offs                               ... done
Initializing the effective Hamiltonian             ... done
Setting up the integral package (SHARK)            ... done
Starting the Coulomb interaction                   ... done (   0.1 sec)
Making the grid                                    ... done (   0.4 sec)
Mapping shells                                     ... done
Starting the XC term evaluation                    ... done (   0.1 sec)
  promolecular density results
     # of electrons  =     96.997836032
     EX              =   -268.352308475
     EC              =     -4.847916305
     EX+EC           =   -273.200224780
Transforming the Hamiltonian                       ... done (   0.0 sec)
Diagonalizing the Hamiltonian                      ... done (   0.1 sec)
Back transforming the eigenvectors                 ... done (   0.0 sec)
Now organizing SCF variables                       ... done
                      ------------------
                      INITIAL GUESS DONE (   8.4 sec)
                      ------------------
             **** ENERGY FILE WAS UPDATED (reactant_optfreq.en.tmp) ****
Finished Guess after   9.1 sec
Maximum memory used throughout the entire GUESS-calculation: 7.7 MB


           ************************************************************
           *        Program running with 8 parallel MPI-processes     *
           *              working on a common directory               *
           ************************************************************

-------------------------------------------------------------------------------------------
                                      ORCA LEAN-SCF
                              memory conserving SCF solver
-------------------------------------------------------------------------------------------

----------------------------------------D-I-I-S--------------------------------------------
Iteration    Energy (Eh)           Delta-E    RMSDP     MaxDP     DIISErr   Damp  Time(sec)
-------------------------------------------------------------------------------------------
               ***  Starting incremental Fock matrix formation  ***
    1    -2911.7119447386767206     0.00e+00  1.16e-02  9.10e-02  6.02e-01  0.700   0.6
Warning: op=0 Small HOMO/LUMO gap (   0.076) - skipping pre-diagonalization
         Will do a full diagonalization
    2    -2911.7790319717923921    -6.71e-02  1.02e-02  6.01e-02  4.09e-01  0.700   0.7
    3    -2911.8101370503582075    -3.11e-02  5.95e-03  3.99e-02  2.78e-01  0.700   0.6
                               ***Turning on AO-DIIS***
    4    -2911.8270953623868991    -1.70e-02  2.71e-03  2.17e-02  1.90e-01  0.700   0.6
    5    -2911.8390031568769700    -1.19e-02  1.44e-03  1.06e-02  1.33e-01  0.700   0.4
    6    -2911.8473565314825464    -8.35e-03  8.90e-04  7.09e-03  9.40e-02  0.700   0.3
    7    -2911.8533762954366466    -6.02e-03  2.43e-03  1.62e-02  6.63e-02  0.000   0.7
    8    -2911.8674161760463903    -1.40e-02  5.82e-04  3.26e-03  6.17e-03  0.000   0.6
                              *** Initializing SOSCF ***
---------------------------------------S-O-S-C-F--------------------------------------
Iteration    Energy (Eh)           Delta-E    RMSDP     MaxDP     MaxGrad    Time(sec)
--------------------------------------------------------------------------------------
    9    -2911.8675079233489669    -9.17e-05  1.78e-04  2.34e-03  1.28e-03     0.6
               *** Restarting incremental Fock matrix formation ***
   10    -2911.8675128079275964    -4.88e-06  9.36e-05  6.87e-04  2.16e-04     0.6
   11    -2911.8675119850040574     8.23e-07  6.27e-05  4.45e-04  4.44e-04     0.8
   12    -2911.8675132881971876    -1.30e-06  2.15e-05  1.76e-04  6.01e-05     0.8
   13    -2911.8675132801699874     8.03e-09  1.26e-05  1.17e-04  7.01e-05     0.6
                 **** Energy Check signals convergence ****

               *****************************************************
               *                     SUCCESS                       *
               *           SCF CONVERGED AFTER  13 CYCLES          *
               *****************************************************

             **** ENERGY FILE WAS UPDATED (reactant_optfreq.en.tmp) ****

----------------
TOTAL SCF ENERGY
----------------

Total Energy       :      -2911.86751331516007 Eh          -79235.94331 eV

Components:
Nuclear Repulsion  :        207.78035864472326 Eh            5653.99100 eV
Electronic Energy  :      -3119.64787195988356 Eh          -84889.93432 eV
One Electron Energy:      -4582.12565911291586 Eh         -124685.97810 eV
Two Electron Energy:       1462.47778715303230 Eh           39796.04378 eV

Virial components:
Potential Energy   :      -5634.49313231420911 Eh         -153322.35289 eV
Kinetic Energy     :       2722.62561899904904 Eh           74086.40957 eV
Virial Ratio       :          2.06950713054176

DFT components:
N(Alpha)           :       35.000004167700 electrons
N(Beta)            :       35.000004167700 electrons
N(Total)           :       70.000008335399 electrons
E(X)               :     -117.300148969641 Eh       
E(C)               :       -3.074549772628 Eh       
E(XC)              :     -120.374698742270 Eh       

---------------
SCF CONVERGENCE
---------------

  Last Energy change         ...   -8.0272e-09  Tolerance :   1.0000e-08
  Last MAX-Density change    ...    1.1691e-04  Tolerance :   1.0000e-07
  Last RMS-Density change    ...    1.2559e-05  Tolerance :   5.0000e-09
  Last DIIS Error            ...    1.2850e-03  Tolerance :   5.0000e-07
  Last Orbital Gradient      ...    7.0093e-05  Tolerance :   1.0000e-05
  Last Orbital Rotation      ...    4.6005e-05  Tolerance :   1.0000e-05


----------------
ORBITAL ENERGIES
----------------

  NO   OCC          E(Eh)            E(eV) 
   0   2.0000    -481.955346    -13114.6717 
   1   2.0000     -62.028070     -1687.8696 
   2   2.0000     -55.807025     -1518.5864 
   3   2.0000     -55.806617     -1518.5753 
   4   2.0000     -55.806617     -1518.5753 
   5   2.0000      -9.928579      -270.1704 
   6   2.0000      -8.359610      -227.4766 
   7   2.0000      -6.672167      -181.5589 
   8   2.0000      -6.159208      -167.6006 
   9   2.0000      -6.157421      -167.5519 
  10   2.0000      -6.157421      -167.5519 
  11   2.0000      -4.687785      -127.5611 
  12   2.0000      -4.675930      -127.2385 
  13   2.0000      -4.675930      -127.2385 
  14   2.0000      -2.258746       -61.4636 
  15   2.0000      -2.258326       -61.4522 
  16   2.0000      -2.258326       -61.4522 
  17   2.0000      -2.256976       -61.4154 
  18   2.0000      -2.256975       -61.4154 
  19   2.0000      -1.723603       -46.9016 
  20   2.0000      -1.720844       -46.8265 
  21   2.0000      -1.720844       -46.8265 
  22   2.0000      -1.710781       -46.5527 
  23   2.0000      -1.710781       -46.5527 
  24   2.0000      -0.570202       -15.5160 
  25   2.0000      -0.475962       -12.9516 
  26   2.0000      -0.448811       -12.2128 
  27   2.0000      -0.258135        -7.0242 
  28   2.0000      -0.258080        -7.0227 
  29   2.0000      -0.192852        -5.2478 
  30   2.0000      -0.106713        -2.9038 
  31   2.0000      -0.106708        -2.9037 
  32   2.0000      -0.033295        -0.9060 
  33   2.0000      -0.031581        -0.8594 
  34   2.0000      -0.031581        -0.8594 
  35   0.0000       0.083140         2.2624 
  36   0.0000       0.239372         6.5136 
  37   0.0000       0.276020         7.5109 
  38   0.0000       0.276058         7.5119 
  39   0.0000       0.282321         7.6823 
  40   0.0000       0.307480         8.3670 
  41   0.0000       0.307488         8.3672 
  42   0.0000       0.337961         9.1964 
  43   0.0000       0.337965         9.1965 
  44   0.0000       0.363685         9.8964 
  45   0.0000       0.363714         9.8972 
*Only the first 10 virtual orbitals were printed.

                    ********************************
                    * MULLIKEN POPULATION ANALYSIS *
                    ********************************

-----------------------
MULLIKEN ATOMIC CHARGES
-----------------------
   0 C :   -0.375990
   1 H :    0.196836
   2 H :    0.196829
   3 H :    0.196812
   4 Br:   -0.839953
   5 I :   -0.374534
Sum of atomic charges:   -1.0000000

--------------------------------
MULLIKEN REDUCED ORBITAL CHARGES
--------------------------------
  0 C s       :     3.310666  s :     3.310666
      pz      :     0.788029  p :     3.043833
      px      :     1.127898
      py      :     1.127905
      dz2     :     0.007292  d :     0.021492
      dxz     :     0.002796
      dyz     :     0.002797
      dx2y2   :     0.004303
      dxy     :     0.004304

  1 H s       :     0.783709  s :     0.783709
      pz      :     0.005018  p :     0.019455
      px      :     0.003550
      py      :     0.010887

  2 H s       :     0.783718  s :     0.783718
      pz      :     0.005017  p :     0.019453
      px      :     0.009051
      py      :     0.005384

  3 H s       :     0.783744  s :     0.783744
      pz      :     0.005015  p :     0.019444
      px      :     0.009048
      py      :     0.005381

  4 Brs       :     7.979063  s :     7.979063
      pz      :     5.869422  p :    17.858495
      px      :     5.994536
      py      :     5.994537
      dz2     :     2.001422  d :    10.002395
      dxz     :     2.000481
      dyz     :     2.000480
      dx2y2   :     2.000006
      dxy     :     2.000006

  5 I s       :     3.981242  s :     3.981242
      pz      :     3.342628  p :    11.343892
      px      :     4.000631
      py      :     4.000632
      dz2     :     2.020863  d :    10.049401
      dxz     :     2.014082
      dyz     :     2.014079
      dx2y2   :     2.000188
      dxy     :     2.000188



                     *******************************
                     * LOEWDIN POPULATION ANALYSIS *
                     *******************************

----------------------
LOEWDIN ATOMIC CHARGES
----------------------
   0 C :   -0.564494
   1 H :    0.167017
   2 H :    0.167028
   3 H :    0.167071
   4 Br:   -0.785479
   5 I :   -0.151144

-------------------------------
LOEWDIN REDUCED ORBITAL CHARGES
-------------------------------
  0 C s       :     3.100466  s :     3.100466
      pz      :     1.009892  p :     3.413887
      px      :     1.201991
      py      :     1.202004
      dz2     :     0.015859  d :     0.050141
      dxz     :     0.006446
      dyz     :     0.006449
      dx2y2   :     0.010693
      dxy     :     0.010694

  1 H s       :     0.784656  s :     0.784656
      pz      :     0.011000  p :     0.048326
      px      :     0.008257
      py      :     0.029069

  2 H s       :     0.784652  s :     0.784652
      pz      :     0.010998  p :     0.048320
      px      :     0.023862
      py      :     0.013460

  3 H s       :     0.784636  s :     0.784636
      pz      :     0.010991  p :     0.048293
      px      :     0.023853
      py      :     0.013450

  4 Brs       :     7.953232  s :     7.953232
      pz      :     5.845243  p :    17.829427
      px      :     5.992092
      py      :     5.992093
      dz2     :     2.001567  d :    10.002820
      dxz     :     2.000617
      dyz     :     2.000616
      dx2y2   :     2.000010
      dxy     :     2.000010

  5 I s       :     3.784377  s :     3.784377
      pz      :     3.309207  p :    11.256044
      px      :     3.973419
      py      :     3.973418
      dz2     :     2.061638  d :    10.110723
      dxz     :     2.024299
      dyz     :     2.024294
      dx2y2   :     2.000245
      dxy     :     2.000245



                      *****************************
                      * MAYER POPULATION ANALYSIS *
                      *****************************

  NA   - Mulliken gross atomic population
  ZA   - Total nuclear charge
  QA   - Mulliken gross atomic charge
  VA   - Mayer's total valence
  BVA  - Mayer's bonded valence
  FA   - Mayer's free valence

  ATOM       NA         ZA         QA         VA         BVA        FA
  0 C      6.3760     6.0000    -0.3760     3.7675     3.7675    -0.0000
  1 H      0.8032     1.0000     0.1968     0.9448     0.9448    -0.0000
  2 H      0.8032     1.0000     0.1968     0.9448     0.9448    -0.0000
  3 H      0.8032     1.0000     0.1968     0.9448     0.9448    -0.0000
  4 Br    35.8400    35.0000    -0.8400     0.2814     0.2814     0.0000
  5 I     25.3745    25.0000    -0.3745     0.8757     0.8757     0.0000

  Mayer bond orders larger than 0.100000
B(  0-C ,  1-H ) :   0.9452 B(  0-C ,  2-H ) :   0.9452 B(  0-C ,  3-H ) :   0.9452 
B(  0-C ,  4-Br) :   0.1766 B(  0-C ,  5-I ) :   0.7551 B(  4-Br,  5-I ) :   0.1088 


-------
TIMINGS
-------

Total SCF time: 0 days 0 hours 0 min 9 sec 

Total time                  ....       9.474 sec
Sum of individual times     ....       8.698 sec  ( 91.8%)

SCF preparation             ....       0.690 sec  (  7.3%)
Fock matrix formation       ....       5.628 sec  ( 59.4%)
  Startup                   ....       0.032 sec  (  0.6% of F)
  Split-RI-J                ....       1.216 sec  ( 21.6% of F)
  XC integration            ....       4.092 sec  ( 72.7% of F)
    XC Preparation          ....       0.000 sec  (  0.0% of XC)
    Basis function eval.    ....       0.638 sec  ( 15.6% of XC)
    Density eval.           ....       0.636 sec  ( 15.5% of XC)
    XC-Functional eval.     ....       0.443 sec  ( 10.8% of XC)
    XC-Potential eval.      ....       0.688 sec  ( 16.8% of XC)
Diagonalization             ....       0.000 sec  (  0.0%)
Density matrix formation    ....       0.155 sec  (  1.6%)
Total Energy calculation    ....       0.281 sec  (  3.0%)
Population analysis         ....       0.177 sec  (  1.9%)
Orbital Transformation      ....       0.289 sec  (  3.1%)
Orbital Orthonormalization  ....       0.000 sec  (  0.0%)
DIIS solution               ....       1.156 sec  ( 12.2%)
SOSCF solution              ....       0.321 sec  (  3.4%)
Finished LeanSCF after   9.5 sec

Maximum memory used throughout the entire LEANSCF-calculation: 7.0 MB


           ************************************************************
           *        Program running with 8 parallel MPI-processes     *
           *              working on a common directory               *
           ************************************************************

------------------------------------------------------------------------------
                         ORCA PROPERTY INTEGRAL CALCULATIONS
------------------------------------------------------------------------------

GBWName                                   ... reactant_optfreq.gbw
Number of atoms                           ...      6
Number of basis functions                 ...    106
Max core memory                           ...   4096 MB

Dipole integrals                          ... YES
Quadrupole integrals                      ...  NO
Linear momentum integrals                 ...  NO
Angular momentum integrals                ...  NO
Higher moments length integrals           ...  NO
Higher moments velocity integrals         ...  NO
Kinetic energy integrals                  ...  NO
GIAO right hand sides                     ...  NO
GIAO dipole derivative integrals          ...  NO
SOC integrals                             ...  NO
EPR diamagnetic integrals (GIAO)          ...  NO
EPR gauge integrals                       ...  NO
Field gradient integrals                  ...  NO (   0 nuclei)
Spin-dipole/Fermi contact integrals       ...  NO (   0 nuclei)
Contact density integrals                 ...  NO (   0 nuclei)
Nucleus-orbit integrals                   ...  NO (   0 nuclei)
Geometric perturbations                   ...  NO (   6 nuclei)

Choice of electric origin   ... Center of mass
Position of electric origin ... ( -0.0000, -0.0000, -0.9704) 
Choice of magnetic origin   ... GIAO
Position of magnetic origin ... (  0.0000,  0.0000,  0.0000) 

Calculating integrals                     ... Electric Dipole (Length)     done (  0.1 sec)

Property integrals calculated in   0.1 sec

Maximum memory used throughout the entire PROPINT-calculation: 7.4 MB


-------------------------------------------------------------------------------
                          DFT DISPERSION CORRECTION                            
                                                                               
                                DFTD4 V3.4.0                                   
-------------------------------------------------------------------------------
The R2SCAN3C composite method is recognized
Using three-body term ABC
Active option DFTDOPT                   ...         5   

-------------------------   ----------------
Dispersion correction           -0.001262463
-------------------------   ----------------

------------------   -----------------
gCP correction             0.002745873
------------------   -----------------

-------------------------   --------------------
FINAL SINGLE POINT ENERGY     -2911.866029904792
-------------------------   --------------------



           ************************************************************
           *        Program running with 8 parallel MPI-processes     *
           *              working on a common directory               *
           ************************************************************
------------------------------------------------------------------------------
                         ORCA SCF GRADIENT CALCULATION
------------------------------------------------------------------------------

Nuc. rep. gradient        (SHARK) ... done (  0.0 sec)
HCore & Overlap gradient  (SHARK) ... done (  0.1 sec)
ECP gradient              (SHARK) ... done (  0.1 sec)
Split-RIJ-J gradient      (SHARK) ... done (  1.0 sec)
XC gradient                       ... done (  0.3 sec)
Dispersion correction             ... done (  0.1 sec)

-------------------
DISPERSION GRADIENT
-------------------

   1   C   :   -0.000000005   -0.000000004   -0.000008077
   2   H   :    0.000000000    0.000002928   -0.000001951
   3   H   :    0.000002535   -0.000001463   -0.000001952
   4   H   :   -0.000002530   -0.000001461   -0.000001953
   5   Br  :    0.000000000    0.000000000    0.000092628
   6   I   :    0.000000000    0.000000000   -0.000078696

Difference to translation invariance:
           :   -0.0000000000    0.0000000000    0.0000000000

Difference to rotation invariance:
           :    0.0000000000   -0.0000000000   -0.0000000000

Norm of the Dispersion gradient    ...    0.0001219646
RMS gradient                       ...    0.0000287473
MAX gradient                       ...    0.0000926284
gCP correction                   ... done

------------------
CARTESIAN GRADIENT
------------------

   1   C   :    0.000140057    0.000102557   -0.008028934
   2   H   :   -0.000005786   -0.004129245    0.000305482
   3   H   :   -0.003566357    0.002056395    0.000328252
   4   H   :    0.003435319    0.001987407    0.000369071
   5   Br  :   -0.000000299   -0.000014011   -0.006863799
   6   I   :   -0.000002935   -0.000003103    0.013889927

Difference to translation invariance:
           :    0.0000000000    0.0000000000   -0.0000000004

Difference to rotation invariance:
           :    0.0000301186   -0.0000000607    0.0000000152

Norm of the Cartesian gradient     ...    0.0188314313
RMS gradient                       ...    0.0044386109
MAX gradient                       ...    0.0138899275

-------
TIMINGS
-------

Total SCF gradient time     ....        1.693 sec

Densities                   ....       0.000 sec  (  0.0%)
One electron gradient       ....       0.081 sec  (  4.8%)
RI-J Coulomb gradient       ....       1.002 sec  ( 59.2%)
XC gradient                 ....       0.319 sec  ( 18.9%)

Maximum memory used throughout the entire SCFGRAD-calculation: 27.2 MB
------------------------------------------------------------------------------
                         ORCA GEOMETRY RELAXATION STEP
------------------------------------------------------------------------------

Reading the OPT-File                    .... done
Getting information on internals        .... done
Copying old internal coords+grads       .... done
Making the new internal coordinates     .... (2022 redundants) done
Validating the new internal coordinates .... (2022 redundants) done
Calculating the B-matrix                .... done
Calculating the G,G- and P matrices     .... done
Transforming gradient to internals      .... done
Projecting the internal gradient        .... done
Number of atoms                         ....   6
Number of internal coordinates          ....  17
Current Energy                          .... -2911.866029905 Eh
Current gradient norm                   ....     0.018831431 Eh/bohr
Maximum allowed component of the step   ....  0.300
Current trust radius                    ....  0.300
Evaluating the initial hessian          ....  (Almloef) done
Projecting the Hessian                  .... done
Forming the augmented Hessian           .... done
Diagonalizing the augmented Hessian     .... done
Last element of RFO vector              ....  0.955466031
Lowest eigenvalues of augmented Hessian:
 -0.002908098  0.010994792  0.045917445  0.045928968  0.106855427
Length of the computed step             ....  0.308855676
Warning: the length of the step is outside the trust region - taking restricted step instead
The input lambda is                     ....     0.009000
   iter:   5  x=    0.002983  g=  224.274834 f(x)=     0.477003
   iter:  10  x=   -0.003363  g=   11.288837 f(x)=     0.000061
The output lambda is                    ....    -0.003363 (12 iterations)
The final length of the internal step   ....  0.300000000
Converting the step to Cartesian space:
 Initial RMS(Int)=    0.0727606875
Transforming coordinates:
 Iter   0:  RMS(Cart)=    0.0454000426 RMS(Int)=    0.0728142151
done
Storing new coordinates                 .... done

                                .--------------------.
          ----------------------|Geometry convergence|-------------------------
          Item                value                   Tolerance       Converged
          ---------------------------------------------------------------------
          RMS gradient        0.0038078568            0.0001000000      NO
          MAX gradient        0.0138899273            0.0003000000      NO
          RMS step            0.0727606875            0.0020000000      NO
          MAX step            0.1432846359            0.0040000000      NO
          -------------------------------------------------------------------------
          ........................................................
          Max(Bonds)      0.0758      Max(Angles)    0.05
          Max(Dihed)        0.00      Max(Improp)    0.00
          ---------------------------------------------------------------------

The optimization has not yet converged - more geometry cycles are needed


    ---------------------------------------------------------------------------
                         Redundant Internal Coordinates
                            (Angstroem and degrees)

        Definition                    Value    dE/dq     Step     New-Value
    ----------------------------------------------------------------------------
     1. B(H   1,C   0)                1.0776 -0.003725  0.0052    1.0828   
     2. B(H   2,C   0)                1.0776 -0.003704  0.0052    1.0828   
     3. B(H   3,C   0)                1.0779 -0.003551  0.0049    1.0828   
     4. B(Br  4,H   2)                2.8223 -0.001763  0.0703    2.8926   
     5. B(Br  4,H   1)                2.8223 -0.001739  0.0700    2.8923   
     6. B(Br  4,H   3)                2.8223 -0.001761  0.0703    2.8926   
     7. B(Br  4,C   0)                2.9400 -0.001964  0.0758    3.0158   
     8. B(I   5,C   0)                2.2053 -0.013890  0.0678    2.2731   
     9. A(H   1,C   0,H   3)          111.93  0.000154   -0.04    111.90   
    10. A(H   2,C   0,H   3)          111.93  0.000162   -0.04    111.89   
    11. A(H   1,C   0,I   5)          106.88 -0.000162    0.04    106.92   
    12. A(H   2,C   0,I   5)          106.88 -0.000180    0.04    106.92   
    13. A(H   3,C   0,I   5)          106.87 -0.000196    0.05    106.92   
    14. A(H   1,C   0,Br  4)           73.12  0.000189   -0.05     73.07   
    15. A(H   2,C   0,Br  4)           73.12  0.000177   -0.04     73.08   
    16. A(H   3,C   0,Br  4)           73.12  0.000172   -0.04     73.09   
    17. A(H   1,C   0,H   2)          111.94  0.000168   -0.04    111.90   
    ----------------------------------------------------------------------------

Geometry step timings:
Preparation and reading OPT file:      0.000 s ( 1.759 %)
Internal coordinates            :      0.000 s ( 1.959 %)
B/P matrices and projection     :      0.000 s ( 6.837 %)
Hessian update/contruction      :      0.001 s (45.302 %)
Making the step                 :      0.000 s (16.433 %)
Converting the step to Cartesian:      0.000 s ( 2.599 %)
Storing new data                :      0.000 s ( 5.878 %)
Checking convergence            :      0.000 s ( 3.519 %)
Final printing                  :      0.000 s (15.434 %)
Total time                      :      0.003 s

Time for energy+gradient        :     26.607 s
Time for complete geometry iter :     27.417 s

         *************************************************************
         *                GEOMETRY OPTIMIZATION CYCLE   2            *
         *************************************************************
---------------------------------
CARTESIAN COORDINATES (ANGSTROEM)
---------------------------------
  C      0.000004   -0.000063   -0.317593
  H     -0.000056    1.035803   -0.002358
  H      0.897090   -0.518123   -0.002470
  H     -0.897128   -0.518080   -0.002495
  Br    -0.000003    0.000196    2.698190
  I     -0.000022    0.000152   -2.590740

----------------------------
CARTESIAN COORDINATES (A.U.)
----------------------------
  NO LB      ZA    FRAG     MASS         X           Y           Z
   0 C     6.0000    0    12.011    0.000007   -0.000120   -0.600164
   1 H     1.0000    0     1.008   -0.000106    1.957384   -0.004456
   2 H     1.0000    0     1.008    1.695254   -0.979111   -0.004667
   3 H     1.0000    0     1.008   -1.695326   -0.979028   -0.004715
   4 Br   35.0000    0    79.900   -0.000005    0.000370    5.098839
   5 I    25.0000*   0   126.900   -0.000043    0.000287   -4.895788
* core charge reduced due to ECP

--------------------------------
INTERNAL COORDINATES (ANGSTROEM)
--------------------------------
 C      0   0   0     0.000000000000     0.00000000     0.00000000
 H      1   0   0     1.082770576967     0.00000000     0.00000000
 H      1   2   0     1.082798274514   111.90301003     0.00000000
 H      1   2   3     1.082807457937   111.89521997   126.48974446
 Br     2   1   3     2.892306978294    85.94522026   296.75805840
 I      1   2   3     2.273146601059   106.92063607   243.24112670

---------------------------
INTERNAL COORDINATES (A.U.)
---------------------------
 C      0   0   0     0.000000000000     0.00000000     0.00000000
 H      1   0   0     2.046139856336     0.00000000     0.00000000
 H      1   2   0     2.046192197113   111.90301003     0.00000000
 H      1   2   3     2.046209551269   111.89521997   126.48974446
 Br     2   1   3     5.465668084204    85.94522026   296.75805840
 I      1   2   3     4.295624538256   106.92063607   243.24112670



           ************************************************************
           *        Program running with 8 parallel MPI-processes     *
           *              working on a common directory               *
           ************************************************************
------------------------------------------------------------------------------
                   ___                                                        
                  /   \      - P O W E R E D   B Y -                         
                 /     \                                                     
                 |  |  |   _    _      __       _____    __    __             
                 |  |  |  | |  | |    /  \     |  _  \  |  |  /  |          
                  \  \/   | |  | |   /    \    | | | |  |  | /  /          
                 / \  \   | |__| |  /  /\  \   | |_| |  |  |/  /          
                |  |  |   |  __  | /  /__\  \  |    /   |      \           
                |  |  |   | |  | | |   __   |  |    \   |  |\   \          
                \     /   | |  | | |  |  |  |  | |\  \  |  | \   \       
                 \___/    |_|  |_| |__|  |__|  |_| \__\ |__|  \__/        
                                                                              
                      - O R C A' S   B I G   F R I E N D -                    
                                      &                                       
                       - I N T E G R A L  F E E D E R -                       
                                                                              
 v1 FN, 2020, v2 2021, v3 2022-2024                                           
------------------------------------------------------------------------------


----------------------
SHARK INTEGRAL PACKAGE
----------------------

Number of atoms                             ...      6
Number of basis functions                   ...    106
Number of shells                            ...     46
Maximum angular momentum                    ...      2
Integral batch strategy                     ... SHARK/LIBINT Hybrid
RI-J (if used) integral strategy            ... SPLIT-RIJ (Revised 2003 algorithm where possible)
Printlevel                                  ...      1
Contraction scheme used                     ... SEGMENTED contraction
Prescreening option                         ... SCHWARTZ
   Thresh                                   ... 2.500e-11
   Tcut                                     ... 2.500e-12
   Tpresel                                  ... 2.500e-12 
Coulomb Range Separation                    ... NOT USED
Exchange Range Separation                   ... NOT USED
Multipole approximations                    ... NOT USED
Finite Nucleus Model                        ... NOT USED
CABS basis                                  ... NOT available
Auxiliary Coulomb fitting basis             ... AVAILABLE
   # of basis functions in Aux-J            ...    179
   # of shells in Aux-J                     ...     63
   Maximum angular momentum in Aux-J        ...      4
Auxiliary J/K fitting basis                 ... NOT available
Auxiliary Correlation fitting basis         ... NOT available
Auxiliary 'external' fitting basis          ... NOT available

Checking pre-screening integrals            ... done (  0.0 sec) Dimension = 46
   => SHARK Basis and OBASIS are compatible. Storing Pre-screening
Shell pair information
Shell pair cut-off parameter TPreSel        ...   2.5e-12
Total number of shell pairs                 ...      1081
Shell pairs after pre-screening             ...       959
Total number of primitive shell pairs       ...      5082
Primitive shell pairs kept                  ...      3344
          la=0 lb=0:    239 shell pairs
          la=1 lb=0:    331 shell pairs
          la=1 lb=1:    128 shell pairs
          la=2 lb=0:    137 shell pairs
          la=2 lb=1:    100 shell pairs
          la=2 lb=2:     24 shell pairs

Checking whether 4 symmetric matrices of dimension 106 fit in memory
:Max Core in MB      =   4096.00
 MB in use           =      4.72
 MB left             =   4091.28
 MB needed           =      0.17
 Data fit in memory  = YES
Calculating RI/J V-Matrix + Cholesky decomp.... done (  0.2 sec)
Calculating Nuclear repulsion               ... done (  0.0 sec) ENN=    202.441969438266 Eh

Diagonalization of the overlap matrix:
Smallest eigenvalue                        ... 4.164e-03
Time for diagonalization                   ...    0.076 sec
Threshold for overlap eigenvalues          ... 1.000e-07
Number of eigenvalues below threshold      ... 0
Time for construction of square roots      ...    0.016 sec
Total time needed                          ...    0.093 sec

-------------------
DFT GRID GENERATION
-------------------

General Integration Accuracy     IntAcc      ... 4.388
Radial Grid Type                 RadialGrid  ... OptM3 with GC (2021)
Angular Grid (max. ang.)         AngularGrid ... 4 (Lebedev-302)
Angular grid pruning method      GridPruning ... 4 (adaptive)
Weight generation scheme         WeightScheme... mBecke (2022)
Basis function cutoff            BFCut       ... 1.0000e-11
Integration weight cutoff        WCut        ... 1.0000e-14
Partially contracted basis set               ... off
Rotationally invariant grid construction     ... off
Angular grids for H and He will be reduced by one unit
Core-polarized basis detected: some atoms will have their core
                               angular grid increased.

Total number of grid points                  ...    38814
Total number of batches                      ...      609
Average number of points per batch           ...       63
Average number of grid points per atom       ...     6469
Grids setup in   1.7 sec
Initializing property integral containers    ... done (  0.0 sec)

SHARK setup successfully completed in   2.5 seconds

Maximum memory used throughout the entire STARTUP-calculation: 14.1 MB


           ************************************************************
           *        Program running with 8 parallel MPI-processes     *
           *              working on a common directory               *
           ************************************************************
Occupation numbers will be reassigned to an Aufbau configuration
             **** ENERGY FILE WAS UPDATED (reactant_optfreq.en.tmp) ****
Finished Guess after   0.7 sec
Maximum memory used throughout the entire GUESS-calculation: 7.3 MB


           ************************************************************
           *        Program running with 8 parallel MPI-processes     *
           *              working on a common directory               *
           ************************************************************
----------------------------------------D-I-I-S--------------------------------------------
Iteration    Energy (Eh)           Delta-E    RMSDP     MaxDP     DIISErr   Damp  Time(sec)
-------------------------------------------------------------------------------------------
               ***  Starting incremental Fock matrix formation  ***
    1    -2911.8682578752022891     0.00e+00  4.67e-04  2.59e-03  3.53e-02  0.700   0.8
    2    -2911.8684107628178026    -1.53e-04  4.66e-04  2.57e-03  2.47e-02  0.700   0.3
                               ***Turning on AO-DIIS***
    3    -2911.8685208040747057    -1.10e-04  3.89e-04  2.45e-03  1.73e-02  0.700   0.5
    4    -2911.8685961359051362    -7.53e-05  9.95e-04  6.63e-03  1.21e-02  0.000   0.6
                              *** Initializing SOSCF ***
---------------------------------------S-O-S-C-F--------------------------------------
Iteration    Energy (Eh)           Delta-E    RMSDP     MaxDP     MaxGrad    Time(sec)
--------------------------------------------------------------------------------------
    5    -2911.8687778740495560    -1.82e-04  9.82e-05  4.71e-04  9.09e-04     0.8
               *** Restarting incremental Fock matrix formation ***
    6    -2911.8687787377562017    -8.64e-07  1.17e-04  6.47e-04  2.87e-04     0.6
    7    -2911.8687767121655270     2.03e-06  7.52e-05  4.72e-04  7.06e-04     0.9
    8    -2911.8687794500465316    -2.74e-06  7.45e-06  5.72e-05  1.06e-05     0.6
    9    -2911.8687794509723972    -9.26e-10  2.67e-06  2.22e-05  1.06e-05     0.6
                 **** Energy Check signals convergence ****

               *****************************************************
               *                     SUCCESS                       *
               *           SCF CONVERGED AFTER   9 CYCLES          *
               *****************************************************

             **** ENERGY FILE WAS UPDATED (reactant_optfreq.en.tmp) ****

----------------
TOTAL SCF ENERGY
----------------

Total Energy       :      -2911.86877945302604 Eh          -79235.97777 eV

Components:
Nuclear Repulsion  :        202.44196943826574 Eh            5508.72605 eV
Electronic Energy  :      -3114.31074889129195 Eh          -84744.70381 eV
One Electron Energy:      -4571.34180483864566 Eh         -124392.53450 eV
Two Electron Energy:       1457.03105594735348 Eh           39647.83069 eV

Virial components:
Potential Energy   :      -5634.40887721916079 Eh         -153320.06019 eV
Kinetic Energy     :       2722.54009776613520 Eh           74084.08242 eV
Virial Ratio       :          2.06954119127290

DFT components:
N(Alpha)           :       35.000002931817 electrons
N(Beta)            :       35.000002931817 electrons
N(Total)           :       70.000005863635 electrons
E(X)               :     -117.276519669952 Eh       
E(C)               :       -3.071524334928 Eh       
E(XC)              :     -120.348044004880 Eh       

---------------
SCF CONVERGENCE
---------------

  Last Energy change         ...    9.2587e-10  Tolerance :   1.0000e-08
  Last MAX-Density change    ...    2.2203e-05  Tolerance :   1.0000e-07
  Last RMS-Density change    ...    2.6709e-06  Tolerance :   5.0000e-09
  Last DIIS Error            ...    9.0923e-04  Tolerance :   5.0000e-07
  Last Orbital Gradient      ...    1.0602e-05  Tolerance :   1.0000e-05
  Last Orbital Rotation      ...    1.0497e-05  Tolerance :   1.0000e-05


Total SCF time: 0 days 0 hours 0 min 8 sec 
Finished LeanSCF after   8.1 sec

Maximum memory used throughout the entire LEANSCF-calculation: 7.0 MB


           ************************************************************
           *        Program running with 8 parallel MPI-processes     *
           *              working on a common directory               *
           ************************************************************

------------------------------------------------------------------------------
                         ORCA PROPERTY INTEGRAL CALCULATIONS
------------------------------------------------------------------------------

GBWName                                   ... reactant_optfreq.gbw
Number of atoms                           ...      6
Number of basis functions                 ...    106
Max core memory                           ...   4096 MB

Dipole integrals                          ... YES
Quadrupole integrals                      ...  NO
Linear momentum integrals                 ...  NO
Angular momentum integrals                ...  NO
Higher moments length integrals           ...  NO
Higher moments velocity integrals         ...  NO
Kinetic energy integrals                  ...  NO
GIAO right hand sides                     ...  NO
GIAO dipole derivative integrals          ...  NO
SOC integrals                             ...  NO
EPR diamagnetic integrals (GIAO)          ...  NO
EPR gauge integrals                       ...  NO
Field gradient integrals                  ...  NO (   0 nuclei)
Spin-dipole/Fermi contact integrals       ...  NO (   0 nuclei)
Contact density integrals                 ...  NO (   0 nuclei)
Nucleus-orbit integrals                   ...  NO (   0 nuclei)
Geometric perturbations                   ...  NO (   6 nuclei)

Choice of electric origin   ... Center of mass
Position of electric origin ... ( -0.0000,  0.0003, -0.9967) 
Choice of magnetic origin   ... GIAO
Position of magnetic origin ... (  0.0000,  0.0000,  0.0000) 

Calculating integrals                     ... Electric Dipole (Length)     done (  0.1 sec)

Property integrals calculated in   0.1 sec

Maximum memory used throughout the entire PROPINT-calculation: 7.4 MB


-------------------------------------------------------------------------------
                          DFT DISPERSION CORRECTION                            
                                                                               
                                DFTD4 V3.4.0                                   
-------------------------------------------------------------------------------
-------------------------   ----------------
Dispersion correction           -0.001239162
-------------------------   ----------------

------------------   -----------------
gCP correction             0.002493503
------------------   -----------------

-------------------------   --------------------
FINAL SINGLE POINT ENERGY     -2911.867525112710
-------------------------   --------------------



           ************************************************************
           *        Program running with 8 parallel MPI-processes     *
           *              working on a common directory               *
           ************************************************************
------------------------------------------------------------------------------
                         ORCA SCF GRADIENT CALCULATION
------------------------------------------------------------------------------

Nuc. rep. gradient        (SHARK) ... done (  0.0 sec)
HCore & Overlap gradient  (SHARK) ... done (  0.1 sec)
ECP gradient              (SHARK) ... done (  0.3 sec)
Split-RIJ-J gradient      (SHARK) ... done (  1.7 sec)
XC gradient                       ... done (  0.5 sec)
Dispersion correction             ... done (  0.2 sec)

-------------------
DISPERSION GRADIENT
-------------------

   1   C   :   -0.000000001   -0.000000005   -0.000008590
   2   H   :    0.000000000    0.000002975   -0.000002055
   3   H   :    0.000002578   -0.000001488   -0.000002058
   4   H   :   -0.000002577   -0.000001489   -0.000002059
   5   Br  :    0.000000000    0.000000005    0.000092177
   6   I   :   -0.000000000    0.000000002   -0.000077416

Difference to translation invariance:
           :   -0.0000000000    0.0000000000    0.0000000000

Difference to rotation invariance:
           :   -0.0000000000   -0.0000000000   -0.0000000000

Norm of the Dispersion gradient    ...    0.0001208427
RMS gradient                       ...    0.0000284829
MAX gradient                       ...    0.0000921775
gCP correction                   ... done

------------------
CARTESIAN GRADIENT
------------------

   1   C   :    0.000014584    0.000012038   -0.005707327
   2   H   :   -0.000006832   -0.001573402    0.002833584
   3   H   :   -0.001374059    0.000786506    0.002845750
   4   H   :    0.001367228    0.000790448    0.002847464
   5   Br  :    0.000000080   -0.000016656   -0.002201980
   6   I   :   -0.000001001    0.000001066   -0.000617491

Difference to translation invariance:
           :   -0.0000000000    0.0000000000   -0.0000000000

Difference to rotation invariance:
           :    0.0000698079   -0.0000000415   -0.0000000004

Norm of the Cartesian gradient     ...    0.0083376351
RMS gradient                       ...    0.0019651994
MAX gradient                       ...    0.0057073268

-------
TIMINGS
-------

Total SCF gradient time     ....        2.801 sec

Densities                   ....       0.000 sec  (  0.0%)
One electron gradient       ....       0.086 sec  (  3.1%)
RI-J Coulomb gradient       ....       1.706 sec  ( 60.9%)
XC gradient                 ....       0.512 sec  ( 18.3%)

Maximum memory used throughout the entire SCFGRAD-calculation: 27.2 MB
------------------------------------------------------------------------------
                         ORCA GEOMETRY RELAXATION STEP
------------------------------------------------------------------------------

Reading the OPT-File                    .... done
Getting information on internals        .... done
Copying old internal coords+grads       .... done
Making the new internal coordinates     .... (2022 redundants) done
Validating the new internal coordinates .... (2022 redundants) done
Calculating the B-matrix                .... done
Calculating the G,G- and P matrices     .... done
Transforming gradient to internals      .... done
Projecting the internal gradient        .... done
Number of atoms                         ....   6
Number of internal coordinates          ....  17
[...]



--------------------
Rotational spectrum 
--------------------
 
Rotational constants in cm-1:             5.096237             0.012017             0.012017 
Rotational constants in MHz :        152781.350350           360.265261           360.265233 

Dipole components along the rotational axes: 
x,y,z [a.u.] :    -3.432225    -0.000015     0.000655 
x,y,z [Debye]:    -8.724022    -0.000039     0.001664 

 

Dipole moment calculation done in   0.0 sec 

-----------
SCF HESSIAN
-----------

Occupied/Occupied contributions to the Hessian:
   => Occupied/Occupied contributions              ... done (  0.0 sec)
Perturbed density contributions to the Hessian:
   => Perturbed density contributions              ... done (  0.0 sec)
Explicit contributions to the Hessian:
   => Nuclear repulsion Hessian                    ... done (  0.0 sec)
   => HCore and overlap Hessian                    ... done (  0.5 sec)
   => ECP Hessian                                  ... done (  2.1 sec)
   => RI-J Hessian                                 ... done (  1.4 sec)
   => XC-Hessian                                   ... done (  3.3 sec)
   => Van der Waals-Hessian                        ... done (  1.0 sec)
   => GCP-Hessian                                  ... done (  0.1 sec)
   => Explicit contributions done
Dipole derivatives                                 ... done (  0.0 sec)
Mass weighting the Hessian           ... done
Calculating normal modes             ... done
Scaling frequencies                  ... done

-----------------------
VIBRATIONAL FREQUENCIES
-----------------------

Scaling factor for frequencies =  1.000000000  (already applied!)

     0:       0.00 cm**-1
     1:       0.00 cm**-1
     2:       0.00 cm**-1
     3:       0.00 cm**-1
     4:       0.00 cm**-1
     5:       0.00 cm**-1
     6:      82.86 cm**-1
     7:      99.58 cm**-1
     8:      99.60 cm**-1
     9:     319.73 cm**-1
    10:     840.43 cm**-1
    11:     840.66 cm**-1
    12:    1144.52 cm**-1
    13:    1430.34 cm**-1
    14:    1430.52 cm**-1
    15:    3123.01 cm**-1
    16:    3282.44 cm**-1
    17:    3283.36 cm**-1


------------
NORMAL MODES
------------

These modes are the Cartesian displacements weighted by the diagonal matrix
M(i,i)=1/sqrt(m[i]) where m[i] is the mass of the displaced atom
Thus, these vectors are normalized but *not* orthogonal

                  0          1          2          3          4          5    
      0       0.000000   0.000000   0.000000   0.000000   0.000000   0.000000
      1       0.000000   0.000000   0.000000   0.000000   0.000000   0.000000
      2       0.000000   0.000000   0.000000   0.000000   0.000000   0.000000
      3       0.000000   0.000000   0.000000   0.000000   0.000000   0.000000
      4       0.000000   0.000000   0.000000   0.000000   0.000000   0.000000
      5       0.000000   0.000000   0.000000   0.000000   0.000000   0.000000
      6       0.000000   0.000000   0.000000   0.000000   0.000000   0.000000
      7       0.000000   0.000000   0.000000   0.000000   0.000000   0.000000
      8       0.000000   0.000000   0.000000   0.000000   0.000000   0.000000
      9       0.000000   0.000000   0.000000   0.000000   0.000000   0.000000
     10       0.000000   0.000000   0.000000   0.000000   0.000000   0.000000
     11       0.000000   0.000000   0.000000   0.000000   0.000000   0.000000
     12       0.000000   0.000000   0.000000   0.000000   0.000000   0.000000
     13       0.000000   0.000000   0.000000   0.000000   0.000000   0.000000
     14       0.000000   0.000000   0.000000   0.000000   0.000000   0.000000
     15       0.000000   0.000000   0.000000   0.000000   0.000000   0.000000
     16       0.000000   0.000000   0.000000   0.000000   0.000000   0.000000
     17       0.000000   0.000000   0.000000   0.000000   0.000000   0.000000
                  6          7          8          9         10         11    
      0      -0.000040  -0.004767  -0.446345   0.000004  -0.000084   0.082733
      1       0.005934  -0.446327   0.004766   0.000711   0.082727   0.000084
      2      -0.416744  -0.000826   0.000009  -0.711724   0.000102   0.000000
      3      -0.000045  -0.005263  -0.493961   0.000003   0.000182  -0.181407
      4      -0.010952  -0.502095   0.005362  -0.071399  -0.117792  -0.000120
      5      -0.321386   0.198304  -0.002117  -0.396077   0.784535   0.000795
      6      -0.015244  -0.000449  -0.497405  -0.062059  -0.027627  -0.133166
      7       0.015286  -0.493272   0.013065   0.036489  -0.164969  -0.028393
      8      -0.317905  -0.098300   0.173484  -0.396533  -0.392972   0.679011
      9       0.015153  -0.010186  -0.497300   0.062065   0.027896  -0.133105
     10       0.015284  -0.493417  -0.002528   0.036489  -0.165024   0.028059
     11      -0.317940  -0.101983  -0.171344  -0.396534  -0.391599  -0.679799
     12       0.000005   0.000411   0.038480  -0.000000  -0.000000   0.000295
     13      -0.000452   0.038479  -0.000411  -0.000023   0.000296   0.000000
     14       0.630393   0.000571  -0.000010  -0.006878  -0.000005  -0.000000
     15       0.000002   0.000319   0.029843  -0.000000   0.000005  -0.004460
     16      -0.000433   0.029843  -0.000319  -0.000066  -0.004459  -0.000005
     17      -0.349866  -0.000266   0.000005   0.081140  -0.000006  -0.000000
                 12         13         14         15         16         17    
      0      -0.000000  -0.078179  -0.000552  -0.000001  -0.000200  -0.098032
      1       0.000027  -0.000553   0.078195  -0.000138  -0.098038   0.000201
      2      -0.080120   0.000000  -0.000026   0.031862  -0.000122  -0.000000
      3       0.000001   0.773165   0.005464   0.000001  -0.000039  -0.018219
      4      -0.143217  -0.000817   0.115771  -0.562191   0.788938  -0.001607
      5       0.557436   0.001601  -0.226317  -0.126095   0.196573  -0.000401
      6      -0.123247   0.109276  -0.384257  -0.488061  -0.347479   0.587508
      7       0.071271   0.388602  -0.548228   0.281898   0.182519  -0.349772
      8       0.557568   0.195853   0.114664  -0.125838  -0.097165   0.169397
      9       0.123246   0.103834   0.385762   0.488073   0.349879   0.586074
     10       0.071270  -0.380815  -0.553667   0.281904   0.183947   0.349016
     11       0.557574  -0.197455   0.111887  -0.125839  -0.097856  -0.168993
     12      -0.000000  -0.000105  -0.000001   0.000000   0.000000   0.000032
     13      -0.000001  -0.000001   0.000104   0.000000   0.000033  -0.000000
     14      -0.001581  -0.000000   0.000001   0.000096  -0.000001   0.000000
     15       0.000000  -0.000368  -0.000003   0.000000   0.000000   0.000081
     16       0.000003  -0.000003   0.000367   0.000000   0.000081  -0.000000
     17      -0.004707   0.000000  -0.000000  -0.000075  -0.000000   0.000000


-----------
IR SPECTRUM
-----------

 Mode   freq       eps      Int      T**2         TX        TY        TZ
       cm**-1   L/(mol*cm) km/mol    a.u.
----------------------------------------------------------------------------
  6:     82.86   0.006286   31.76  0.023673  (-0.000001  0.000145 -0.153861)
  7:     99.58   0.000652    3.29  0.002042  (-0.000483 -0.045179 -0.000894)
  8:     99.60   0.000652    3.29  0.002043  (-0.045193  0.000482  0.000009)
  9:    319.73   0.078213  395.25  0.076337  (-0.000000  0.000035 -0.276292)
 10:    840.43   0.000341    1.72  0.000127  ( 0.000011 -0.011251  0.000004)
 11:    840.66   0.000345    1.74  0.000128  (-0.011315 -0.000011  0.000000)
 12:   1144.52   0.017981   90.87  0.004903  (-0.000000  0.000025 -0.070019)
 13:   1430.34   0.001441    7.28  0.000314  ( 0.017731  0.000126  0.000001)
 14:   1430.52   0.001456    7.36  0.000318  ( 0.000125 -0.017821 -0.000085)
 15:   3123.01   0.000168    0.85  0.000017  (-0.000000 -0.000083 -0.004100)
 16:   3282.44   0.000743    3.75  0.000071  ( 0.000017  0.008404 -0.000048)
 17:   3283.36   0.000752    3.80  0.000072  ( 0.008456 -0.000017  0.000000)

* The epsilon (eps) is given for a Dirac delta lineshape.
** The dipole moment derivative (T) already includes vibrational overlap.

The first frequency considered to be a vibration is 6
The total number of vibrations considered is 12


--------------------------
THERMOCHEMISTRY AT 298.15K
--------------------------

Temperature         ...   298.15 K
Pressure            ...     1.00 atm
Total Mass          ...   221.84 AMU
Quasi RRHO          ...     True
Cut-Off Frequency   ...     1.00 cm^-1

Throughout the following assumptions are being made:
  (1) The electronic state is orbitally nondegenerate
  (2) There are no thermally accessible electronically excited states
  (3) Hindered rotations indicated by low frequency modes are not
      treated as such but are treated as vibrations and this may
      cause some error
  (4) All equations used are the standard statistical mechanics
      equations for an ideal gas
  (5) All vibrations are strictly harmonic

freq.      82.86  E(vib)   ...       0.48 
freq.      99.58  E(vib)   ...       0.46 
freq.      99.60  E(vib)   ...       0.46 
freq.     319.73  E(vib)   ...       0.25 
freq.     840.43  E(vib)   ...       0.04 
freq.     840.66  E(vib)   ...       0.04 
freq.    1144.52  E(vib)   ...       0.01 
freq.    1430.34  E(vib)   ...       0.00 
freq.    1430.52  E(vib)   ...       0.00 
freq.    3123.01  E(vib)   ...       0.00 
freq.    3282.44  E(vib)   ...       0.00 
freq.    3283.36  E(vib)   ...       0.00 

------------
INNER ENERGY
------------

The inner energy is: U= E(el) + E(ZPE) + E(vib) + E(rot) + E(trans)
    E(el)   - is the total energy from the electronic structure calculation
              = E(kin-el) + E(nuc-el) + E(el-el) + E(nuc-nuc)
    E(ZPE)  - the the zero temperature vibrational energy from the frequency calculation
    E(vib)  - the the finite temperature correction to E(ZPE) due to population
              of excited vibrational states
    E(rot)  - is the rotational thermal energy
    E(trans)- is the translational thermal energy

Summary of contributions to the inner energy U:
Electronic energy                ...  -2911.86793030 Eh
Zero point energy                ...      0.03639842 Eh      22.84 kcal/mol
Thermal vibrational correction   ...      0.00280393 Eh       1.76 kcal/mol
Thermal rotational correction    ...      0.00141627 Eh       0.89 kcal/mol
Thermal translational correction ...      0.00141627 Eh       0.89 kcal/mol
-----------------------------------------------------------------------
Total thermal energy                  -2911.82589540 Eh


Summary of corrections to the electronic energy:
(perhaps to be used in another calculation)
Total thermal correction                  0.00563647 Eh       3.54 kcal/mol
Non-thermal (ZPE) correction              0.03639842 Eh      22.84 kcal/mol
-----------------------------------------------------------------------
Total correction                          0.04203489 Eh      26.38 kcal/mol


--------
ENTHALPY
--------

The enthalpy is H = U + kB*T
                kB is Boltzmann's constant
Total thermal energy              ...  -2911.82589540 Eh 
Thermal Enthalpy correction       ...      0.00094421 Eh       0.59 kcal/mol
-----------------------------------------------------------------------
Total Enthalpy                    ...  -2911.82495120 Eh


Note: Rotational entropy computed according to Herzberg 
Infrared and Raman Spectra, Chapter V,1, Van Nostrand Reinhold, 1945 
Point Group:  Cs, Symmetry Number:   1  
Rotational constants in cm-1:     5.096242     0.012017     0.012017 

Vibrational entropy computed according to the QRRHO of S. Grimme
Chem.Eur.J. 2012 18 9955 using a reference frequency of 100.0 cm-1


-------
ENTROPY
-------

The entropy contributions are T*S = T*(S(el)+S(vib)+S(rot)+S(trans))
     S(el)   - electronic entropy
     S(vib)  - vibrational entropy
     S(rot)  - rotational entropy
     S(trans)- translational entropy
The entropies will be listed as multiplied by the temperature to get
units of energy

Electronic entropy                ...      0.00000000 Eh      0.00 kcal/mol
Vibrational entropy               ...      0.00539786 Eh      3.39 kcal/mol
Rotational entropy                ...      0.01291663 Eh      8.11 kcal/mol
Translational entropy             ...      0.01999968 Eh     12.55 kcal/mol
-----------------------------------------------------------------------
Final entropy term                ...      0.03831416 Eh     24.04 kcal/mol

In case the symmetry of your molecule has not been determined correctly
or in case you have a reason to use a different symmetry number we print 
out the resulting rotational entropy values for sn=1,12:

 non-linear molecules -----------------------------------
|  sn= 1 | S(rot)=       0.01291663 Eh      8.11 kcal/mol|
|  sn= 2 | S(rot)=       0.01226217 Eh      7.69 kcal/mol|
|  sn= 3 | S(rot)=       0.01187934 Eh      7.45 kcal/mol|
|  sn= 4 | S(rot)=       0.01160772 Eh      7.28 kcal/mol|
|  sn= 5 | S(rot)=       0.01139703 Eh      7.15 kcal/mol|
|  sn= 6 | S(rot)=       0.01122488 Eh      7.04 kcal/mol|
|  sn= 7 | S(rot)=       0.01107934 Eh      6.95 kcal/mol|
|  sn= 8 | S(rot)=       0.01095326 Eh      6.87 kcal/mol|
|  sn= 9 | S(rot)=       0.01084205 Eh      6.80 kcal/mol|
|  sn=10 | S(rot)=       0.01074257 Eh      6.74 kcal/mol|
|  sn=11 | S(rot)=       0.01065258 Eh      6.68 kcal/mol|
|  sn=12 | S(rot)=       0.01057043 Eh      6.63 kcal/mol|
 linear molecules ---------------------------------------
|  Dinfh | S(rot)=       0.00950043 Eh      5.96 kcal/mol|
|  Cinfv | S(rot)=       0.01015488 Eh      6.37 kcal/mol|
 --------------------------------------------------------


-------------------
GIBBS FREE ENERGY
-------------------

The Gibbs free energy is G = H - T*S

Total enthalpy                    ...  -2911.82495120 Eh 
Total entropy correction          ...     -0.03831416 Eh    -24.04 kcal/mol
-----------------------------------------------------------------------
Final Gibbs free energy         ...  -2911.86326536 Eh

For completeness - the Gibbs free energy minus the electronic energy
G-E(el)                           ...      0.00466494 Eh      2.93 kcal/mol


Maximum memory used throughout the entire PROP-calculation: 32.3 MB

--------------------------------
SUGGESTED CITATIONS FOR THIS RUN
--------------------------------

Below you find a list of papers that are relevant to this ORCA run
We neither can nor want to force you to cite these papers, but we appreciate if you do
You receive ORCA, which is the product of decades of hard work by many enthusiastic individuals, for free
The only thing we kindly ask in return is that you cite our papers,
We deeply appreciate it, if you show your appreciation for ORCA by not just citing the generic ORCA reference.

Please note that relegating all ORCA citations to the supporting information does *not* help us.
SI sections are not indexed - citations you put there will not count into any citation statistics
But we need these citations in order to attract the funding resources that allow us to do what we are doing

Therefore, if you are a happy ORCA user, please consider citing a few of the papers listed below in the main body of your paper

In addition to the list printed below, the program has created the file reactant_optfreq.bibtex that contains the list in bibtex format
You can import this file easily into all common literature databanks and citation aid programs


List of essential papers. We consider these as the minimum necessary citations

  1. Grimme, S.; Hansen, A.; Ehlert, S.; Mewes, J.
     r2SCAN-3c: A 'Swiss army knife' composite electronic-structure method
     J. Chem. Phys. 2021 154 , 064103
     doi.org/10.1063/5.0040021
  2. Neese, F.
     Software update: the ORCA program system, version 6.0
     WIRES Comput. Molec. Sci. 2025 15(1), e70019
     doi.org/10.1002/wcms.7019

List of papers to cite with high priority. The work reported in these papers was absolutely
necessary for this run to complete.
Our perspective: the developers of density functionals and basis sets usually get cited in chemistry papers
Good! But without the algorithms to do something with them, the functionals or basis sets would not do anything.
Hence, in our opinion, the algorithm design and method developments papers are equally worthy of getting cited

  1. Neese, F.
     An improvement of the resolution of the identity approximation for the formation of the Coulomb matrix
     J. Comp. Chem. 2003 24(14), 1740-1747
     doi.org/10.1002/jcc.10318
  2. Bykov, D.; Petrenko, T.; Izsak, R.; Kossmann, S.; Becker, U.; Valeev, E.; Neese, F.
     Efficient implementation of the analytic second derivatives of Hartree-Fock and hybrid DFT energies: a detailed analysis of different approximations
     Molec. Phys. 2015 113 , 1961-1977
     doi.org/10.1080/00268976.2015.1025114
  3. Caldeweyher, E.; Bannwarth, C.; Grimme, S.
     Extension of the D3 dispersion coefficient model
     J. Chem. Phys. 2017 147 , 034112
     doi.org/10.1063/1.4993215
  4. Lehtola, S.; Steigemann, C.; Oliveira, M.; Marques, M.
     Recent developments in Libxc - A comprehensive library of functionals for density functional theory
     Software X 2018 7 , 
     doi.org/10.1016/j.softx.2017.11.002
  5. Caldeweyher, E.; Ehlert, S.; Hansen, A.; Neugebauer, H.; Spicher, S.; Bannwarth, C.; Grimme, S.
     A generally applicable atomic-charge dependent London dispersion correction
     J. Chem. Phys. 2019 150 , 154122
     doi.org/10.1063/1.5090222
  6. Caldeweyher, E.; Mewes, J.; Ehlert, S.; Grimme, S.
     Extension and evaluation of the D4 London-dispersion model for periodic systems
     Phys. Chem. Chem. Phys. 2020 22(16), 8499-8512
     doi.org/10.1039/D0CP00502A
  7. Neese, F.
     The SHARK Integral Generation and Digestion System
     J. Comp. Chem. 2022 44(3), 381
     doi.org/10.1002/jcc.26942
  8. Wittmann, L.; Gordiy, I.; Friede, M.; Helmich-Paris, B.; Grimme, S.; Hansen, A.; Bursch, M.
     Extension of the D3 and D4 London Dispersion Corrections to the full Actinides Series
     Phys. Chem. Chem. Phys. 2024 26(32), 21379-21394
     doi.org/10.1039/D4CP01514B

List of suggested additional citations. These are papers that are important in the 'surrounding' of 
of this run, or papers that preceded the highly important papers. If you like your results we are grateful for a citation.

  1. Neese, F.
     The ORCA program system
     WIRES Comput. Molec. Sci. 2012 2(1), 73-78
     doi.org/10.1002/wcms.81
  2. Neese, F.
     Software update: the ORCA program system, version 4.0
     WIRES Comput. Molec. Sci. 2018 8(1), 1-6
     doi.org/10.1002/wcms.1327
  3. Neese, F.; Wennmohs, F.; Becker, U.; Riplinger, C.
     The ORCA quantum chemistry program package
     J. Chem. Phys. 2020 152(22), 224108
     doi.org/10.1063/5.0004608
  4. Neese, F.
     Software update: The ORCA program system—Version 5.0
     WIRES Comput. Molec. Sci. 2022 12(1), e1606
     doi.org/10.1002/wcms.1606

List of optional additional citations

  1. Neese, F.
     Approximate second-order SCF convergence for spin unrestricted wavefunctions
     Chem. Phys. Lett. 2000 325(1-3), 93-98
     doi.org/10.1016/s0009-2614(00)00662-x

Timings for individual modules:

Sum of individual times          ...      145.682 sec (=   2.428 min)
Startup calculation              ...       20.852 sec (=   0.348 min)  14.3 %
SCF iterations                   ...       64.722 sec (=   1.079 min)  44.4 %
Property integrals               ...       18.286 sec (=   0.305 min)  12.6 %
SCF Response                     ...        5.399 sec (=   0.090 min)   3.7 %
Property calculations            ...        9.294 sec (=   0.155 min)   6.4 %
SCF Gradient evaluation          ...       27.030 sec (=   0.450 min)  18.6 %
Geometry relaxation              ...        0.099 sec (=   0.002 min)   0.1 %
                             ****ORCA TERMINATED NORMALLY****
TOTAL RUN TIME: 0 days 0 hours 2 minutes 34 seconds 362 msec
