
                                 *****************
                                 * O   R   C   A *
                                 *****************

                                            #,                                       
                                            ###                                      
                                            ####                                     
                                            #####                                    
                                            ######                                   
                                           ########,                                 
                                     ,,################,,,,,                         
                               ,,#################################,,                 
                          ,,##########################################,,             
                       ,#########################################, ''#####,          
                    ,#############################################,,   '####,        
                  ,##################################################,,,,####,       
                ,###########''''           ''''###############################       
              ,#####''   ,,,,##########,,,,          '''####'''          '####       
            ,##' ,,,,###########################,,,                        '##       
           ' ,,###''''                  '''############,,,                           
         ,,##''                                '''############,,,,        ,,,,,,###''
      ,#''                                            '''#######################'''  
     '                                                          ''''####''''         
             ,#######,   #######,   ,#######,      ##                                
            ,#'     '#,  ##    ##  ,#'     '#,    #''#        ,####,    ,#,          
            ##       ##  ##   ,#'  ##            #'  '#       #'       ,# #          
            ##       ##  #######   ##           ,######,      #####,      #          
            '#,     ,#'  ##    ##  '#,     ,#' ,#      #,     #,   #      #          
             '#######'   ##     ##  '#######'  #'      '#     '####' #    #          



                #########################################################
                #                        -***-                          #
                #          Department of theory and spectroscopy        #
                #                                                       #
                #                      Frank Neese                      #
                #                                                       #
                #     Directorship, Architecture, Infrastructure        #
                #                    SHARK, DRIVERS                     #
                #        Core code/Algorithms in most modules           #
                #                                                       #
                #        Max Planck Institute fuer Kohlenforschung      #
                #                Kaiser Wilhelm Platz 1                 #
                #                 D-45470 Muelheim/Ruhr                 #
                #                      Germany                          #
                #                                                       #
                #                  All rights reserved                  #
                #                        -***-                          #
                #########################################################


                         Program Version 6.1.0  -  RELEASE   -
                                (GIT: $679e74b$)
                          ($2025-06-10 18:02:51 +0200$)


 With contributions from (in alphabetic order):
[Max-Planck-Institut fuer Kohlenforschung]                               
  Daniel Aravena         : Magnetic Suceptibility                        
  Michael Atanasov       : Ab Initio Ligand Field Theory (pilot matlab implementation)
  Alexander A. Auer      : GIAO ZORA, VPT2 properties, NMR spectrum      
  Ute Becker             : All parallelization in ORCA, NUMFREQ, NUMCALC 
  Giovanni Bistoni       : ED, misc. LED, open-shell LED, HFLD           
  Dmytro Bykov           : pre 5.0 version of the SCF Hessian            
  Marcos Casanova-Páez   : Triplet and SCS-CIS(D). UHF-(DLPNO)-IP/EA/STEOM-CCSD. UHF-CVS-IP/STEOM-CCSD   
  Vijay G. Chilkuri      : MRCI spin determinant printing, contributions to CSF-ICE 
  Pauline Colinet        : FMM embedding                                 
  Dipayan Datta          : RHF DLPNO-CCSD density                        
  Achintya Kumar Dutta   : EOM-CC, STEOM-CC                              
  Nicolas Foglia         : Exact transition moments, OPA infrastructure, MCD improvements    
  Dmitry Ganyushin       : Spin-Orbit,Spin-Spin,Magnetic field MRCI      
  Miquel Garcia-Rates    : C-PCM and meta-GGA Hessian, CCSD/C-PCM, Gaussian charge scheme 
  Tiago L. C. Gouveia    : GS-ROHF, GS-ROCIS                             
  Yang Guo               : DLPNO-NEVPT2, F12-NEVPT2, CIM, IAO-localization        
  Andreas Hansen         : Spin unrestricted coupled pair/coupled cluster methods 
  Ingolf Harden          : AUTO-CI MPn and infrastructure                
  Benjamin Helmich-Paris : MC-RPA, TRAH-(SCF,CASSCF), AVAS, COSX integrals, SCF dyn. polar., MC-PDFT, srDFT 
  Lee Huntington         : MR-EOM, pCC                                   
  Robert Izsak           : Overlap fitted RIJCOSX, COSX-SCS-MP3, EOM     
  Riya Kayal             : Wick's Theorem for AUTO-CI, AUTO-CI UHF-CCSDT 
  Emily Kempfer          : AUTO-CI RHF CISDT and CCSDT, approximate NEVPT4
  Christian Kollmar      : KDIIS, OOCD, Brueckner-CCSD(T), CCSD density, CASPT2, CASPT2-K, improved NEVPT2 
  Axel Koslowski         : Symmetry handling                             
  Simone Kossmann        : meta-GGA functionals, TD-DFT gradient, OOMP2, (MP2 Hessian; deprecated post 5.0) 
  Lucas Lang             : DCDCAS, Hyperfine gauge corrections, ICE-SOC+SSC
  Marvin Lechner         : AUTO-CI (C++ implementation), FIC-MRCC        
  Spencer Leger          : CASSCF response                               
  Dagmar Lenk            : GEPOL surface, SMD, ORCA-2-JSON               
  Dimitrios Liakos       : Extrapolation schemes; Compound Job, Property file
  Dimitrios Manganas     : Further ROCIS development; embedding schemes. LFT, Crystal Embedding 
  Dimitrios Pantazis     : SARC Basis sets                               
  Anastasios Papadopoulos: AUTO-CI, single reference methods and gradients 
  Taras Petrenko         : pre 6.0 DFT Hessian and TD-DFT gradient,  ECA, NRVS 
  Petra Pikulova         : Analytic Raman intensities                    
  Peter Pinski           : DLPNO-MP2, DLPNO-MP2 Gradient                 
  Shashank Vittal Rao    : ES-AILFT, MagRelax                            
  Christoph Reimann      : Effective Core Potentials                     
  Marius Retegan         : Local ZFS, SOC                                
  Christoph Riplinger    : Optimizer, TS searches, QM/MM, DLPNO-CCSD(T), (RO)-DLPNO pert. Triples 
  Michael Roemelt        : Original ROCIS implementation, recursive CI coupling coefficients
  Masaaki Saitow         : Open-shell DLPNO-CCSD energy and density      
  Barbara Sandhoefer     : DKH picture change effects                    
  Yorick L. A. Schmerwitz: GMF and freeze-and-release deltaSCF, NEB S-IDPP initial path                    
  Kantharuban Sivalingam : CASSCF convergence/infrastructure, NEVPT2, NEVPT3, NEVPT4(SD), FIC-MRCI and CEPA variants
  Bernardo de Souza      : ESD, SOC TD-DFT                               
  Georgi L. Stoychev     : AutoAux, RI-MP2 NMR, DLPNO-MP2 response, X2C  
  Van Anh Tran           : RI-MP2 g-tensors                              
  Willem Van den Heuvel  : Paramagnetic NMR                              
  Zikuan Wang            : NOTCH, Electric field optimization            
  Frank Wennmohs         : Technical directorship and infrastructure     
  Hang Xu                : AUTO-CI-Response properties                   
                                                                         
[FACCTs GmbH]                                                            
  Markus Bursch, Nicolas Foglia, Miquel Garcia-Rates, Ingolf Harden, Hagen Neugebauer, Anastasios Papadopoulos, 
  Christoph Riplinger, Bernardo de Souza, Georgi L. Stoychev                                                    
                                                                 
  APM, various basis sets, CI-OPT, improved COSX, DLPNO-Multilevel,           
  DOCKER, DRACO, updates on ESD, Fragmentator, GOAT, IRC, LR-CPCM, L-BFGS, MBIS, meta-GGA TD-DFT gradient, ML-optimized integration grids, 
  MM, NACMEs, nearIR, NEB, NEB-TS, NL-DFT gradient (VV10), 2- and 3-layer-ONIOM, interface openCOSMO-RS, QMMM,   
  Crystal-QMMM, RESP, rigid body optimization, SF, symmetry and pop. for TD-DFT, various functionals, SOLVATOR                                   
                                                                         
[Other institutions]                                                     
  V. Asgeirsson          : NEB                                           
  Christoph Bannwarth    : sTDA-DFT, sTD-DFT, PBEh-3c, B97-3c, D3        
  Giovanni Bistoni       : ETS/NOCV, ADLD/ADEX, COVALED                  
  Martin Brehm           : Molecular dynamics                            
  Ronald Cardenas        : ETS/NOCV                                      
  Martina Colucci        : COVALED                                       
  Sebastian Ehlert       : rSCAN, r2SCAN, r2SCAN-3c, D4, dhf basis sets  
  Marvin Friede          : D4 for Fr, Ra, Ac-Lr                          
  Lars Goerigk           : TD-DFT with DH, B97 family of functionals     
  Stefan Grimme          : VdW corrections, initial TS optimization, DFT functionals, gCP, sTDA/sTD-DF 
  Waldemar Hujo          : DFT-NL                                        
  H. Jonsson             : NEB                                           
  Holger Kruse           : gCP                                           
  Marcel Mueller         : wB97X-3c, vDZP basis set                      
  Hagen Neugebauer       : wr2SCAN, Native XTB                           
  Gianluca Regni         : ADLD/ADEX                                     
  Tobias Risthaus        : pre 6.0 range-separated hybrid DFT and stability analysis
  Lukas Wittmann         : regularized MP2, r2SCAN double-hybrids, wr2SCAN        
                                                                         
We gratefully acknowledge several colleagues who have allowed us to      
interface, adapt or use parts of their codes:                            
  Ed Valeev, F. Pavosevic, A. Kumar             : LibInt (2-el integral package), F12 methods 
  Garnet Chan, S. Sharma, J. Yang, R. Olivares  : DMRG                   
  Ulf Ekstrom                                   : XCFun DFT Library      
  Mihaly Kallay                                 : mrcc  (arbitrary order and MRCC methods)
  Frank Weinhold                                : gennbo (NPA and NBO analysis)           
  Simon Mueller                                 : openCOSMO-RS                            
  Christopher J. Cramer and Donald G. Truhlar   : smd solvation model                     
  S Lehtola, MJT Oliveira, MAL Marques          : LibXC Library                           
  Liviu Ungur et al                             : ANISO software                          


 Your calculation uses the libint2 library for the computation of 2-el integrals
 For citations please refer to: http://libint.valeyev.net

 Your ORCA version has been built with support for libXC version: 7.0.0
 For citations please refer to: https://libxc.gitlab.io

 This ORCA versions uses:
   CBLAS   interface :  Fast vector & matrix operations
   LAPACKE interface :  Fast linear algebra routines
   SCALAPACK package :  Parallel linear algebra routines
   Shared memory     :  Shared parallel matrices
   BLAS/LAPACK       :  OpenBLAS 0.3.29  USE64BITINT DYNAMIC_ARCH NO_AFFINITY SkylakeX SINGLE_THREADED
        Core in use  :  SkylakeX
   Copyright (c) 2011-2014, The OpenBLAS Project


  ***********************************
  * Starting time: Thu Mar 12 13:31:41 2026
  * Host name:     midway3-login4.rcc.local
  * Process ID:    3103823
  * Working dir.:  /home/rzhu16/orca_TS_search/sn2_br_i/DFT_test
  ***********************************

Your calculation utilizes the geometrical counterpoise correction gCP
Please cite in your paper:
H.Kruse, S. Grimme J.Chem.Phys., 136, (2012), 154101 
   

Your calculation utilizes the atom-pairwise dispersion correction
based on EEQ partial charges (D4)


================================================================================

cite the ECPs for I  [Def2-ECP] as follows:
Ce-Yb(ecp-28): M. Dolg, H. Stoll, H.Preuss, J. Chem. Phys., 1989, 90, 1730-1734.
Y-Cd(ecp-28), Hf-Hg(ecp-46): D. Andrae,U. Haeussermann, M. Dolg, H. Stoll, H. Preuss, Theor. Chim. Acta, 1990, 77, 123-141.
In-Sb(ecp-28), Tl-Bi(ecp-46): B. Metz, H. Stoll, M. Dolg, J. Chem. Phys., 2000, 113, 2563-2569.
Te-Xe(ecp-28), Po-Rn(ecp-46): K. A. Peterson, D. Figgen, E. Goll, H. Stoll, M. Dolg, J. Chem. Phys., 2003, 119, 11113-11123.
Rb(ecp-28), Cs(ecp-46): T. Leininger, A. Nicklass, W. Kuechle, H. Stoll, M. Dolg, A. Bergner, Chem. Phys. Lett., 1996, 255, 274-280.
Sr(ecp-28), Ba(ecp-46): M. Kaupp, P. V. Schleyer, H. Stoll and H. Preuss, J. Chem. Phys., 1991, 94, 1360-1366.
La(ecp-46): M. Dolg, H. Stoll, A. Savin, H. Preuss, Theor. Chim. Acta, 1989, 75, 173-194.
Lu(ecp-28): X. Cao, M. Dolg, J. Chem. Phys., 2001, 115, 7348-7355.
Fr-Ra(ecp-78) K. Eichkorn, F. Weigend, O. Treutler, R. Ahlrichs, Theor. Chem. Acc. 1997, 97, 119.
Ac-Lr(ecp-60) K. Eichkorn, F. Weigend, O. Treutler, R. Ahlrichs, Theor. Chem. Acc. 1997, 97, 119.

ECP parameters for I  [Def2-ECP] have been obtained from:
TURBOMOLE (7.0.2)

----- Orbital basis set information -----
Your calculation utilizes the basis: def2-mTZVPP
   Stefan Grimme, Andreas Hansen, Sebastian Ehlert, and Jan-Michael Mewes 
   J. Chem. Phys. 154, 064103 (2021). DOI: 10.1063/5.0040021

----- AuxJ basis set information -----
Your calculation utilizes the basis: def2-mTZVPP/J
   Stefan Grimme, Andreas Hansen, Sebastian Ehlert, and Jan-Michael Mewes 
   J. Chem. Phys. 154, 000000 (2021). DOI: 10.1063/5.0040021

================================================================================
                                        WARNINGS
                       Please study these warnings very carefully!
================================================================================



WARNING: SCAN, rSCAN, or r2SCAN functional requested.
  ===> : libXC variant has now been activated.



WARNING: Geometry Optimization
  ===> : Switching off AutoStart
         For restart on a previous wavefunction, please use MOREAD

================================================================================
                                       INPUT FILE
================================================================================
NAME = ts_optfreq.inp
|  1> ! r2SCAN-3c OptTS Freq PAL8 SOSCF TightSCF
|  2> 
|  3> %pal
|  4>    nprocs 8
|  5> end
|  6> 
|  7> %scf
|  8>    MaxIter 150
|  9> end
| 10> 
| 11> %geom
| 12>   Calc_Hess true
| 13>   Recalc_Hess 5
| 14> end
| 15> 
| 16> * xyz -1 1
| 17>   C           0.00000000462331      0.00000001932483      0.03047046111233
| 18>   H           0.00000000580859      1.06664897686047      0.02486792140707
| 19>   H           0.92374509705202     -0.53332445743258      0.02486780773728
| 20>   H          -0.92374508720114     -0.53332445844262      0.02486780811659
| 21>   Br         -0.00000000444116     -0.00000025027761      2.44317217743260
| 22>   I          -0.00000001584162      0.00000016996751     -2.59724617580586
| 23> *
| 24> 
| 25>                          ****END OF INPUT****
================================================================================

                       *****************************
                       * Geometry Optimization Run *
                       *****************************

Geometry optimization settings:
Update method            Update   .... Bofill
Choice of coordinates    CoordSys .... (2022) Redundant Internals
Initial Hessian          InHess   .... Almloef's Model
Max. no of cycles        MaxIter  .... 50

Convergence Tolerances:
Energy Change            TolE     ....  5.0000e-06 Eh
Max. Gradient            TolMAXG  ....  3.0000e-04 Eh/bohr
RMS Gradient             TolRMSG  ....  1.0000e-04 Eh/bohr
Max. Displacement        TolMAXD  ....  4.0000e-03 bohr
RMS Displacement         TolRMSD  ....  2.0000e-03 bohr
Strict Convergence                .... False

------------------------------------------------------------------------------
                        ORCA OPTIMIZATION COORDINATE SETUP
------------------------------------------------------------------------------

The optimization will be done in redundant internal coordinates (2022)
Making redundant internal coordinates   ...  (2022 redundants) done
Following TS mode number                ...     0
Evaluating the initial hessian          ...  (Is done on the fly) done
Evaluating the coordinates              ...  done
Calculating the B-matrix                .... done
Calculating the G-matrix                .... done
The number of degrees of freedom        ....   17

    -----------------------------------------------------------------
                    Redundant Internal Coordinates


    -----------------------------------------------------------------
         Definition                    Initial Value    d2E/dq (diagonal element)
    -----------------------------------------------------------------
      1. B(H   1,C   0)                  1.0667         0.000000   
      2. B(H   2,C   0)                  1.0667         0.000000   
      3. B(H   3,C   0)                  1.0667         0.000000   
      4. B(Br  4,C   0)                  2.4127         0.000000   
      5. B(I   5,H   3)                  2.8308         0.000000   
      6. B(I   5,H   2)                  2.8308         0.000000   
      7. B(I   5,C   0)                  2.6277         0.000000   
      8. B(I   5,H   1)                  2.8308         0.000000   
      9. A(H   1,C   0,H   3)          119.9973         0.000000   
     10. A(H   2,C   0,H   3)          119.9973         0.000000   
     11. A(H   1,C   0,Br  4)           90.3009         0.000000   
     12. A(H   2,C   0,Br  4)           90.3009         0.000000   
     13. A(H   3,C   0,Br  4)           90.3009         0.000000   
     14. A(H   1,C   0,I   5)           89.6991         0.000000   
     15. A(H   2,C   0,I   5)           89.6991         0.000000   
     16. A(H   3,C   0,I   5)           89.6991         0.000000   
     17. A(H   1,C   0,H   2)          119.9973         0.000000   
    -----------------------------------------------------------------

Number of atoms                         .... 6
Number of degrees of freedom            .... 17


         *************************************************************
         *                GEOMETRY OPTIMIZATION CYCLE   1            *
         *************************************************************
---------------------------------
CARTESIAN COORDINATES (ANGSTROEM)
---------------------------------
  C      0.000000    0.000000    0.030470
  H      0.000000    1.066649    0.024868
  H      0.923745   -0.533324    0.024868
  H     -0.923745   -0.533324    0.024868
  Br    -0.000000   -0.000000    2.443172
  I     -0.000000    0.000000   -2.597246

----------------------------
CARTESIAN COORDINATES (A.U.)
----------------------------
  NO LB      ZA    FRAG     MASS         X           Y           Z
   0 C     6.0000    0    12.011    0.000000    0.000000    0.057581
   1 H     1.0000    0     1.008    0.000000    2.015674    0.046994
   2 H     1.0000    0     1.008    1.745625   -1.007837    0.046993
   3 H     1.0000    0     1.008   -1.745625   -1.007837    0.046993
   4 Br   35.0000    0    79.900   -0.000000   -0.000000    4.616926
   5 I    25.0000*   0   126.900   -0.000000    0.000000   -4.908084
* core charge reduced due to ECP

--------------------------------
INTERNAL COORDINATES (ANGSTROEM)
--------------------------------
 C      0   0   0     0.000000000000     0.00000000     0.00000000
 H      1   0   0     1.066663671015     0.00000000     0.00000000
 H      1   2   0     1.066663669120   119.99726209     0.00000000
 H      1   2   3     1.066663669099   119.99726228   181.04247243
 Br     1   2   3     2.412701716320    90.30094789    90.52123644
 I      1   2   3     2.627716636918    89.69905522   270.52123578

---------------------------
INTERNAL COORDINATES (A.U.)
---------------------------
 C      0   0   0     0.000000000000     0.00000000     0.00000000
 H      1   0   0     2.015702215221     0.00000000     0.00000000
 H      1   2   0     2.015702211640   119.99726209     0.00000000
 H      1   2   3     2.015702211601   119.99726228   181.04247243
 Br     1   2   3     4.559345486687    90.30094789    90.52123644
 I      1   2   3     4.965664801324    89.69905522   270.52123578

---------------------
BASIS SET INFORMATION
---------------------
There are 4 groups of distinct atoms

 Group   1 Type C   : 11s6p1d contracted to 5s3p1d pattern {62111/411/1}
 Group   2 Type H   : 4s1p contracted to 2s1p pattern {31/1}
 Group   3 Type Br  : 17s13p7d contracted to 6s5p3d pattern {842111/64111/511}
 Group   4 Type I   : 11s10p8d contracted to 6s5p3d pattern {521111/34111/611}

Atom   0C    basis set group =>   1
Atom   1H    basis set group =>   2
Atom   2H    basis set group =>   2
Atom   3H    basis set group =>   2
Atom   4Br   basis set group =>   3
Atom   5I    basis set group =>   4
---------------------------------
AUXILIARY/J BASIS SET INFORMATION
---------------------------------
There are 4 groups of distinct atoms

 Group   1 Type C   : 8s3p3d contracted to 6s3p3d pattern {311111/111/111}
 Group   2 Type H   : 5s2p1d contracted to 3s1p1d pattern {311/2/1}
 Group   3 Type Br  : 19s5p5d3f1g contracted to 8s4p3d2f1g pattern {121111111/2111/311/21/1}
 Group   4 Type I   : 11s5p5d3f1g contracted to 8s4p3d2f1g pattern {41111111/2111/311/21/1}

Atom   0C    basis set group =>   1
Atom   1H    basis set group =>   2
Atom   2H    basis set group =>   2
Atom   3H    basis set group =>   2
Atom   4Br   basis set group =>   3
Atom   5I    basis set group =>   4
-------------------------
ECP PARAMETER INFORMATION
-------------------------

 Group 1, Type I  ECP Def2-ECP (replacing 28 core electrons, lmax=3)

Atom   5I    ECP group =>   1



           ************************************************************
           *        Program running with 8 parallel MPI-processes     *
           *              working on a common directory               *
           ************************************************************
------------------------------------------------------------------------------
                             ORCA STARTUP CALCULATIONS
                           -- RI-GTO INTEGRALS CHOSEN --
------------------------------------------------------------------------------
------------------------------------------------------------------------------
                   ___                                                        
                  /   \      - P O W E R E D   B Y -                         
                 /     \                                                     
                 |  |  |   _    _      __       _____    __    __             
                 |  |  |  | |  | |    /  \     |  _  \  |  |  /  |          
                  \  \/   | |  | |   /    \    | | | |  |  | /  /          
                 / \  \   | |__| |  /  /\  \   | |_| |  |  |/  /          
                |  |  |   |  __  | /  /__\  \  |    /   |      \           
                |  |  |   | |  | | |   __   |  |    \   |  |\   \          
                \     /   | |  | | |  |  |  |  | |\  \  |  | \   \       
                 \___/    |_|  |_| |__|  |__|  |_| \__\ |__|  \__/        
                                                                              
                      - O R C A' S   B I G   F R I E N D -                    
                                      &                                       
                       - I N T E G R A L  F E E D E R -                       
                                                                              
 v1 FN, 2020, v2 2021, v3 2022-2024                                           
------------------------------------------------------------------------------


----------------------
SHARK INTEGRAL PACKAGE
----------------------

Number of atoms                             ...      6
Number of basis functions                   ...    106
Number of shells                            ...     46
Maximum angular momentum                    ...      2
Integral batch strategy                     ... SHARK/LIBINT Hybrid
RI-J (if used) integral strategy            ... SPLIT-RIJ (Revised 2003 algorithm where possible)
Printlevel                                  ...      1
Contraction scheme used                     ... SEGMENTED contraction
Prescreening option                         ... SCHWARTZ
   Thresh                                   ... 2.500e-11
   Tcut                                     ... 2.500e-12
   Tpresel                                  ... 2.500e-12 
Coulomb Range Separation                    ... NOT USED
Exchange Range Separation                   ... NOT USED
Multipole approximations                    ... NOT USED
Finite Nucleus Model                        ... NOT USED
CABS basis                                  ... NOT available
Auxiliary Coulomb fitting basis             ... AVAILABLE
   # of basis functions in Aux-J            ...    179
   # of shells in Aux-J                     ...     63
   Maximum angular momentum in Aux-J        ...      4
Auxiliary J/K fitting basis                 ... NOT available
Auxiliary Correlation fitting basis         ... NOT available
Auxiliary 'external' fitting basis          ... NOT available

Checking pre-screening integrals            ... done (  0.0 sec) Dimension = 46
   => SHARK Basis and OBASIS are compatible. Storing Pre-screening
Shell pair information
Shell pair cut-off parameter TPreSel        ...   2.5e-12
Total number of shell pairs                 ...      1081
Shell pairs after pre-screening             ...       971
Total number of primitive shell pairs       ...      5082
Primitive shell pairs kept                  ...      3394
          la=0 lb=0:    239 shell pairs
          la=1 lb=0:    336 shell pairs
          la=1 lb=1:    128 shell pairs
          la=2 lb=0:    141 shell pairs
          la=2 lb=1:    102 shell pairs
          la=2 lb=2:     25 shell pairs

Checking whether 4 symmetric matrices of dimension 106 fit in memory
:Max Core in MB      =   4096.00
 MB in use           =      4.65
 MB left             =   4091.35
 MB needed           =      0.17
 Data fit in memory  = YES
Calculating RI/J V-Matrix + Cholesky decomp.... done (  0.0 sec)
Calculating Nuclear repulsion               ... done (  0.0 sec) ENN=    212.961824616992 Eh

Diagonalization of the overlap matrix:
Smallest eigenvalue                        ... 4.477e-03
Time for diagonalization                   ...    0.001 sec
Threshold for overlap eigenvalues          ... 1.000e-07
Number of eigenvalues below threshold      ... 0
Time for construction of square roots      ...    0.001 sec
Total time needed                          ...    0.004 sec

-------------------
DFT GRID GENERATION
-------------------

General Integration Accuracy     IntAcc      ... 4.388
Radial Grid Type                 RadialGrid  ... OptM3 with GC (2021)
Angular Grid (max. ang.)         AngularGrid ... 4 (Lebedev-302)
Angular grid pruning method      GridPruning ... 4 (adaptive)
Weight generation scheme         WeightScheme... mBecke (2022)
Basis function cutoff            BFCut       ... 1.0000e-11
Integration weight cutoff        WCut        ... 1.0000e-14
Partially contracted basis set               ... off
Rotationally invariant grid construction     ... off
Angular grids for H and He will be reduced by one unit
Core-polarized basis detected: some atoms will have their core
                               angular grid increased.

Total number of grid points                  ...    38811
Total number of batches                      ...      610
Average number of points per batch           ...       63
Average number of grid points per atom       ...     6468
Grids setup in   1.7 sec
Initializing property integral containers    ... done (  0.0 sec)

SHARK setup successfully completed in   2.3 seconds

Maximum memory used throughout the entire STARTUP-calculation: 14.1 MB


           ************************************************************
           *        Program running with 8 parallel MPI-processes     *
           *              working on a common directory               *
           ************************************************************
-------------------------------------------------------------------------------
                                 ORCA GUESS
                   Start orbitals & Density for SCF / CASSCF
-------------------------------------------------------------------------------

------------
SCF SETTINGS
------------
Hamiltonian:
 Density Functional     Method          .... DFT(GTOs)
  Functional kind                       .... Exchange
  Functional name                       .... Re-regularized SCAN exchange by Furness et al
  Functional family                     .... MGGA
  Functional refs                              
    [ 0] J. W. Furness, A. D. Kaplan, J. Ning, J. P. Perdew, and J. Sun.,  J. Phys. Chem. Lett. 11, 8208-8215 (2020), doi: 10.1021/acs.jpclett.0c02405
    [ 1] J. W. Furness, A. D. Kaplan, J. Ning, J. P. Perdew, and J. Sun.,  J. Phys. Chem. Lett. 11, 9248-9248 (2020), doi: 10.1021/acs.jpclett.0c03077
  Functional external parameters        .... 6
    Parameter  0 _c1        =  6.670000e-01 : c1 parameter        
    Parameter  1 _c2        =  8.000000e-01 : c2 parameter        
    Parameter  2 _d         =  1.240000e+00 : d parameter         
    Parameter  3 _k1        =  6.500000e-02 : k1 parameter        
    Parameter  4 _eta       =  1.000000e-03 : eta parameter       
    Parameter  5 _dp2       =  3.610000e-01 : dp2 parameter       
  Functional kind                       .... Correlation
  Functional name                       .... Re-regularized SCAN correlation by Furness et al
  Functional family                     .... MGGA
  Functional refs                              
    [ 0] J. W. Furness, A. D. Kaplan, J. Ning, J. P. Perdew, and J. Sun.,  J. Phys. Chem. Lett. 11, 8208-8215 (2020), doi: 10.1021/acs.jpclett.0c02405
    [ 1] J. W. Furness, A. D. Kaplan, J. Ning, J. P. Perdew, and J. Sun.,  J. Phys. Chem. Lett. 11, 9248-9248 (2020), doi: 10.1021/acs.jpclett.0c03077
  Functional external parameters        .... 1
    Parameter  0 _eta       =  1.000000e-03 : Regularization parameter
 Gradients option       PostSCFGGA      .... off
 RI-approximation to the Coulomb term is turned on
   Number of AuxJ basis functions       .... 179


General Settings:
 Integral files         IntName         .... ts_optfreq
 Hartree-Fock type      HFTyp           .... RHF
 Total Charge           Charge          ....   -1
 Multiplicity           Mult            ....    1
 Number of Electrons    NEL             ....   70
 Basis Dimension        Dim             ....  106
 Nuclear Repulsion      ENuc            ....    212.9618246170 Eh

Convergence Acceleration:
 AO-DIIS                CNVDIIS         .... on
   Start iteration      DIISMaxIt       ....    12
   Startup error        DIISStart       ....  0.200000
   # of expansion vecs  DIISMaxEq       ....     5
   Bias factor          DIISBfac        ....   1.050
   Max. coefficient     DIISMaxC        ....  10.000
 MO-DIIS                CNVKDIIS        .... off
 Trust-Rad. Augm. Hess. CNVTRAH         .... auto
   Auto Start mean grad. ratio tolernc. ....  1.125000
   Auto Start start iteration           ....    50
   Auto Start num. interpolation iter.  ....    10
   Max. Number of Micro iterations      ....    24
   Max. Number of Macro iterations      .... Maxiter - #DIIS iter
   Number of Davidson start vectors     ....     2
   Converg. threshold    (grad. norm)   ....   1.000e-05
   Grad. Scal. Fac. for Micro threshold ....   0.100
   Minimum threshold for Micro iter.    ....   1.000e-02
   NR start threshold (gradient norm)   ....   1.000e-04
   Initial trust radius                 ....   0.400
   Minimum AH scaling param. (alpha)    ....   1.000
   Maximum AH scaling param. (alpha)    .... 1000.000
   Quad. conv. algorithm                .... NR
   White noise on init. David. guess    .... on
   Maximum white noise                  ....   0.010
   Pseudo random numbers                .... off
   Inactive MOs                         .... canonical
   Orbital update algorithm             .... Taylor
   Preconditioner                       .... Diag
   Full preconditioner red. dimension   ....   250
   COSX micro iterations for RIJONX calc.... off
 SOSCF                 CNVSOSCF           .... on
   Start iteration     SOSCFMaxIt         ....   150
   Startup grad/error  SOSCFStart         ....  0.003300
   Hessian update      SOSCFHessUp        .... L-BFGS
   Autom. constraints  SOSCFAutoConstrain .... off
 Level Shifting         CNVShift        .... on
   Level shift para.    LevelShift      ....    0.2500
   Turn off err/grad.   ShiftErr        ....    0.0010
 Zerner damping         CNVZerner       .... off
 Static damping         CNVDamp         .... on
   Fraction old density DampFac         ....    0.7000
   Max. Damping (<1)    DampMax         ....    0.9800
   Min. Damping (>=0)   DampMin         ....    0.0000
   Turn off err/grad.   DampErr         ....    0.1000

SCF Procedure:
 Maximum # iterations   MaxIter         ....   150
 SCF integral mode      SCFMode         .... Direct
   Integral package                     .... SHARK and LIBINT hybrid scheme
 Reset frequency        DirectResetFreq ....    20
 Integral Threshold     Thresh          ....  2.500e-11 Eh
 Primitive CutOff       TCut            ....  2.500e-12 Eh

Convergence Tolerance:
 Convergence Check Mode ConvCheckMode   .... Total+1el-Energy
 Convergence forced     ConvForced      .... 0
 Energy Change          TolE            ....  1.000e-08 Eh
 1-El. energy change                    ....  1.000e-05 Eh
 Orbital Gradient       TolG            ....  1.000e-05
 Orbital Rotation angle TolX            ....  1.000e-05
 DIIS Error             TolErr          ....  5.000e-07

------------------------------
INITIAL GUESS: MODEL POTENTIAL
------------------------------
Loading Hartree-Fock densities                     ... done
Atomic calculation to generate a density for atom 5 (I  with ECP)
  Multiplicity assumed   :    2
  Atomic configuration   : 1s2 2s2 2p6 3s2 3p6 4s2 3d10 4p6 5s2 4d10 5p5 
  Number of open shells  : 1
  Command: /software/orca-6.1.0-el8-x86_64/bin/orca ts_optfreq_atom53.inp "" > ts_optfreq_atom53.out
Returned from the atomic calculation with res=0
Calculating cut-offs                               ... done
Initializing the effective Hamiltonian             ... done
Setting up the integral package (SHARK)            ... done
Starting the Coulomb interaction                   ... done (   0.0 sec)
Making the grid                                    ... done (   0.4 sec)
Mapping shells                                     ... done
Starting the XC term evaluation                    ... done (   0.0 sec)
  promolecular density results
     # of electrons  =     96.998979427
     EX              =   -268.335851535
     EC              =     -4.845883890
     EX+EC           =   -273.181735425
Transforming the Hamiltonian                       ... done (   0.1 sec)
Diagonalizing the Hamiltonian                      ... done (   0.0 sec)
Back transforming the eigenvectors                 ... done (   0.0 sec)
Now organizing SCF variables                       ... done
                      ------------------
                      INITIAL GUESS DONE (   7.2 sec)
                      ------------------
             **** ENERGY FILE WAS UPDATED (ts_optfreq.en.tmp) ****
Finished Guess after   7.7 sec
Maximum memory used throughout the entire GUESS-calculation: 7.7 MB


           ************************************************************
           *        Program running with 8 parallel MPI-processes     *
           *              working on a common directory               *
           ************************************************************

-------------------------------------------------------------------------------------------
                                      ORCA LEAN-SCF
                              memory conserving SCF solver
-------------------------------------------------------------------------------------------

----------------------------------------D-I-I-S--------------------------------------------
Iteration    Energy (Eh)           Delta-E    RMSDP     MaxDP     DIISErr   Damp  Time(sec)
-------------------------------------------------------------------------------------------
               ***  Starting incremental Fock matrix formation  ***
    1    -2911.7459466123495986     0.00e+00  1.11e-02  1.15e-01  6.02e-01  0.700   0.5
    2    -2911.7953211947228738    -4.94e-02  8.39e-03  8.47e-02  4.06e-01  0.700   0.5
    3    -2911.8192861855504816    -2.40e-02  5.03e-03  4.44e-02  2.74e-01  0.700   0.6
                               ***Turning on AO-DIIS***
    4    -2911.8332641880269875    -1.40e-02  2.48e-03  1.85e-02  1.87e-01  0.700   0.5
    5    -2911.8426390641611761    -9.37e-03  1.37e-03  1.19e-02  1.33e-01  0.700   0.5
    6    -2911.8493258254407010    -6.69e-03  9.12e-04  7.07e-03  9.44e-02  0.700   0.5
    7    -2911.8541585968036998    -4.83e-03  2.58e-03  1.86e-02  6.64e-02  0.000   0.5
    8    -2911.8652769358309342    -1.11e-02  4.77e-04  3.32e-03  5.73e-03  0.000   0.6
                              *** Initializing SOSCF ***
---------------------------------------S-O-S-C-F--------------------------------------
Iteration    Energy (Eh)           Delta-E    RMSDP     MaxDP     MaxGrad    Time(sec)
--------------------------------------------------------------------------------------
    9    -2911.8653542131519316    -7.73e-05  1.65e-04  1.51e-03  1.55e-03     0.7
               *** Restarting incremental Fock matrix formation ***
   10    -2911.8653601836649614    -5.97e-06  1.25e-04  9.28e-04  2.38e-04     0.5
   11    -2911.8653590967824130     1.09e-06  6.74e-05  3.43e-04  5.19e-04     0.4
   12    -2911.8653608079539481    -1.71e-06  4.31e-05  3.99e-04  8.32e-05     0.4
   13    -2911.8653607869837288     2.10e-08  2.55e-05  2.52e-04  9.38e-05     0.2
   14    -2911.8653608720587727    -8.51e-08  5.09e-06  4.13e-05  8.48e-06     0.4
   15    -2911.8653608716099370     4.49e-10  3.22e-06  2.26e-05  1.59e-05     0.2
                 **** Energy Check signals convergence ****

               *****************************************************
               *                     SUCCESS                       *
               *           SCF CONVERGED AFTER  15 CYCLES          *
               *****************************************************

             **** ENERGY FILE WAS UPDATED (ts_optfreq.en.tmp) ****

----------------
TOTAL SCF ENERGY
----------------

Total Energy       :      -2911.86536087247896 Eh          -79235.88474 eV

Components:
Nuclear Repulsion  :        212.96182461699209 Eh            5794.98586 eV
Electronic Energy  :      -3124.82718548947105 Eh          -85030.87060 eV
One Electron Energy:      -4591.80402716084518 Eh         -124949.33988 eV
Two Electron Energy:       1466.97684167137413 Eh           39918.46928 eV

Virial components:
Potential Energy   :      -5634.45335739101665 Eh         -153321.27056 eV
Kinetic Energy     :       2722.58799651853769 Eh           74085.38581 eV
Virial Ratio       :          2.06952111909550

DFT components:
N(Alpha)           :       35.000001309591 electrons
N(Beta)            :       35.000001309591 electrons
N(Total)           :       70.000002619182 electrons
E(X)               :     -117.276574854194 Eh       
E(C)               :       -3.073618982413 Eh       
E(XC)              :     -120.350193836608 Eh       

---------------
SCF CONVERGENCE
---------------

  Last Energy change         ...   -4.4884e-10  Tolerance :   1.0000e-08
  Last MAX-Density change    ...    2.2640e-05  Tolerance :   1.0000e-07
  Last RMS-Density change    ...    3.2192e-06  Tolerance :   5.0000e-09
  Last DIIS Error            ...    1.5472e-03  Tolerance :   5.0000e-07
  Last Orbital Gradient      ...    1.5867e-05  Tolerance :   1.0000e-05
  Last Orbital Rotation      ...    3.6242e-05  Tolerance :   1.0000e-05


----------------
ORBITAL ENERGIES
----------------

  NO   OCC          E(Eh)            E(eV) 
   0   2.0000    -482.015444    -13116.3070 
   1   2.0000     -62.087778     -1689.4943 
   2   2.0000     -55.867698     -1520.2374 
   3   2.0000     -55.865838     -1520.1867 
   4   2.0000     -55.865838     -1520.1867 
   5   2.0000      -9.939129      -270.4574 
   6   2.0000      -8.419183      -229.0976 
   7   2.0000      -6.614363      -179.9860 
   8   2.0000      -6.221992      -169.3090 
   9   2.0000      -6.215359      -169.1285 
  10   2.0000      -6.215359      -169.1285 
  11   2.0000      -4.625924      -125.8778 
  12   2.0000      -4.620096      -125.7192 
  13   2.0000      -4.620096      -125.7192 
  14   2.0000      -2.320661       -63.1484 
  15   2.0000      -2.319090       -63.1056 
  16   2.0000      -2.319090       -63.1056 
  17   2.0000      -2.314126       -62.9706 
  18   2.0000      -2.314122       -62.9705 
  19   2.0000      -1.662498       -45.2389 
  20   2.0000      -1.661027       -45.1988 
  21   2.0000      -1.661027       -45.1988 
  22   2.0000      -1.656124       -45.0654 
  23   2.0000      -1.656122       -45.0654 
  24   2.0000      -0.554367       -15.0851 
  25   2.0000      -0.495887       -13.4938 
  26   2.0000      -0.442042       -12.0286 
  27   2.0000      -0.271858        -7.3976 
  28   2.0000      -0.271857        -7.3976 
  29   2.0000      -0.150182        -4.0867 
  30   2.0000      -0.080075        -2.1789 
  31   2.0000      -0.080075        -2.1789 
  32   2.0000      -0.065075        -1.7708 
  33   2.0000      -0.065075        -1.7708 
  34   2.0000      -0.061567        -1.6753 
  35   0.0000       0.081935         2.2296 
  36   0.0000       0.239037         6.5045 
  37   0.0000       0.300572         8.1790 
  38   0.0000       0.303373         8.2552 
  39   0.0000       0.303382         8.2554 
  40   0.0000       0.323542         8.8040 
  41   0.0000       0.323543         8.8040 
  42   0.0000       0.347346         9.4518 
  43   0.0000       0.347350         9.4519 
  44   0.0000       0.354581         9.6486 
  45   0.0000       0.396911        10.8005 
*Only the first 10 virtual orbitals were printed.

                    ********************************
                    * MULLIKEN POPULATION ANALYSIS *
                    ********************************

-----------------------
MULLIKEN ATOMIC CHARGES
-----------------------
   0 C :   -0.287581
   1 H :    0.191149
   2 H :    0.191144
   3 H :    0.191144
   4 Br:   -0.609283
   5 I :   -0.676574
Sum of atomic charges:   -1.0000000

--------------------------------
MULLIKEN REDUCED ORBITAL CHARGES
--------------------------------
  0 C s       :     3.329221  s :     3.329221
      pz      :     0.748348  p :     2.938750
      px      :     1.095207
      py      :     1.095195
      dz2     :     0.008463  d :     0.019611
      dxz     :     0.000857
      dyz     :     0.000857
      dx2y2   :     0.004716
      dxy     :     0.004716

  1 H s       :     0.788513  s :     0.788513
      pz      :     0.004379  p :     0.020337
      px      :     0.003358
      py      :     0.012600

  2 H s       :     0.788519  s :     0.788519
      pz      :     0.004379  p :     0.020337
      px      :     0.010289
      py      :     0.005669

  3 H s       :     0.788519  s :     0.788519
      pz      :     0.004379  p :     0.020337
      px      :     0.010289
      py      :     0.005669

  4 Brs       :     7.968488  s :     7.968488
      pz      :     5.636976  p :    17.628258
      px      :     5.995641
      py      :     5.995641
      dz2     :     2.008006  d :    10.012537
      dxz     :     2.002242
      dyz     :     2.002242
      dx2y2   :     2.000023
      dxy     :     2.000023

  5 I s       :     3.986208  s :     3.986208
      pz      :     3.667925  p :    11.669408
      px      :     4.000741
      py      :     4.000742
      dz2     :     2.011784  d :    10.020957
      dxz     :     2.004517
      dyz     :     2.004517
      dx2y2   :     2.000070
      dxy     :     2.000070



                     *******************************
                     * LOEWDIN POPULATION ANALYSIS *
                     *******************************

----------------------
LOEWDIN ATOMIC CHARGES
----------------------
   0 C :   -0.487594
   1 H :    0.161791
   2 H :    0.161793
   3 H :    0.161793
   4 Br:   -0.464993
   5 I :   -0.532789

-------------------------------
LOEWDIN REDUCED ORBITAL CHARGES
-------------------------------
  0 C s       :     3.135952  s :     3.135952
      pz      :     0.926930  p :     3.307457
      px      :     1.190265
      py      :     1.190261
      dz2     :     0.015143  d :     0.044185
      dxz     :     0.001189
      dyz     :     0.001189
      dx2y2   :     0.013332
      dxy     :     0.013332

  1 H s       :     0.788314  s :     0.788314
      pz      :     0.008956  p :     0.049896
      px      :     0.007567
      py      :     0.033373

  2 H s       :     0.788312  s :     0.788312
      pz      :     0.008956  p :     0.049896
      px      :     0.026921
      py      :     0.014019

  3 H s       :     0.788312  s :     0.788312
      pz      :     0.008956  p :     0.049896
      px      :     0.026921
      py      :     0.014019

  4 Brs       :     7.873124  s :     7.873124
      pz      :     5.603864  p :    17.575036
      px      :     5.985586
      py      :     5.985586
      dz2     :     2.011856  d :    10.016833
      dxz     :     2.002454
      dyz     :     2.002454
      dx2y2   :     2.000035
      dxy     :     2.000035

  5 I s       :     3.897585  s :     3.897585
      pz      :     3.609438  p :    11.586226
      px      :     3.988394
      py      :     3.988394
      dz2     :     2.031785  d :    10.048977
      dxz     :     2.008463
      dyz     :     2.008462
      dx2y2   :     2.000134
      dxy     :     2.000134



                      *****************************
                      * MAYER POPULATION ANALYSIS *
                      *****************************

  NA   - Mulliken gross atomic population
  ZA   - Total nuclear charge
  QA   - Mulliken gross atomic charge
  VA   - Mayer's total valence
  BVA  - Mayer's bonded valence
  FA   - Mayer's free valence

  ATOM       NA         ZA         QA         VA         BVA        FA
  0 C      6.2876     6.0000    -0.2876     3.7244     3.7244    -0.0000
  1 H      0.8089     1.0000     0.1911     0.9441     0.9441    -0.0000
  2 H      0.8089     1.0000     0.1911     0.9441     0.9441    -0.0000
  3 H      0.8089     1.0000     0.1911     0.9441     0.9441    -0.0000
  4 Br    35.6093    35.0000    -0.6093     0.6120     0.6120    -0.0000
  5 I     25.6766    25.0000    -0.6766     0.5524     0.5524     0.0000

  Mayer bond orders larger than 0.100000
B(  0-C ,  1-H ) :   0.9510 B(  0-C ,  2-H ) :   0.9510 B(  0-C ,  3-H ) :   0.9510 
B(  0-C ,  4-Br) :   0.4691 B(  0-C ,  5-I ) :   0.4025 B(  4-Br,  5-I ) :   0.1621 


-------
TIMINGS
-------

Total SCF time: 0 days 0 hours 0 min 7 sec 

Total time                  ....       7.762 sec
Sum of individual times     ....       7.515 sec  ( 96.8%)

SCF preparation             ....       0.465 sec  (  6.0%)
Fock matrix formation       ....       5.392 sec  ( 69.5%)
  Startup                   ....       0.017 sec  (  0.3% of F)
  Split-RI-J                ....       1.143 sec  ( 21.2% of F)
  XC integration            ....       4.087 sec  ( 75.8% of F)
    XC Preparation          ....       0.000 sec  (  0.0% of XC)
    Basis function eval.    ....       0.299 sec  (  7.3% of XC)
    Density eval.           ....       0.918 sec  ( 22.5% of XC)
    XC-Functional eval.     ....       0.734 sec  ( 18.0% of XC)
    XC-Potential eval.      ....       0.596 sec  ( 14.6% of XC)
Diagonalization             ....       0.000 sec  (  0.0%)
Density matrix formation    ....       0.461 sec  (  5.9%)
Total Energy calculation    ....       0.122 sec  (  1.6%)
Population analysis         ....       0.071 sec  (  0.9%)
Orbital Transformation      ....       0.012 sec  (  0.1%)
Orbital Orthonormalization  ....       0.000 sec  (  0.0%)
DIIS solution               ....       0.693 sec  (  8.9%)
SOSCF solution              ....       0.299 sec  (  3.9%)
Finished LeanSCF after   7.8 sec

Maximum memory used throughout the entire LEANSCF-calculation: 7.0 MB


           ************************************************************
           *        Program running with 8 parallel MPI-processes     *
           *              working on a common directory               *
           ************************************************************

------------------------------------------------------------------------------
                         ORCA PROPERTY INTEGRAL CALCULATIONS
------------------------------------------------------------------------------

GBWName                                   ... ts_optfreq.gbw
Number of atoms                           ...      6
Number of basis functions                 ...    106
Max core memory                           ...   4096 MB

Dipole integrals                          ... YES
Quadrupole integrals                      ...  NO
Linear momentum integrals                 ...  NO
Angular momentum integrals                ...  NO
Higher moments length integrals           ...  NO
Higher moments velocity integrals         ...  NO
Kinetic energy integrals                  ...  NO
GIAO right hand sides                     ...  NO
GIAO dipole derivative integrals          ...  NO
SOC integrals                             ...  NO
EPR diamagnetic integrals (GIAO)          ...  NO
EPR gauge integrals                       ...  NO
Field gradient integrals                  ...  NO (   0 nuclei)
Spin-dipole/Fermi contact integrals       ...  NO (   0 nuclei)
Contact density integrals                 ...  NO (   0 nuclei)
Nucleus-orbit integrals                   ...  NO (   0 nuclei)
Geometric perturbations                   ...  NO (   6 nuclei)

Choice of electric origin   ... Center of mass
Position of electric origin ... ( -0.0000,  0.0000, -1.1410) 
Choice of magnetic origin   ... GIAO
Position of magnetic origin ... (  0.0000,  0.0000,  0.0000) 

Calculating integrals                     ... Electric Dipole (Length)     done (  0.0 sec)

Property integrals calculated in   0.0 sec

Maximum memory used throughout the entire PROPINT-calculation: 7.4 MB


-------------------------------------------------------------------------------
                          DFT DISPERSION CORRECTION                            
                                                                               
                                DFTD4 V3.4.0                                   
-------------------------------------------------------------------------------
The R2SCAN3C composite method is recognized
Using three-body term ABC
Active option DFTDOPT                   ...         5   

-------------------------   ----------------
Dispersion correction           -0.001292788
-------------------------   ----------------

------------------   -----------------
gCP correction             0.002700511
------------------   -----------------

-------------------------   --------------------
FINAL SINGLE POINT ENERGY     -2911.863953149782
-------------------------   --------------------



           ************************************************************
           *        Program running with 8 parallel MPI-processes     *
           *              working on a common directory               *
           ************************************************************
------------------------------------------------------------------------------
                         ORCA SCF GRADIENT CALCULATION
------------------------------------------------------------------------------

Nuc. rep. gradient        (SHARK) ... done (  0.0 sec)
HCore & Overlap gradient  (SHARK) ... done (  0.0 sec)
ECP gradient              (SHARK) ... done (  0.1 sec)
Split-RIJ-J gradient      (SHARK) ... done (  2.4 sec)
XC gradient                       ... done (  0.7 sec)
Dispersion correction             ... done (  0.1 sec)

-------------------
DISPERSION GRADIENT
-------------------

   1   C   :    0.000000000    0.000000000   -0.000001731
   2   H   :    0.000000000    0.000002838    0.000002741
   3   H   :    0.000002458   -0.000001419    0.000002741
   4   H   :   -0.000002458   -0.000001419    0.000002741
   5   Br  :   -0.000000000   -0.000000000    0.000099884
   6   I   :   -0.000000000    0.000000000   -0.000106378

Difference to translation invariance:
           :   -0.0000000000   -0.0000000000    0.0000000000

Difference to rotation invariance:
           :   -0.0000000000   -0.0000000000   -0.0000000000

Norm of the Dispersion gradient    ...    0.0001460917
RMS gradient                       ...    0.0000344341
MAX gradient                       ...    0.0001063777
gCP correction                   ... done

------------------
CARTESIAN GRADIENT
------------------

   1   C   :    0.000000000    0.000001471   -0.006260199
   2   H   :    0.000000000   -0.005747941    0.001328881
   3   H   :   -0.004978868    0.002871530    0.001331732
   4   H   :    0.004978868    0.002871530    0.001331732
   5   Br  :   -0.000000000    0.000000745   -0.007836525
   6   I   :   -0.000000000    0.000002665    0.010104378

Difference to translation invariance:
           :    0.0000000000    0.0000000000   -0.0000000009

Difference to rotation invariance:
           :    0.0000040438   -0.0000000006   -0.0000000009

Norm of the Cartesian gradient     ...    0.0175248705
RMS gradient                       ...    0.0041306516
MAX gradient                       ...    0.0101043784

-------
TIMINGS
-------

Total SCF gradient time     ....        3.381 sec

Densities                   ....       0.000 sec  (  0.0%)
One electron gradient       ....       0.008 sec  (  0.2%)
RI-J Coulomb gradient       ....       2.381 sec  ( 70.4%)
XC gradient                 ....       0.684 sec  ( 20.2%)

Maximum memory used throughout the entire SCFGRAD-calculation: 27.3 MB


           ************************************************************
           *        Program running with 8 parallel MPI-processes     *
           *              working on a common directory               *
           ************************************************************

------------------------------------------------------------------------------
                         ORCA PROPERTY INTEGRAL CALCULATIONS
------------------------------------------------------------------------------

GBWName                                   ... ts_optfreq.gbw
Number of atoms                           ...      6
Number of basis functions                 ...    106
Max core memory                           ...   4096 MB

Dipole integrals                          ...  NO
Quadrupole integrals                      ...  NO
Linear momentum integrals                 ...  NO
Angular momentum integrals                ...  NO
Higher moments length integrals           ...  NO
Higher moments velocity integrals         ...  NO
Kinetic energy integrals                  ...  NO
GIAO right hand sides                     ...  NO
GIAO dipole derivative integrals          ...  NO
SOC integrals                             ...  NO
EPR diamagnetic integrals (GIAO)          ...  NO
EPR gauge integrals                       ...  NO
Field gradient integrals                  ...  NO (   0 nuclei)
Spin-dipole/Fermi contact integrals       ...  NO (   0 nuclei)
Contact density integrals                 ...  NO (   0 nuclei)
Nucleus-orbit integrals                   ...  NO (   0 nuclei)
Geometric perturbations                   ... YES (   6 nuclei)

Choice of electric origin   ... Center of mass
Position of electric origin ... ( -0.0000,  0.0000, -1.1410) 
Choice of magnetic origin   ... GIAO
Position of magnetic origin ... (  0.0000,  0.0000,  0.0000) 

Calculating integrals                     ... Geometrical perturbation right hand sides

-----------------------
GEOMETRIC PERTURBATIONS (6 nuclei)
-----------------------

MaxCore                            ...   4096 MB
Number of batches                  ...      1

BATCH   0: Atoms    0 -    5 ( 18 perturbations)
   => H(core) and overlap derivative integrals     ... done (     0.1 sec)
   => Making and storing internal U-coefficients   ... done (     0.0 sec)
   => RI-J derivative integrals                    ... done (     1.9 sec)
   => RI-J response operators                      ... done (     0.1 sec)
   => ECP derivative integrals                     ... done (     2.8 sec)
   => XC derivative integrals                      ... done (     6.2 sec)
   => XC response operators                        ... done (     1.4 sec)
   => Completing and storing right hand sides      ... done (     0.0 sec)
   => Total time for right hand sides =  12.9 sec

  geometrical perturbations done ( 12.9 sec)

Property integrals calculated in  12.9 sec

Maximum memory used throughout the entire PROPINT-calculation: 18.7 MB


           ************************************************************
           *        Program running with 8 parallel MPI-processes     *
           *              working on a common directory               *
           ************************************************************
------------------------------------------------------------------------------
                            ORCA SCF RESPONSE CALCULATION
------------------------------------------------------------------------------

GBWName                                 ... ts_optfreq.gbw
Number of atoms                         ...      6
Number of basis functions               ...    106
Max core memory                         ...   4096 MB

Electric field perturbation             ...  NO
Quadrupolar field perturbation          ...  NO
Magnetic field perturbation (no GIAO)   ...  NO
Magnetic field perturbation (with GIAO) ...  NO
Linear momentum (velocity) perturbation ...  NO
Spin-orbit coupling perturbation        ...  NO
Choice of electric origin               ... Center of mass
Position of electric origin             ...    -0.000000     0.000000    -1.140982
Choice of magnetic origin               ... GIAO
Position of magnetic origin             ...     0.000000     0.000000     0.000000
Nuclear geometric perturbations         ... YES (  18 perturbations)
Nucleus-orbit perturbations             ...  NO (   0 perturbations)
Spin-dipole/Fermi contact perturbations ...  NO (   0 perturbations)

Total number of real perturbations      ...     18
Total number of imaginary perturbations ...      0
Total number of triplet perturbations   ...      0
Total number of SOC perturbations       ...      0

Using XC Grid                  ... (ts_optfreq.grid_cpscf.tmp) 
Recalculating density on grid  ... (ts_optfreq.grho_cpscf0.tmp) done
Calculating the xc-kernel      ... (ts_optfreq.fxc_cpscf0.tmp) done

                                **********************
                                * REAL PERTURBATIONS *
                                **********************



-------------------
SHARK CP-SCF DRIVER
-------------------

Dimension of the orbital basis          ...    106
Dimension of the CPSCF-problem          ...   2485
Number of operators                     ...      1
Max. number of iterations               ...    128
Convergence Tolerance                   ... 1.0e-04
Number of perturbations                 ...     18
Perturbation type                       ... REAL

----------------------------
POPLE LINEAR EQUATION SOLVER
----------------------------

  ITERATION   0:   ||err||_max =   7.4911e-01 (   1.1 sec   0/ 18 done)
  ITERATION   1:   ||err||_max =   2.7860e-02 (   1.0 sec   0/ 18 done)
  ITERATION   2:   ||err||_max =   6.3165e-03 (   0.8 sec   0/ 18 done)
  ITERATION   3:   ||err||_max =   2.6239e-03 (   0.9 sec   3/ 18 done)
  ITERATION   4:   ||err||_max =   8.2191e-04 (   1.3 sec   6/ 18 done)
  ITERATION   5:   ||err||_max =   1.7491e-04 (   0.9 sec  17/ 18 done)
  ITERATION   6:   ||err||_max =   3.2330e-05 (   0.2 sec  18/ 18 done)

CP-SCF equations solved in   6.3 sec
Response densities calculated in   0.1 sec

Maximum memory used throughout the entire SCFRESP-calculation: 11.6 MB


           ************************************************************
           *        Program running with 8 parallel MPI-processes     *
           *              working on a common directory               *
           ************************************************************

------------------------------------------------------------------------------
                              ORCA PROPERTY CALCULATIONS
------------------------------------------------------------------------------

GBWName                                 ... ts_optfreq.gbw
Number of atoms                         ...      6
Number of basis functions               ...    106
Max core memory                         ...   4096 MB

Electric properties:
Dipole moment                           ...  NO
Quadrupole moment                       ...  NO
Static polarizability (Dipole/Dipole)   ...  NO
Static polarizability (Dipole/Quad.)    ...  NO
Static polarizability (Quad./Quad.)     ...  NO
Static polarizability (Velocity)        ...  NO
Static hyperpolarizability              ...  NO

Atomic electric properties:
Dipole moment                           ...  NO
Quadrupole moment                       ...  NO
Static polarizability                   ...  NO

Choice of electric origin               ... Center of mass
Position of electric origin             ...    -0.000000     0.000000    -1.140982

General magnetic properties:
Magnetizability                         ...  NO

EPR properties:
g-Tensor (aka g-matrix)                 ...  NO
Zero-Field splitting spin-orbit         ...  NO
Zero-field splitting spin-spin          ...  NO
Hyperfine couplings                     ...  NO (   0 nuclei)
Quadrupole couplings                    ...  NO (   0 nuclei)
Contact density                         ...  NO (   0 nuclei)

NMR properties:
Chemical shifts                         ...  NO (   0 nuclei)
Spin-rotation constants                 ...  NO (   0 nuclei)
Spin-spin couplings                     ...  NO (   0 nuclei,    0 pairs)

Choice of magnetic origin               ... GIAO
Position of magnetic origin             ...     0.000000     0.000000     0.000000

Properties with geometric perturbations:
SCF Hessian                             ... YES
IR spectrum                             ... YES
VCD spectrum                            ...  NO
X-ray spectroscopy properties:
SCF XES/XAS/RIXS spectra                ...  NO

SCF SOC stabilization energy            ...  NO
Diagonal Born-Oppenheimer correction    ...  NO

-----------
SCF HESSIAN
-----------

Occupied/Occupied contributions to the Hessian:
   => Occupied/Occupied contributions              ... done (  0.0 sec)
Perturbed density contributions to the Hessian:
   => Perturbed density contributions              ... done (  0.1 sec)
Explicit contributions to the Hessian:
   => Nuclear repulsion Hessian                    ... done (  0.0 sec)
   => HCore and overlap Hessian                    ... done (  0.6 sec)
   => ECP Hessian                                  ... done (  2.7 sec)
   => RI-J Hessian                                 ... done (  3.1 sec)
   => XC-Hessian                                   ... done (  4.1 sec)
   => Van der Waals-Hessian                        ... done (  0.6 sec)
   => GCP-Hessian                                  ... done (  0.1 sec)
   => Explicit contributions done
Dipole derivatives                                 ... done (  0.0 sec)
Mass weighting the Hessian           ... done
Calculating normal modes             ... done
Scaling frequencies                  ... done

-----------------------
VIBRATIONAL FREQUENCIES
-----------------------

Scaling factor for frequencies =  1.000000000  (already applied!)

     0:       0.00 cm**-1
     1:       0.00 cm**-1
     2:       0.00 cm**-1
     3:       0.00 cm**-1
     4:       0.00 cm**-1
     5:       0.00 cm**-1
     6:    -300.77 cm**-1  ***imaginary mode***
     7:     133.86 cm**-1
     8:     145.62 cm**-1
     9:     145.73 cm**-1
    10:     887.84 cm**-1
    11:     888.42 cm**-1
    12:     935.64 cm**-1
    13:    1380.42 cm**-1
    14:    1380.49 cm**-1
    15:    3249.06 cm**-1
    16:    3460.27 cm**-1
    17:    3460.99 cm**-1


------------
NORMAL MODES
------------

These modes are the Cartesian displacements weighted by the diagonal matrix
M(i,i)=1/sqrt(m[i]) where m[i] is the mass of the displaced atom
Thus, these vectors are normalized but *not* orthogonal

                  0          1          2          3          4          5    
      0       0.000000   0.000000   0.000000   0.000000   0.000000   0.000000
      1       0.000000   0.000000   0.000000   0.000000   0.000000   0.000000
      2       0.000000   0.000000   0.000000   0.000000   0.000000   0.000000
      3       0.000000   0.000000   0.000000   0.000000   0.000000   0.000000
      4       0.000000   0.000000   0.000000   0.000000   0.000000   0.000000
      5       0.000000   0.000000   0.000000   0.000000   0.000000   0.000000
      6       0.000000   0.000000   0.000000   0.000000   0.000000   0.000000
      7       0.000000   0.000000   0.000000   0.000000   0.000000   0.000000
      8       0.000000   0.000000   0.000000   0.000000   0.000000   0.000000
      9       0.000000   0.000000   0.000000   0.000000   0.000000   0.000000
     10       0.000000   0.000000   0.000000   0.000000   0.000000   0.000000
     11       0.000000   0.000000   0.000000   0.000000   0.000000   0.000000
     12       0.000000   0.000000   0.000000   0.000000   0.000000   0.000000
     13       0.000000   0.000000   0.000000   0.000000   0.000000   0.000000
     14       0.000000   0.000000   0.000000   0.000000   0.000000   0.000000
     15       0.000000   0.000000   0.000000   0.000000   0.000000   0.000000
     16       0.000000   0.000000   0.000000   0.000000   0.000000   0.000000
     17       0.000000   0.000000   0.000000   0.000000   0.000000   0.000000
                  6          7          8          9         10         11    
      0       0.000000  -0.000001  -0.493150  -0.000002  -0.000000  -0.005965
      1       0.000117  -0.002501   0.000002  -0.493152   0.005975  -0.000000
      2      -0.995816   0.154613  -0.000000  -0.000112   0.000052   0.000000
      3       0.000000  -0.000001  -0.500247  -0.000002   0.000000   0.002090
      4       0.004710   0.004823   0.000002  -0.500985   0.001428  -0.000000
      5       0.008759   0.193607   0.000000  -0.034896  -0.813307   0.000012
      6       0.004001   0.006333  -0.500809   0.000322  -0.001455  -0.000520
      7      -0.002135  -0.006193   0.000327  -0.500432  -0.001154   0.001507
      8       0.010160   0.193991  -0.030035   0.017317   0.411392   0.707079
      9      -0.004001  -0.006334  -0.500809  -0.000327   0.001455  -0.000520
     10      -0.002135  -0.006193  -0.000322  -0.500432  -0.001154  -0.001507
     11       0.010160   0.193991   0.030034   0.017317   0.411371  -0.707091
     12      -0.000000   0.000000   0.048365   0.000000   0.000000   0.003730
     13      -0.000016   0.000244  -0.000000   0.048365  -0.003732   0.000000
     14       0.077007   0.777402  -0.000000  -0.000185  -0.000070  -0.000000
     15      -0.000000   0.000000   0.028154   0.000000  -0.000000  -0.001792
     16      -0.000005   0.000143  -0.000000   0.028154   0.001791  -0.000000
     17       0.045537  -0.508729   0.000000   0.000129  -0.000036  -0.000000
                 12         13         14         15         16         17    
      0       0.000000   0.093156  -0.000000  -0.000000  -0.000000  -0.101841
      1      -0.000045  -0.000000  -0.093160  -0.000091  -0.101835   0.000000
      2      -0.007286  -0.000000   0.000007  -0.000642   0.000001  -0.000000
      3       0.000000  -0.809131   0.000002  -0.000000  -0.000000  -0.014600
      4       0.002801  -0.000000  -0.078253  -0.576643   0.812663  -0.000000
      5       0.581790  -0.000000  -0.007555   0.002807  -0.004499   0.000000
      6       0.002470  -0.143560   0.384265  -0.500296  -0.357506   0.605431
      7      -0.001396  -0.384266   0.587280   0.288847   0.191776  -0.357975
      8       0.575013   0.006597   0.003745   0.002825   0.002250  -0.003902
      9      -0.002470  -0.143561  -0.384265   0.500296   0.357507   0.605431
     10      -0.001396   0.384269   0.587278   0.288847   0.191776   0.357975
     11       0.575013  -0.006597   0.003745   0.002825   0.002250   0.003902
     12      -0.000000  -0.000075   0.000000  -0.000000   0.000000   0.000112
     13       0.000022   0.000000   0.000076   0.000000   0.000112  -0.000000
     14      -0.011371  -0.000000  -0.000000   0.000116  -0.000001   0.000000
     15       0.000000  -0.000062   0.000000  -0.000000   0.000000   0.000066
     16      -0.000009   0.000000   0.000062   0.000000   0.000066  -0.000000
     17      -0.005907   0.000000  -0.000000  -0.000079   0.000000   0.000000


-----------
IR SPECTRUM
-----------

 Mode   freq       eps      Int      T**2         TX        TY        TZ
       cm**-1   L/(mol*cm) km/mol    a.u.
----------------------------------------------------------------------------
  7:    133.86   0.000234    1.18  0.000546  (-0.000000 -0.000055 -0.023377)
  8:    145.62   0.000842    4.25  0.001804  (-0.042469  0.000000 -0.000000)
  9:    145.73   0.000841    4.25  0.001801  (-0.000000 -0.042438 -0.000080)
 10:    887.84   0.000010    0.05  0.000004  ( 0.000000 -0.001801 -0.000521)
 11:    888.42   0.000009    0.05  0.000003  ( 0.001779  0.000000 -0.000000)
 12:    935.64   0.024547  124.05  0.008187  (-0.000000 -0.000011 -0.090483)
 13:   1380.42   0.000918    4.64  0.000208  (-0.014405  0.000000 -0.000000)
 14:   1380.49   0.000931    4.71  0.000211  ( 0.000000  0.014510  0.000019)
 15:   3249.06   0.000378    1.91  0.000036  ( 0.000000  0.000017 -0.006024)
 16:   3460.27   0.001830    9.25  0.000165  ( 0.000000  0.012846 -0.000010)
 17:   3460.99   0.001832    9.26  0.000165  ( 0.012851 -0.000000 -0.000000)

* The epsilon (eps) is given for a Dirac delta lineshape.
** The dipole moment derivative (T) already includes vibrational overlap.

The first frequency considered to be a vibration is 7
The total number of vibrations considered is 11


--------------------------
THERMOCHEMISTRY AT 298.15K
--------------------------

Temperature         ...   298.15 K
Pressure            ...     1.00 atm
Total Mass          ...   221.84 AMU
Quasi RRHO          ...     True
Cut-Off Frequency   ...     1.00 cm^-1

Throughout the following assumptions are being made:
  (1) The electronic state is orbitally nondegenerate
  (2) There are no thermally accessible electronically excited states
  (3) Hindered rotations indicated by low frequency modes are not
      treated as such but are treated as vibrations and this may
      cause some error
  (4) All equations used are the standard statistical mechanics
      equations for an ideal gas
  (5) All vibrations are strictly harmonic

freq.     133.86  E(vib)   ...       0.42 
freq.     145.62  E(vib)   ...       0.41 
freq.     145.73  E(vib)   ...       0.41 
freq.     887.84  E(vib)   ...       0.04 
freq.     888.42  E(vib)   ...       0.04 
freq.     935.64  E(vib)   ...       0.03 
freq.    1380.42  E(vib)   ...       0.01 
freq.    1380.49  E(vib)   ...       0.01 
freq.    3249.06  E(vib)   ...       0.00 
freq.    3460.27  E(vib)   ...       0.00 
freq.    3460.99  E(vib)   ...       0.00 

------------
INNER ENERGY
------------

The inner energy is: U= E(el) + E(ZPE) + E(vib) + E(rot) + E(trans)
    E(el)   - is the total energy from the electronic structure calculation
              = E(kin-el) + E(nuc-el) + E(el-el) + E(nuc-nuc)
    E(ZPE)  - the the zero temperature vibrational energy from the frequency calculation
    E(vib)  - the the finite temperature correction to E(ZPE) due to population
              of excited vibrational states
    E(rot)  - is the rotational thermal energy
    E(trans)- is the translational thermal energy

Summary of contributions to the inner energy U:
Electronic energy                ...  -2911.86395315 Eh
Zero point energy                ...      0.03660634 Eh      22.97 kcal/mol
Thermal vibrational correction   ...      0.00214992 Eh       1.35 kcal/mol
Thermal rotational correction    ...      0.00141627 Eh       0.89 kcal/mol
Thermal translational correction ...      0.00141627 Eh       0.89 kcal/mol
-----------------------------------------------------------------------
Total thermal energy                  -2911.82236435 Eh


Summary of corrections to the electronic energy:
(perhaps to be used in another calculation)
Total thermal correction                  0.00498246 Eh       3.13 kcal/mol
Non-thermal (ZPE) correction              0.03660634 Eh      22.97 kcal/mol
-----------------------------------------------------------------------
Total correction                          0.04158880 Eh      26.10 kcal/mol


--------
ENTHALPY
--------

The enthalpy is H = U + kB*T
                kB is Boltzmann's constant
Total thermal energy              ...  -2911.82236435 Eh 
Thermal Enthalpy correction       ...      0.00094421 Eh       0.59 kcal/mol
-----------------------------------------------------------------------
Total Enthalpy                    ...  -2911.82142014 Eh


Note: Rotational entropy computed according to Herzberg 
Infrared and Raman Spectra, Chapter V,1, Van Nostrand Reinhold, 1945 
Point Group:  C3v, Symmetry Number:   3  
Rotational constants in cm-1:     4.899729     0.013445     0.013445 

Vibrational entropy computed according to the QRRHO of S. Grimme
Chem.Eur.J. 2012 18 9955 using a reference frequency of 100.0 cm-1


-------
ENTROPY
-------

The entropy contributions are T*S = T*(S(el)+S(vib)+S(rot)+S(trans))
     S(el)   - electronic entropy
     S(vib)  - vibrational entropy
     S(rot)  - rotational entropy
     S(trans)- translational entropy
The entropies will be listed as multiplied by the temperature to get
units of energy

Electronic entropy                ...      0.00000000 Eh      0.00 kcal/mol
Vibrational entropy               ...      0.00410154 Eh      2.57 kcal/mol
Rotational entropy                ...      0.01179190 Eh      7.40 kcal/mol
Translational entropy             ...      0.01999968 Eh     12.55 kcal/mol
-----------------------------------------------------------------------
Final entropy term                ...      0.03589312 Eh     22.52 kcal/mol

In case the symmetry of your molecule has not been determined correctly
or in case you have a reason to use a different symmetry number we print 
out the resulting rotational entropy values for sn=1,12:

 non-linear molecules -----------------------------------
|  sn= 1 | S(rot)=       0.01282919 Eh      8.05 kcal/mol|
|  sn= 2 | S(rot)=       0.01217473 Eh      7.64 kcal/mol|
|  sn= 3 | S(rot)=       0.01179190 Eh      7.40 kcal/mol|
|  sn= 4 | S(rot)=       0.01152027 Eh      7.23 kcal/mol|
|  sn= 5 | S(rot)=       0.01130959 Eh      7.10 kcal/mol|
|  sn= 6 | S(rot)=       0.01113744 Eh      6.99 kcal/mol|
|  sn= 7 | S(rot)=       0.01099190 Eh      6.90 kcal/mol|
|  sn= 8 | S(rot)=       0.01086582 Eh      6.82 kcal/mol|
|  sn= 9 | S(rot)=       0.01075461 Eh      6.75 kcal/mol|
|  sn=10 | S(rot)=       0.01065513 Eh      6.69 kcal/mol|
|  sn=11 | S(rot)=       0.01056514 Eh      6.63 kcal/mol|
|  sn=12 | S(rot)=       0.01048299 Eh      6.58 kcal/mol|
 linear molecules ---------------------------------------
|  Dinfh | S(rot)=       0.00939442 Eh      5.90 kcal/mol|
|  Cinfv | S(rot)=       0.01004888 Eh      6.31 kcal/mol|
 --------------------------------------------------------


-------------------
GIBBS FREE ENERGY
-------------------

The Gibbs free energy is G = H - T*S

Total enthalpy                    ...  -2911.82142014 Eh 
Total entropy correction          ...     -0.03589312 Eh    -22.52 kcal/mol
-----------------------------------------------------------------------
Final Gibbs free energy         ...  -2911.85731326 Eh

For completeness - the Gibbs free energy minus the electronic energy
G-E(el)                           ...      0.00663989 Eh      4.17 kcal/mol


Maximum memory used throughout the entire PROP-calculation: 32.3 MB
Actual Hessian File stored as ts_optfreq.001.hess
------------------------------------------------------------------------------
                         ORCA GEOMETRY RELAXATION STEP
------------------------------------------------------------------------------

Reading the OPT-File                    .... done
Getting information on internals        .... done
Copying old internal coords+grads       .... done
Making the new internal coordinates     .... (2022 redundants) done
Validating the new internal coordinates .... (2022 redundants) done
Calculating the B-matrix                .... done
Calculating the G,G- and P matrices     .... done
Transforming gradient to internals      .... done
Projecting the internal gradient        .... done
Number of atoms                         ....   6
Number of internal coordinates          ....  17
Current Energy                          .... -2911.863953150 Eh
Current gradient norm                   ....     0.017524870 Eh/bohr
Maximum allowed component of the step   ....  0.300
Current trust radius                    ....  0.300
Evaluating the initial hessian          ....  (read) 
(Reading Exact Hessian)...  
InHessName: ts_optfreq.hess	The file <ts_optfreq.hess> is opened as a .hess file
done
done
Projecting the Hessian                  .... done
Diagonalizing the Hessian               .... done
Dimension of the hessian                ....  17
Lowest eigenvalues of the Hessian:
 -0.012150218  0.014459079  0.014463173  0.015727426  0.079363119
Hessian has   1 negative eigenvalues
Taking P-RFO step
Searching for lambda that maximizes along the lowest mode
TS mode is mode number   0 with eigenvalue  -0.01215022 and components:
   1.   -0.00052067
   2.   -0.00051157
   3.   -0.00051157
   4.   -0.59142909
   5.    0.06328658
   6.    0.06328652
[...]
Magnitude (a.u.)       :      1.303004784
Magnitude (Debye)      :      3.311974954



--------------------
Rotational spectrum 
--------------------
 
Rotational constants in cm-1:             4.829413             0.012595             0.012595 
Rotational constants in MHz :        144782.172288           377.584981           377.584970 

Dipole components along the rotational axes: 
x,y,z [a.u.] :    -1.303005     0.000070    -0.000000 
x,y,z [Debye]:    -3.311975     0.000177    -0.000000 

 

Dipole moment calculation done in   0.0 sec 

-----------
SCF HESSIAN
-----------

Occupied/Occupied contributions to the Hessian:
   => Occupied/Occupied contributions              ... done (  0.0 sec)
Perturbed density contributions to the Hessian:
   => Perturbed density contributions              ... done (  0.0 sec)
Explicit contributions to the Hessian:
   => Nuclear repulsion Hessian                    ... done (  0.0 sec)
   => HCore and overlap Hessian                    ... done (  0.6 sec)
   => ECP Hessian                                  ... done (  1.6 sec)
   => RI-J Hessian                                 ... done (  2.3 sec)
   => XC-Hessian                                   ... done (  4.8 sec)
   => Van der Waals-Hessian                        ... done (  1.2 sec)
   => GCP-Hessian                                  ... done (  0.0 sec)
   => Explicit contributions done
Dipole derivatives                                 ... done (  0.1 sec)
Mass weighting the Hessian           ... done
Calculating normal modes             ... done
Scaling frequencies                  ... done

-----------------------
VIBRATIONAL FREQUENCIES
-----------------------

Scaling factor for frequencies =  1.000000000  (already applied!)

     0:       0.00 cm**-1
     1:       0.00 cm**-1
     2:       0.00 cm**-1
     3:       0.00 cm**-1
     4:       0.00 cm**-1
     5:       0.00 cm**-1
     6:    -260.08 cm**-1  ***imaginary mode***
     7:     114.37 cm**-1
     8:     150.09 cm**-1
     9:     150.15 cm**-1
    10:     847.71 cm**-1
    11:     848.29 cm**-1
    12:     928.70 cm**-1
    13:    1401.18 cm**-1
    14:    1401.25 cm**-1
    15:    3174.70 cm**-1
    16:    3379.22 cm**-1
    17:    3380.05 cm**-1


------------
NORMAL MODES
------------

These modes are the Cartesian displacements weighted by the diagonal matrix
M(i,i)=1/sqrt(m[i]) where m[i] is the mass of the displaced atom
Thus, these vectors are normalized but *not* orthogonal

                  0          1          2          3          4          5    
      0       0.000000   0.000000   0.000000   0.000000   0.000000   0.000000
      1       0.000000   0.000000   0.000000   0.000000   0.000000   0.000000
      2       0.000000   0.000000   0.000000   0.000000   0.000000   0.000000
      3       0.000000   0.000000   0.000000   0.000000   0.000000   0.000000
      4       0.000000   0.000000   0.000000   0.000000   0.000000   0.000000
      5       0.000000   0.000000   0.000000   0.000000   0.000000   0.000000
      6       0.000000   0.000000   0.000000   0.000000   0.000000   0.000000
      7       0.000000   0.000000   0.000000   0.000000   0.000000   0.000000
      8       0.000000   0.000000   0.000000   0.000000   0.000000   0.000000
      9       0.000000   0.000000   0.000000   0.000000   0.000000   0.000000
     10       0.000000   0.000000   0.000000   0.000000   0.000000   0.000000
     11       0.000000   0.000000   0.000000   0.000000   0.000000   0.000000
     12       0.000000   0.000000   0.000000   0.000000   0.000000   0.000000
     13       0.000000   0.000000   0.000000   0.000000   0.000000   0.000000
     14       0.000000   0.000000   0.000000   0.000000   0.000000   0.000000
     15       0.000000   0.000000   0.000000   0.000000   0.000000   0.000000
     16       0.000000   0.000000   0.000000   0.000000   0.000000   0.000000
     17       0.000000   0.000000   0.000000   0.000000   0.000000   0.000000
                  6          7          8          9         10         11    
      0       0.000000   0.000000  -0.000001   0.494062   0.000000   0.013177
      1      -0.000168   0.000646   0.494045   0.000001  -0.013132   0.000000
      2      -0.963826  -0.170725  -0.000084   0.000000   0.000033  -0.000000
      3       0.000000   0.000000  -0.000001   0.499008  -0.000000  -0.038425
      4      -0.030174  -0.008180   0.501932   0.000001   0.022897  -0.000000
      5      -0.142476  -0.123277  -0.024153  -0.000000  -0.814010   0.000002
      6      -0.026126  -0.007593  -0.001104   0.501478   0.006397  -0.026894
      7       0.014894   0.005037   0.500022  -0.000799   0.034281  -0.006656
      8      -0.141105  -0.123668   0.011900  -0.020735   0.408808   0.705974
      9       0.026126   0.007593   0.001102   0.501478  -0.006397  -0.026894
     10       0.014894   0.005037   0.500022   0.000802   0.034281   0.006656
     11      -0.141105  -0.123668   0.011900   0.020735   0.408805  -0.705976
     12      -0.000000  -0.000000   0.000000  -0.047262   0.000000   0.002779
     13       0.000007  -0.000056  -0.047261  -0.000000  -0.002778   0.000000
     14       0.078460  -0.805080   0.000057   0.000000  -0.000028   0.000000
     15      -0.000000  -0.000000   0.000000  -0.028935  -0.000000  -0.002265
     16       0.000014  -0.000041  -0.028934  -0.000000   0.002266  -0.000000
     17       0.045198   0.526005  -0.000025  -0.000000  -0.000014   0.000000
                 12         13         14         15         16         17    
      0       0.000000   0.092311   0.000001  -0.000000  -0.000000  -0.101564
      1      -0.000065  -0.000001   0.092328   0.000057   0.101563  -0.000000
      2       0.028542  -0.000000   0.000015  -0.005371  -0.000005   0.000000
      3      -0.000000  -0.807748  -0.000005   0.000000  -0.000000  -0.014844
      4       0.022704  -0.000000   0.079025   0.576512  -0.811717   0.000001
      5      -0.578335   0.000000  -0.047321   0.021582  -0.035167   0.000000
      6       0.019813  -0.142623  -0.384031   0.499812   0.357480   0.604815
      7      -0.011216  -0.384008  -0.586062  -0.288593  -0.191521  -0.357766
      8      -0.575786  -0.041284   0.023468   0.021734   0.017620   0.030556
      9      -0.019813  -0.142627   0.384029  -0.499812  -0.357479   0.604816
     10      -0.011216   0.384015  -0.586058  -0.288593  -0.191520   0.357767
     11      -0.575786   0.041284   0.023469   0.021734   0.017619  -0.030556
     12      -0.000000  -0.000102  -0.000000   0.000000   0.000000   0.000095
     13      -0.000004   0.000000  -0.000100  -0.000000  -0.000095   0.000000
     14       0.008398  -0.000000   0.000001  -0.000122   0.000000   0.000000
     15       0.000000   0.000009   0.000000   0.000000   0.000000   0.000063
     16       0.000007  -0.000000   0.000007   0.000000  -0.000063   0.000000
     17       0.005752   0.000000   0.000001   0.000068  -0.000000  -0.000000


-----------
IR SPECTRUM
-----------

 Mode   freq       eps      Int      T**2         TX        TY        TZ
       cm**-1   L/(mol*cm) km/mol    a.u.
----------------------------------------------------------------------------
  7:    114.37   0.000039    0.20  0.000108  ( 0.000000  0.000018  0.010374)
  8:    150.09   0.000790    3.99  0.001642  (-0.000000  0.040519 -0.000025)
  9:    150.15   0.000790    3.99  0.001641  ( 0.040507  0.000000  0.000000)
 10:    847.71   0.000000    0.00  0.000000  (-0.000000  0.000218 -0.000245)
 11:    848.29   0.000000    0.00  0.000000  (-0.000207 -0.000000  0.000000)
 12:    928.70   0.031184  157.59  0.010478  (-0.000000  0.000039  0.102364)
 13:   1401.18   0.000959    4.85  0.000214  (-0.014617  0.000000 -0.000000)
 14:   1401.25   0.000973    4.92  0.000217  (-0.000000 -0.014719  0.000022)
 15:   3174.70   0.000206    1.04  0.000020  (-0.000000 -0.000009  0.004502)
 16:   3379.22   0.001657    8.37  0.000153  ( 0.000000 -0.012370  0.000064)
 17:   3380.05   0.001668    8.43  0.000154  ( 0.012409  0.000000 -0.000000)

* The epsilon (eps) is given for a Dirac delta lineshape.
** The dipole moment derivative (T) already includes vibrational overlap.

The first frequency considered to be a vibration is 7
The total number of vibrations considered is 11


--------------------------
THERMOCHEMISTRY AT 298.15K
--------------------------

Temperature         ...   298.15 K
Pressure            ...     1.00 atm
Total Mass          ...   221.84 AMU
Quasi RRHO          ...     True
Cut-Off Frequency   ...     1.00 cm^-1

Throughout the following assumptions are being made:
  (1) The electronic state is orbitally nondegenerate
  (2) There are no thermally accessible electronically excited states
  (3) Hindered rotations indicated by low frequency modes are not
      treated as such but are treated as vibrations and this may
      cause some error
  (4) All equations used are the standard statistical mechanics
      equations for an ideal gas
  (5) All vibrations are strictly harmonic

freq.     114.37  E(vib)   ...       0.44 
freq.     150.09  E(vib)   ...       0.40 
freq.     150.15  E(vib)   ...       0.40 
freq.     847.71  E(vib)   ...       0.04 
freq.     848.29  E(vib)   ...       0.04 
freq.     928.70  E(vib)   ...       0.03 
freq.    1401.18  E(vib)   ...       0.00 
freq.    1401.25  E(vib)   ...       0.00 
freq.    3174.70  E(vib)   ...       0.00 
freq.    3379.22  E(vib)   ...       0.00 
freq.    3380.05  E(vib)   ...       0.00 

------------
INNER ENERGY
------------

The inner energy is: U= E(el) + E(ZPE) + E(vib) + E(rot) + E(trans)
    E(el)   - is the total energy from the electronic structure calculation
              = E(kin-el) + E(nuc-el) + E(el-el) + E(nuc-nuc)
    E(ZPE)  - the the zero temperature vibrational energy from the frequency calculation
    E(vib)  - the the finite temperature correction to E(ZPE) due to population
              of excited vibrational states
    E(rot)  - is the rotational thermal energy
    E(trans)- is the translational thermal energy

Summary of contributions to the inner energy U:
Electronic energy                ...  -2911.86506102 Eh
Zero point energy                ...      0.03593973 Eh      22.55 kcal/mol
Thermal vibrational correction   ...      0.00218829 Eh       1.37 kcal/mol
Thermal rotational correction    ...      0.00141627 Eh       0.89 kcal/mol
Thermal translational correction ...      0.00141627 Eh       0.89 kcal/mol
-----------------------------------------------------------------------
Total thermal energy                  -2911.82410046 Eh


Summary of corrections to the electronic energy:
(perhaps to be used in another calculation)
Total thermal correction                  0.00502083 Eh       3.15 kcal/mol
Non-thermal (ZPE) correction              0.03593973 Eh      22.55 kcal/mol
-----------------------------------------------------------------------
Total correction                          0.04096056 Eh      25.70 kcal/mol


--------
ENTHALPY
--------

The enthalpy is H = U + kB*T
                kB is Boltzmann's constant
Total thermal energy              ...  -2911.82410046 Eh 
Thermal Enthalpy correction       ...      0.00094421 Eh       0.59 kcal/mol
-----------------------------------------------------------------------
Total Enthalpy                    ...  -2911.82315625 Eh


Note: Rotational entropy computed according to Herzberg 
Infrared and Raman Spectra, Chapter V,1, Van Nostrand Reinhold, 1945 
Point Group:  Cs, Symmetry Number:   1  
Rotational constants in cm-1:     4.829418     0.012595     0.012595 

Vibrational entropy computed according to the QRRHO of S. Grimme
Chem.Eur.J. 2012 18 9955 using a reference frequency of 100.0 cm-1


-------
ENTROPY
-------

The entropy contributions are T*S = T*(S(el)+S(vib)+S(rot)+S(trans))
     S(el)   - electronic entropy
     S(vib)  - vibrational entropy
     S(rot)  - rotational entropy
     S(trans)- translational entropy
The entropies will be listed as multiplied by the temperature to get
units of energy

Electronic entropy                ...      0.00000000 Eh      0.00 kcal/mol
Vibrational entropy               ...      0.00417757 Eh      2.62 kcal/mol
Rotational entropy                ...      0.01289768 Eh      8.09 kcal/mol
Translational entropy             ...      0.01999968 Eh     12.55 kcal/mol
-----------------------------------------------------------------------
Final entropy term                ...      0.03707493 Eh     23.26 kcal/mol

In case the symmetry of your molecule has not been determined correctly
or in case you have a reason to use a different symmetry number we print 
out the resulting rotational entropy values for sn=1,12:

 non-linear molecules -----------------------------------
|  sn= 1 | S(rot)=       0.01289768 Eh      8.09 kcal/mol|
|  sn= 2 | S(rot)=       0.01224323 Eh      7.68 kcal/mol|
|  sn= 3 | S(rot)=       0.01186039 Eh      7.44 kcal/mol|
|  sn= 4 | S(rot)=       0.01158877 Eh      7.27 kcal/mol|
|  sn= 5 | S(rot)=       0.01137808 Eh      7.14 kcal/mol|
|  sn= 6 | S(rot)=       0.01120594 Eh      7.03 kcal/mol|
|  sn= 7 | S(rot)=       0.01106039 Eh      6.94 kcal/mol|
|  sn= 8 | S(rot)=       0.01093431 Eh      6.86 kcal/mol|
|  sn= 9 | S(rot)=       0.01082311 Eh      6.79 kcal/mol|
|  sn=10 | S(rot)=       0.01072363 Eh      6.73 kcal/mol|
|  sn=11 | S(rot)=       0.01063364 Eh      6.67 kcal/mol|
|  sn=12 | S(rot)=       0.01055148 Eh      6.62 kcal/mol|
 linear molecules ---------------------------------------
|  Dinfh | S(rot)=       0.00945609 Eh      5.93 kcal/mol|
|  Cinfv | S(rot)=       0.01011055 Eh      6.34 kcal/mol|
 --------------------------------------------------------


-------------------
GIBBS FREE ENERGY
-------------------

The Gibbs free energy is G = H - T*S

Total enthalpy                    ...  -2911.82315625 Eh 
Total entropy correction          ...     -0.03707493 Eh    -23.26 kcal/mol
-----------------------------------------------------------------------
Final Gibbs free energy         ...  -2911.86023119 Eh

For completeness - the Gibbs free energy minus the electronic energy
G-E(el)                           ...      0.00482983 Eh      3.03 kcal/mol


Maximum memory used throughout the entire PROP-calculation: 32.3 MB

--------------------------------
SUGGESTED CITATIONS FOR THIS RUN
--------------------------------

Below you find a list of papers that are relevant to this ORCA run
We neither can nor want to force you to cite these papers, but we appreciate if you do
You receive ORCA, which is the product of decades of hard work by many enthusiastic individuals, for free
The only thing we kindly ask in return is that you cite our papers,
We deeply appreciate it, if you show your appreciation for ORCA by not just citing the generic ORCA reference.

Please note that relegating all ORCA citations to the supporting information does *not* help us.
SI sections are not indexed - citations you put there will not count into any citation statistics
But we need these citations in order to attract the funding resources that allow us to do what we are doing

Therefore, if you are a happy ORCA user, please consider citing a few of the papers listed below in the main body of your paper

In addition to the list printed below, the program has created the file ts_optfreq.bibtex that contains the list in bibtex format
You can import this file easily into all common literature databanks and citation aid programs


List of essential papers. We consider these as the minimum necessary citations

  1. Grimme, S.; Hansen, A.; Ehlert, S.; Mewes, J.
     r2SCAN-3c: A 'Swiss army knife' composite electronic-structure method
     J. Chem. Phys. 2021 154 , 064103
     doi.org/10.1063/5.0040021
  2. Neese, F.
     Software update: the ORCA program system, version 6.0
     WIRES Comput. Molec. Sci. 2025 15(1), e70019
     doi.org/10.1002/wcms.7019

List of papers to cite with high priority. The work reported in these papers was absolutely
necessary for this run to complete.
Our perspective: the developers of density functionals and basis sets usually get cited in chemistry papers
Good! But without the algorithms to do something with them, the functionals or basis sets would not do anything.
Hence, in our opinion, the algorithm design and method developments papers are equally worthy of getting cited

  1. Neese, F.
     An improvement of the resolution of the identity approximation for the formation of the Coulomb matrix
     J. Comp. Chem. 2003 24(14), 1740-1747
     doi.org/10.1002/jcc.10318
  2. Bykov, D.; Petrenko, T.; Izsak, R.; Kossmann, S.; Becker, U.; Valeev, E.; Neese, F.
     Efficient implementation of the analytic second derivatives of Hartree-Fock and hybrid DFT energies: a detailed analysis of different approximations
     Molec. Phys. 2015 113 , 1961-1977
     doi.org/10.1080/00268976.2015.1025114
  3. Caldeweyher, E.; Bannwarth, C.; Grimme, S.
     Extension of the D3 dispersion coefficient model
     J. Chem. Phys. 2017 147 , 034112
     doi.org/10.1063/1.4993215
  4. Lehtola, S.; Steigemann, C.; Oliveira, M.; Marques, M.
     Recent developments in Libxc - A comprehensive library of functionals for density functional theory
     Software X 2018 7 , 
     doi.org/10.1016/j.softx.2017.11.002
  5. Caldeweyher, E.; Ehlert, S.; Hansen, A.; Neugebauer, H.; Spicher, S.; Bannwarth, C.; Grimme, S.
     A generally applicable atomic-charge dependent London dispersion correction
     J. Chem. Phys. 2019 150 , 154122
     doi.org/10.1063/1.5090222
  6. Caldeweyher, E.; Mewes, J.; Ehlert, S.; Grimme, S.
     Extension and evaluation of the D4 London-dispersion model for periodic systems
     Phys. Chem. Chem. Phys. 2020 22(16), 8499-8512
     doi.org/10.1039/D0CP00502A
  7. Neese, F.
     The SHARK Integral Generation and Digestion System
     J. Comp. Chem. 2022 44(3), 381
     doi.org/10.1002/jcc.26942
  8. Wittmann, L.; Gordiy, I.; Friede, M.; Helmich-Paris, B.; Grimme, S.; Hansen, A.; Bursch, M.
     Extension of the D3 and D4 London Dispersion Corrections to the full Actinides Series
     Phys. Chem. Chem. Phys. 2024 26(32), 21379-21394
     doi.org/10.1039/D4CP01514B

List of suggested additional citations. These are papers that are important in the 'surrounding' of 
of this run, or papers that preceded the highly important papers. If you like your results we are grateful for a citation.

  1. Neese, F.
     The ORCA program system
     WIRES Comput. Molec. Sci. 2012 2(1), 73-78
     doi.org/10.1002/wcms.81
  2. Neese, F.
     Software update: the ORCA program system, version 4.0
     WIRES Comput. Molec. Sci. 2018 8(1), 1-6
     doi.org/10.1002/wcms.1327
  3. Neese, F.; Wennmohs, F.; Becker, U.; Riplinger, C.
     The ORCA quantum chemistry program package
     J. Chem. Phys. 2020 152(22), 224108
     doi.org/10.1063/5.0004608
  4. Neese, F.
     Software update: The ORCA program system—Version 5.0
     WIRES Comput. Molec. Sci. 2022 12(1), e1606
     doi.org/10.1002/wcms.1606

List of optional additional citations

  1. Neese, F.
     Approximate second-order SCF convergence for spin unrestricted wavefunctions
     Chem. Phys. Lett. 2000 325(1-3), 93-98
     doi.org/10.1016/s0009-2614(00)00662-x

Timings for individual modules:

Sum of individual times          ...      101.064 sec (=   1.684 min)
Startup calculation              ...       13.224 sec (=   0.220 min)  13.1 %
SCF iterations                   ...       38.394 sec (=   0.640 min)  38.0 %
Property integrals               ...       18.168 sec (=   0.303 min)  18.0 %
SCF Response                     ...        6.360 sec (=   0.106 min)   6.3 %
Property calculations            ...       11.722 sec (=   0.195 min)  11.6 %
SCF Gradient evaluation          ...       13.126 sec (=   0.219 min)  13.0 %
Geometry relaxation              ...        0.072 sec (=   0.001 min)   0.1 %
                             ****ORCA TERMINATED NORMALLY****
TOTAL RUN TIME: 0 days 0 hours 2 minutes 19 seconds 333 msec
