
                                 *****************
                                 * O   R   C   A *
                                 *****************

                                            #,                                       
                                            ###                                      
                                            ####                                     
                                            #####                                    
                                            ######                                   
                                           ########,                                 
                                     ,,################,,,,,                         
                               ,,#################################,,                 
                          ,,##########################################,,             
                       ,#########################################, ''#####,          
                    ,#############################################,,   '####,        
                  ,##################################################,,,,####,       
                ,###########''''           ''''###############################       
              ,#####''   ,,,,##########,,,,          '''####'''          '####       
            ,##' ,,,,###########################,,,                        '##       
           ' ,,###''''                  '''############,,,                           
         ,,##''                                '''############,,,,        ,,,,,,###''
      ,#''                                            '''#######################'''  
     '                                                          ''''####''''         
             ,#######,   #######,   ,#######,      ##                                
            ,#'     '#,  ##    ##  ,#'     '#,    #''#        ,####,    ,#,          
            ##       ##  ##   ,#'  ##            #'  '#       #'       ,# #          
            ##       ##  #######   ##           ,######,      #####,      #          
            '#,     ,#'  ##    ##  '#,     ,#' ,#      #,     #,   #      #          
             '#######'   ##     ##  '#######'  #'      '#     '####' #    #          



                #########################################################
                #                        -***-                          #
                #          Department of theory and spectroscopy        #
                #                                                       #
                #                      Frank Neese                      #
                #                                                       #
                #     Directorship, Architecture, Infrastructure        #
                #                    SHARK, DRIVERS                     #
                #        Core code/Algorithms in most modules           #
                #                                                       #
                #        Max Planck Institute fuer Kohlenforschung      #
                #                Kaiser Wilhelm Platz 1                 #
                #                 D-45470 Muelheim/Ruhr                 #
                #                      Germany                          #
                #                                                       #
                #                  All rights reserved                  #
                #                        -***-                          #
                #########################################################


                         Program Version 6.1.0  -  RELEASE   -
                                (GIT: $679e74b$)
                          ($2025-06-10 18:02:51 +0200$)


 With contributions from (in alphabetic order):
[Max-Planck-Institut fuer Kohlenforschung]                               
  Daniel Aravena         : Magnetic Suceptibility                        
  Michael Atanasov       : Ab Initio Ligand Field Theory (pilot matlab implementation)
  Alexander A. Auer      : GIAO ZORA, VPT2 properties, NMR spectrum      
  Ute Becker             : All parallelization in ORCA, NUMFREQ, NUMCALC 
  Giovanni Bistoni       : ED, misc. LED, open-shell LED, HFLD           
  Dmytro Bykov           : pre 5.0 version of the SCF Hessian            
  Marcos Casanova-Páez   : Triplet and SCS-CIS(D). UHF-(DLPNO)-IP/EA/STEOM-CCSD. UHF-CVS-IP/STEOM-CCSD   
  Vijay G. Chilkuri      : MRCI spin determinant printing, contributions to CSF-ICE 
  Pauline Colinet        : FMM embedding                                 
  Dipayan Datta          : RHF DLPNO-CCSD density                        
  Achintya Kumar Dutta   : EOM-CC, STEOM-CC                              
  Nicolas Foglia         : Exact transition moments, OPA infrastructure, MCD improvements    
  Dmitry Ganyushin       : Spin-Orbit,Spin-Spin,Magnetic field MRCI      
  Miquel Garcia-Rates    : C-PCM and meta-GGA Hessian, CCSD/C-PCM, Gaussian charge scheme 
  Tiago L. C. Gouveia    : GS-ROHF, GS-ROCIS                             
  Yang Guo               : DLPNO-NEVPT2, F12-NEVPT2, CIM, IAO-localization        
  Andreas Hansen         : Spin unrestricted coupled pair/coupled cluster methods 
  Ingolf Harden          : AUTO-CI MPn and infrastructure                
  Benjamin Helmich-Paris : MC-RPA, TRAH-(SCF,CASSCF), AVAS, COSX integrals, SCF dyn. polar., MC-PDFT, srDFT 
  Lee Huntington         : MR-EOM, pCC                                   
  Robert Izsak           : Overlap fitted RIJCOSX, COSX-SCS-MP3, EOM     
  Riya Kayal             : Wick's Theorem for AUTO-CI, AUTO-CI UHF-CCSDT 
  Emily Kempfer          : AUTO-CI RHF CISDT and CCSDT, approximate NEVPT4
  Christian Kollmar      : KDIIS, OOCD, Brueckner-CCSD(T), CCSD density, CASPT2, CASPT2-K, improved NEVPT2 
  Axel Koslowski         : Symmetry handling                             
  Simone Kossmann        : meta-GGA functionals, TD-DFT gradient, OOMP2, (MP2 Hessian; deprecated post 5.0) 
  Lucas Lang             : DCDCAS, Hyperfine gauge corrections, ICE-SOC+SSC
  Marvin Lechner         : AUTO-CI (C++ implementation), FIC-MRCC        
  Spencer Leger          : CASSCF response                               
  Dagmar Lenk            : GEPOL surface, SMD, ORCA-2-JSON               
  Dimitrios Liakos       : Extrapolation schemes; Compound Job, Property file
  Dimitrios Manganas     : Further ROCIS development; embedding schemes. LFT, Crystal Embedding 
  Dimitrios Pantazis     : SARC Basis sets                               
  Anastasios Papadopoulos: AUTO-CI, single reference methods and gradients 
  Taras Petrenko         : pre 6.0 DFT Hessian and TD-DFT gradient,  ECA, NRVS 
  Petra Pikulova         : Analytic Raman intensities                    
  Peter Pinski           : DLPNO-MP2, DLPNO-MP2 Gradient                 
  Shashank Vittal Rao    : ES-AILFT, MagRelax                            
  Christoph Reimann      : Effective Core Potentials                     
  Marius Retegan         : Local ZFS, SOC                                
  Christoph Riplinger    : Optimizer, TS searches, QM/MM, DLPNO-CCSD(T), (RO)-DLPNO pert. Triples 
  Michael Roemelt        : Original ROCIS implementation, recursive CI coupling coefficients
  Masaaki Saitow         : Open-shell DLPNO-CCSD energy and density      
  Barbara Sandhoefer     : DKH picture change effects                    
  Yorick L. A. Schmerwitz: GMF and freeze-and-release deltaSCF, NEB S-IDPP initial path                    
  Kantharuban Sivalingam : CASSCF convergence/infrastructure, NEVPT2, NEVPT3, NEVPT4(SD), FIC-MRCI and CEPA variants
  Bernardo de Souza      : ESD, SOC TD-DFT                               
  Georgi L. Stoychev     : AutoAux, RI-MP2 NMR, DLPNO-MP2 response, X2C  
  Van Anh Tran           : RI-MP2 g-tensors                              
  Willem Van den Heuvel  : Paramagnetic NMR                              
  Zikuan Wang            : NOTCH, Electric field optimization            
  Frank Wennmohs         : Technical directorship and infrastructure     
  Hang Xu                : AUTO-CI-Response properties                   
                                                                         
[FACCTs GmbH]                                                            
  Markus Bursch, Nicolas Foglia, Miquel Garcia-Rates, Ingolf Harden, Hagen Neugebauer, Anastasios Papadopoulos, 
  Christoph Riplinger, Bernardo de Souza, Georgi L. Stoychev                                                    
                                                                 
  APM, various basis sets, CI-OPT, improved COSX, DLPNO-Multilevel,           
  DOCKER, DRACO, updates on ESD, Fragmentator, GOAT, IRC, LR-CPCM, L-BFGS, MBIS, meta-GGA TD-DFT gradient, ML-optimized integration grids, 
  MM, NACMEs, nearIR, NEB, NEB-TS, NL-DFT gradient (VV10), 2- and 3-layer-ONIOM, interface openCOSMO-RS, QMMM,   
  Crystal-QMMM, RESP, rigid body optimization, SF, symmetry and pop. for TD-DFT, various functionals, SOLVATOR                                   
                                                                         
[Other institutions]                                                     
  V. Asgeirsson          : NEB                                           
  Christoph Bannwarth    : sTDA-DFT, sTD-DFT, PBEh-3c, B97-3c, D3        
  Giovanni Bistoni       : ETS/NOCV, ADLD/ADEX, COVALED                  
  Martin Brehm           : Molecular dynamics                            
  Ronald Cardenas        : ETS/NOCV                                      
  Martina Colucci        : COVALED                                       
  Sebastian Ehlert       : rSCAN, r2SCAN, r2SCAN-3c, D4, dhf basis sets  
  Marvin Friede          : D4 for Fr, Ra, Ac-Lr                          
  Lars Goerigk           : TD-DFT with DH, B97 family of functionals     
  Stefan Grimme          : VdW corrections, initial TS optimization, DFT functionals, gCP, sTDA/sTD-DF 
  Waldemar Hujo          : DFT-NL                                        
  H. Jonsson             : NEB                                           
  Holger Kruse           : gCP                                           
  Marcel Mueller         : wB97X-3c, vDZP basis set                      
  Hagen Neugebauer       : wr2SCAN, Native XTB                           
  Gianluca Regni         : ADLD/ADEX                                     
  Tobias Risthaus        : pre 6.0 range-separated hybrid DFT and stability analysis
  Lukas Wittmann         : regularized MP2, r2SCAN double-hybrids, wr2SCAN        
                                                                         
We gratefully acknowledge several colleagues who have allowed us to      
interface, adapt or use parts of their codes:                            
  Ed Valeev, F. Pavosevic, A. Kumar             : LibInt (2-el integral package), F12 methods 
  Garnet Chan, S. Sharma, J. Yang, R. Olivares  : DMRG                   
  Ulf Ekstrom                                   : XCFun DFT Library      
  Mihaly Kallay                                 : mrcc  (arbitrary order and MRCC methods)
  Frank Weinhold                                : gennbo (NPA and NBO analysis)           
  Simon Mueller                                 : openCOSMO-RS                            
  Christopher J. Cramer and Donald G. Truhlar   : smd solvation model                     
  S Lehtola, MJT Oliveira, MAL Marques          : LibXC Library                           
  Liviu Ungur et al                             : ANISO software                          


 Your calculation uses the libint2 library for the computation of 2-el integrals
 For citations please refer to: http://libint.valeyev.net

 Your ORCA version has been built with support for libXC version: 7.0.0
 For citations please refer to: https://libxc.gitlab.io

 This ORCA versions uses:
   CBLAS   interface :  Fast vector & matrix operations
   LAPACKE interface :  Fast linear algebra routines
   SCALAPACK package :  Parallel linear algebra routines
   Shared memory     :  Shared parallel matrices
   BLAS/LAPACK       :  OpenBLAS 0.3.29  USE64BITINT DYNAMIC_ARCH NO_AFFINITY SkylakeX SINGLE_THREADED
        Core in use  :  SkylakeX
   Copyright (c) 2011-2014, The OpenBLAS Project


  ***********************************
  * Starting time: Thu Mar 12 13:29:50 2026
  * Host name:     midway3-login4.rcc.local
  * Process ID:    3091720
  * Working dir.:  /home/rzhu16/orca_TS_search/sn2_br_cl/DFT_test
  ***********************************

Your calculation utilizes the geometrical counterpoise correction gCP
Please cite in your paper:
H.Kruse, S. Grimme J.Chem.Phys., 136, (2012), 154101 
   

Your calculation utilizes the atom-pairwise dispersion correction
based on EEQ partial charges (D4)


================================================================================

----- Orbital basis set information -----
Your calculation utilizes the basis: def2-mTZVPP
   Stefan Grimme, Andreas Hansen, Sebastian Ehlert, and Jan-Michael Mewes 
   J. Chem. Phys. 154, 064103 (2021). DOI: 10.1063/5.0040021

----- AuxJ basis set information -----
Your calculation utilizes the basis: def2-mTZVPP/J
   Stefan Grimme, Andreas Hansen, Sebastian Ehlert, and Jan-Michael Mewes 
   J. Chem. Phys. 154, 000000 (2021). DOI: 10.1063/5.0040021

================================================================================
                                        WARNINGS
                       Please study these warnings very carefully!
================================================================================



WARNING: SCAN, rSCAN, or r2SCAN functional requested.
  ===> : libXC variant has now been activated.



WARNING: Geometry Optimization
  ===> : Switching off AutoStart
         For restart on a previous wavefunction, please use MOREAD

================================================================================
                                       INPUT FILE
================================================================================
NAME = product_optfreq.inp
|  1> ! r2SCAN-3c Opt Freq PAL8 TightSCF
|  2> 
|  3> %pal
|  4>    nprocs 8
|  5> end
|  6> 
|  7> %scf
|  8>    MaxIter 150
|  9> end
| 10> 
| 11> * xyz -1 1
| 12>   C       0.000124      0.000116      0.330685
| 13>   H       0.000057      1.027249     -0.006451
| 14>   H       0.889648     -0.513549     -0.006452
| 15>   H      -0.889586     -0.513580     -0.006472
| 16>   Br      0.000056      0.000054      2.276458
| 17>   Cl     -0.000010     -0.000011     -2.470696
| 18> *
| 19> 
| 20>                          ****END OF INPUT****
================================================================================

                       *****************************
                       * Geometry Optimization Run *
                       *****************************

Geometry optimization settings:
Update method            Update   .... BFGS
Choice of coordinates    CoordSys .... (2022) Redundant Internals
Initial Hessian          InHess   .... Almloef's Model
Max. no of cycles        MaxIter  .... 50

Convergence Tolerances:
Energy Change            TolE     ....  5.0000e-06 Eh
Max. Gradient            TolMAXG  ....  3.0000e-04 Eh/bohr
RMS Gradient             TolRMSG  ....  1.0000e-04 Eh/bohr
Max. Displacement        TolMAXD  ....  4.0000e-03 bohr
RMS Displacement         TolRMSD  ....  2.0000e-03 bohr
Strict Convergence                .... False

------------------------------------------------------------------------------
                        ORCA OPTIMIZATION COORDINATE SETUP
------------------------------------------------------------------------------

The optimization will be done in redundant internal coordinates (2022)
Making redundant internal coordinates   ...  (2022 redundants) done
Evaluating the initial hessian          ...  (Almloef) done
Evaluating the coordinates              ...  done
Calculating the B-matrix                .... done
Calculating the G-matrix                .... done
The number of degrees of freedom        ....   17

    -----------------------------------------------------------------
                    Redundant Internal Coordinates


    -----------------------------------------------------------------
         Definition                    Initial Value    Approx d2E/dq
    -----------------------------------------------------------------
      1. B(H   1,C   0)                  1.0810         0.372140   
      2. B(H   2,C   0)                  1.0811         0.372075   
      3. B(H   3,C   0)                  1.0813         0.371837   
      4. B(Br  4,C   0)                  1.9458         0.272604   
      5. B(Cl  5,H   2)                  2.6698         0.010000   
      6. B(Cl  5,H   1)                  2.6698         0.010000   
      7. B(Cl  5,H   3)                  2.6697         0.010000   
      8. B(Cl  5,C   0)                  2.8014         0.010000   
      9. A(H   1,C   0,H   3)          110.7382         0.293829   
     10. A(H   2,C   0,H   3)          110.7360         0.293821   
     11. A(H   1,C   0,Br  4)          108.1732         0.328514   
     12. A(H   2,C   0,Br  4)          108.1714         0.328505   
     13. A(H   3,C   0,Br  4)          108.1661         0.328470   
     14. A(H   1,C   0,Cl  5)           71.8312         0.193613   
     15. A(H   2,C   0,Cl  5)           71.8305         0.193609   
     16. A(H   3,C   0,Cl  5)           71.8276         0.193594   
     17. A(H   1,C   0,H   2)          110.7466         0.293859   
    -----------------------------------------------------------------

Number of atoms                         .... 6
Number of degrees of freedom            .... 17


         *************************************************************
         *                GEOMETRY OPTIMIZATION CYCLE   1            *
         *************************************************************
---------------------------------
CARTESIAN COORDINATES (ANGSTROEM)
---------------------------------
  C      0.000124    0.000116    0.330685
  H      0.000057    1.027249   -0.006451
  H      0.889648   -0.513549   -0.006452
  H     -0.889586   -0.513580   -0.006472
  Br     0.000056    0.000054    2.276458
  Cl    -0.000010   -0.000011   -2.470696

----------------------------
CARTESIAN COORDINATES (A.U.)
----------------------------
  NO LB      ZA    FRAG     MASS         X           Y           Z
   0 C     6.0000    0    12.011    0.000234    0.000219    0.624904
   1 H     1.0000    0     1.008    0.000108    1.941219   -0.012191
   2 H     1.0000    0     1.008    1.681191   -0.970467   -0.012193
   3 H     1.0000    0     1.008   -1.681074   -0.970526   -0.012230
   4 Br   35.0000    0    79.900    0.000106    0.000102    4.301882
   5 Cl   17.0000    0    35.453   -0.000019   -0.000021   -4.668939

--------------------------------
INTERNAL COORDINATES (ANGSTROEM)
--------------------------------
 C      0   0   0     0.000000000000     0.00000000     0.00000000
 H      1   0   0     1.081047125094     0.00000000     0.00000000
 H      1   2   0     1.081094831904   110.74663391     0.00000000
 H      1   2   3     1.081268841299   110.73820853   236.75168413
 Br     1   2   3     1.945773002176   108.17321996   118.38154421
 Cl     4   1   2     2.669737533862    85.54052581    61.62704607

---------------------------
INTERNAL COORDINATES (A.U.)
---------------------------
 C      0   0   0     0.000000000000     0.00000000     0.00000000
 H      1   0   0     2.042883004291     0.00000000     0.00000000
 H      1   2   0     2.042973157097   110.74663391     0.00000000
 H      1   2   3     2.043301987198   110.73820853   236.75168413
 Br     1   2   3     3.676978092890   108.17321996   118.38154421
 Cl     4   1   2     5.045072788450    85.54052581    61.62704607

---------------------
BASIS SET INFORMATION
---------------------
There are 4 groups of distinct atoms

 Group   1 Type C   : 11s6p1d contracted to 5s3p1d pattern {62111/411/1}
 Group   2 Type H   : 4s1p contracted to 2s1p pattern {31/1}
 Group   3 Type Br  : 17s13p7d contracted to 6s5p3d pattern {842111/64111/511}
 Group   4 Type Cl  : 14s9p2d contracted to 5s4p2d pattern {73211/6111/11}

Atom   0C    basis set group =>   1
Atom   1H    basis set group =>   2
Atom   2H    basis set group =>   2
Atom   3H    basis set group =>   2
Atom   4Br   basis set group =>   3
Atom   5Cl   basis set group =>   4
---------------------------------
AUXILIARY/J BASIS SET INFORMATION
---------------------------------
There are 4 groups of distinct atoms

 Group   1 Type C   : 8s3p3d contracted to 6s3p3d pattern {311111/111/111}
 Group   2 Type H   : 5s2p1d contracted to 3s1p1d pattern {311/2/1}
 Group   3 Type Br  : 19s5p5d3f1g contracted to 8s4p3d2f1g pattern {121111111/2111/311/21/1}
 Group   4 Type Cl  : 14s5p5d2f contracted to 8s4p3d1f pattern {71111111/2111/311/2}

Atom   0C    basis set group =>   1
Atom   1H    basis set group =>   2
Atom   2H    basis set group =>   2
Atom   3H    basis set group =>   2
Atom   4Br   basis set group =>   3
Atom   5Cl   basis set group =>   4


           ************************************************************
           *        Program running with 8 parallel MPI-processes     *
           *              working on a common directory               *
           ************************************************************
------------------------------------------------------------------------------
                             ORCA STARTUP CALCULATIONS
                           -- RI-GTO INTEGRALS CHOSEN --
------------------------------------------------------------------------------
------------------------------------------------------------------------------
                   ___                                                        
                  /   \      - P O W E R E D   B Y -                         
                 /     \                                                     
                 |  |  |   _    _      __       _____    __    __             
                 |  |  |  | |  | |    /  \     |  _  \  |  |  /  |          
                  \  \/   | |  | |   /    \    | | | |  |  | /  /          
                 / \  \   | |__| |  /  /\  \   | |_| |  |  |/  /          
                |  |  |   |  __  | /  /__\  \  |    /   |      \           
                |  |  |   | |  | | |   __   |  |    \   |  |\   \          
                \     /   | |  | | |  |  |  |  | |\  \  |  | \   \       
                 \___/    |_|  |_| |__|  |__|  |_| \__\ |__|  \__/        
                                                                              
                      - O R C A' S   B I G   F R I E N D -                    
                                      &                                       
                       - I N T E G R A L  F E E D E R -                       
                                                                              
 v1 FN, 2020, v2 2021, v3 2022-2024                                           
------------------------------------------------------------------------------


----------------------
SHARK INTEGRAL PACKAGE
----------------------

Number of atoms                             ...      6
Number of basis functions                   ...     97
Number of shells                            ...     43
Maximum angular momentum                    ...      2
Integral batch strategy                     ... SHARK/LIBINT Hybrid
RI-J (if used) integral strategy            ... SPLIT-RIJ (Revised 2003 algorithm where possible)
Printlevel                                  ...      1
Contraction scheme used                     ... SEGMENTED contraction
Prescreening option                         ... SCHWARTZ
   Thresh                                   ... 2.500e-11
   Tcut                                     ... 2.500e-12
   Tpresel                                  ... 2.500e-12 
Coulomb Range Separation                    ... NOT USED
Exchange Range Separation                   ... NOT USED
Multipole approximations                    ... NOT USED
Finite Nucleus Model                        ... NOT USED
CABS basis                                  ... NOT available
Auxiliary Coulomb fitting basis             ... AVAILABLE
   # of basis functions in Aux-J            ...    163
   # of shells in Aux-J                     ...     61
   Maximum angular momentum in Aux-J        ...      4
Auxiliary J/K fitting basis                 ... NOT available
Auxiliary Correlation fitting basis         ... NOT available
Auxiliary 'external' fitting basis          ... NOT available

Checking pre-screening integrals            ... done (  0.0 sec) Dimension = 43
   => SHARK Basis and OBASIS are compatible. Storing Pre-screening
Shell pair information
Shell pair cut-off parameter TPreSel        ...   2.5e-12
Total number of shell pairs                 ...       946
Shell pairs after pre-screening             ...       863
Total number of primitive shell pairs       ...      4697
Primitive shell pairs kept                  ...      3202
          la=0 lb=0:    223 shell pairs
          la=1 lb=0:    304 shell pairs
          la=1 lb=1:    113 shell pairs
          la=2 lb=0:    120 shell pairs
          la=2 lb=1:     84 shell pairs
          la=2 lb=2:     19 shell pairs

Checking whether 4 symmetric matrices of dimension 97 fit in memory
:Max Core in MB      =   4096.00
 MB in use           =      4.49
 MB left             =   4091.51
 MB needed           =      0.15
 Data fit in memory  = YES
Calculating RI/J V-Matrix + Cholesky decomp.... done (  0.0 sec)
Calculating Nuclear repulsion               ... done (  0.0 sec) ENN=    184.712762793133 Eh

Diagonalization of the overlap matrix:
Smallest eigenvalue                        ... 5.625e-03
Time for diagonalization                   ...    0.001 sec
Threshold for overlap eigenvalues          ... 1.000e-07
Number of eigenvalues below threshold      ... 0
Time for construction of square roots      ...    0.001 sec
Total time needed                          ...    0.003 sec

-------------------
DFT GRID GENERATION
-------------------

General Integration Accuracy     IntAcc      ... 4.388
Radial Grid Type                 RadialGrid  ... OptM3 with GC (2021)
Angular Grid (max. ang.)         AngularGrid ... 4 (Lebedev-302)
Angular grid pruning method      GridPruning ... 4 (adaptive)
Weight generation scheme         WeightScheme... mBecke (2022)
Basis function cutoff            BFCut       ... 1.0000e-11
Integration weight cutoff        WCut        ... 1.0000e-14
Partially contracted basis set               ... off
Rotationally invariant grid construction     ... off
Angular grids for H and He will be reduced by one unit
Core-polarized basis detected: some atoms will have their core
                               angular grid increased.

Total number of grid points                  ...    34579
Total number of batches                      ...      543
Average number of points per batch           ...       63
Average number of grid points per atom       ...     5763
Grids setup in   0.7 sec
Initializing property integral containers    ... done (  0.0 sec)

SHARK setup successfully completed in   0.9 seconds

Maximum memory used throughout the entire STARTUP-calculation: 13.2 MB


           ************************************************************
           *        Program running with 8 parallel MPI-processes     *
           *              working on a common directory               *
           ************************************************************
-------------------------------------------------------------------------------
                                 ORCA GUESS
                   Start orbitals & Density for SCF / CASSCF
-------------------------------------------------------------------------------

------------
SCF SETTINGS
------------
Hamiltonian:
 Density Functional     Method          .... DFT(GTOs)
  Functional kind                       .... Exchange
  Functional name                       .... Re-regularized SCAN exchange by Furness et al
  Functional family                     .... MGGA
  Functional refs                              
    [ 0] J. W. Furness, A. D. Kaplan, J. Ning, J. P. Perdew, and J. Sun.,  J. Phys. Chem. Lett. 11, 8208-8215 (2020), doi: 10.1021/acs.jpclett.0c02405
    [ 1] J. W. Furness, A. D. Kaplan, J. Ning, J. P. Perdew, and J. Sun.,  J. Phys. Chem. Lett. 11, 9248-9248 (2020), doi: 10.1021/acs.jpclett.0c03077
  Functional external parameters        .... 6
    Parameter  0 _c1        =  6.670000e-01 : c1 parameter        
    Parameter  1 _c2        =  8.000000e-01 : c2 parameter        
    Parameter  2 _d         =  1.240000e+00 : d parameter         
    Parameter  3 _k1        =  6.500000e-02 : k1 parameter        
    Parameter  4 _eta       =  1.000000e-03 : eta parameter       
    Parameter  5 _dp2       =  3.610000e-01 : dp2 parameter       
  Functional kind                       .... Correlation
  Functional name                       .... Re-regularized SCAN correlation by Furness et al
  Functional family                     .... MGGA
  Functional refs                              
    [ 0] J. W. Furness, A. D. Kaplan, J. Ning, J. P. Perdew, and J. Sun.,  J. Phys. Chem. Lett. 11, 8208-8215 (2020), doi: 10.1021/acs.jpclett.0c02405
    [ 1] J. W. Furness, A. D. Kaplan, J. Ning, J. P. Perdew, and J. Sun.,  J. Phys. Chem. Lett. 11, 9248-9248 (2020), doi: 10.1021/acs.jpclett.0c03077
  Functional external parameters        .... 1
    Parameter  0 _eta       =  1.000000e-03 : Regularization parameter
 Gradients option       PostSCFGGA      .... off
 RI-approximation to the Coulomb term is turned on
   Number of AuxJ basis functions       .... 163


General Settings:
 Integral files         IntName         .... product_optfreq
 Hartree-Fock type      HFTyp           .... RHF
 Total Charge           Charge          ....   -1
 Multiplicity           Mult            ....    1
 Number of Electrons    NEL             ....   62
 Basis Dimension        Dim             ....   97
 Nuclear Repulsion      ENuc            ....    184.7127627931 Eh

Convergence Acceleration:
 AO-DIIS                CNVDIIS         .... on
   Start iteration      DIISMaxIt       ....    12
   Startup error        DIISStart       ....  0.200000
   # of expansion vecs  DIISMaxEq       ....     5
   Bias factor          DIISBfac        ....   1.050
   Max. coefficient     DIISMaxC        ....  10.000
 MO-DIIS                CNVKDIIS        .... off
 Trust-Rad. Augm. Hess. CNVTRAH         .... auto
   Auto Start mean grad. ratio tolernc. ....  1.125000
   Auto Start start iteration           ....    50
   Auto Start num. interpolation iter.  ....    10
   Max. Number of Micro iterations      ....    24
   Max. Number of Macro iterations      .... Maxiter - #DIIS iter
   Number of Davidson start vectors     ....     2
   Converg. threshold    (grad. norm)   ....   1.000e-05
   Grad. Scal. Fac. for Micro threshold ....   0.100
   Minimum threshold for Micro iter.    ....   1.000e-02
   NR start threshold (gradient norm)   ....   1.000e-04
   Initial trust radius                 ....   0.400
   Minimum AH scaling param. (alpha)    ....   1.000
   Maximum AH scaling param. (alpha)    .... 1000.000
   Quad. conv. algorithm                .... NR
   White noise on init. David. guess    .... on
   Maximum white noise                  ....   0.010
   Pseudo random numbers                .... off
   Inactive MOs                         .... canonical
   Orbital update algorithm             .... Taylor
   Preconditioner                       .... Diag
   Full preconditioner red. dimension   ....   250
   COSX micro iterations for RIJONX calc.... off
 SOSCF                 CNVSOSCF           .... on
   Start iteration     SOSCFMaxIt         ....   150
   Startup grad/error  SOSCFStart         ....  0.003300
   Hessian update      SOSCFHessUp        .... L-BFGS
   Autom. constraints  SOSCFAutoConstrain .... off
 Level Shifting         CNVShift        .... on
   Level shift para.    LevelShift      ....    0.2500
   Turn off err/grad.   ShiftErr        ....    0.0010
 Zerner damping         CNVZerner       .... off
 Static damping         CNVDamp         .... on
   Fraction old density DampFac         ....    0.7000
   Max. Damping (<1)    DampMax         ....    0.9800
   Min. Damping (>=0)   DampMin         ....    0.0000
   Turn off err/grad.   DampErr         ....    0.1000

SCF Procedure:
 Maximum # iterations   MaxIter         ....   150
 SCF integral mode      SCFMode         .... Direct
   Integral package                     .... SHARK and LIBINT hybrid scheme
 Reset frequency        DirectResetFreq ....    20
 Integral Threshold     Thresh          ....  2.500e-11 Eh
 Primitive CutOff       TCut            ....  2.500e-12 Eh

Convergence Tolerance:
 Convergence Check Mode ConvCheckMode   .... Total+1el-Energy
 Convergence forced     ConvForced      .... 0
 Energy Change          TolE            ....  1.000e-08 Eh
 1-El. energy change                    ....  1.000e-05 Eh
 Orbital Gradient       TolG            ....  1.000e-05
 Orbital Rotation angle TolX            ....  1.000e-05
 DIIS Error             TolErr          ....  5.000e-07

------------------------------
INITIAL GUESS: MODEL POTENTIAL
------------------------------
Loading Hartree-Fock densities                     ... done
Calculating cut-offs                               ... done
Initializing the effective Hamiltonian             ... done
Setting up the integral package (SHARK)            ... done
Starting the Coulomb interaction                   ... done (   0.1 sec)
Making the grid                                    ... done (   0.3 sec)
Mapping shells                                     ... done
Starting the XC term evaluation                    ... done (   0.0 sec)
  promolecular density results
     # of electrons  =     60.997304532
     EX              =   -122.605255263
     EC              =     -2.650525203
     EX+EC           =   -125.255780466
Transforming the Hamiltonian                       ... done (   0.0 sec)
Diagonalizing the Hamiltonian                      ... done (   0.1 sec)
Back transforming the eigenvectors                 ... done (   0.0 sec)
Now organizing SCF variables                       ... done
                      ------------------
                      INITIAL GUESS DONE (   0.5 sec)
                      ------------------
             **** ENERGY FILE WAS UPDATED (product_optfreq.en.tmp) ****
Finished Guess after   0.9 sec
Maximum memory used throughout the entire GUESS-calculation: 7.0 MB


           ************************************************************
           *        Program running with 8 parallel MPI-processes     *
           *              working on a common directory               *
           ************************************************************

-------------------------------------------------------------------------------------------
                                      ORCA LEAN-SCF
                              memory conserving SCF solver
-------------------------------------------------------------------------------------------

----------------------------------------D-I-I-S--------------------------------------------
Iteration    Energy (Eh)           Delta-E    RMSDP     MaxDP     DIISErr   Damp  Time(sec)
-------------------------------------------------------------------------------------------
               ***  Starting incremental Fock matrix formation  ***
    1    -3074.1722605625432152     0.00e+00  1.08e-02  1.03e-01  1.99e-01  0.700   0.5
    2    -3074.2279032842907327    -5.56e-02  8.53e-03  6.36e-02  9.51e-02  0.700   0.4
                               ***Turning on AO-DIIS***
    3    -3074.2508162511358023    -2.29e-02  4.35e-03  2.43e-02  3.89e-02  0.700   0.5
    4    -3074.2636521676809025    -1.28e-02  7.63e-03  4.96e-02  2.05e-02  0.000   0.4
    5    -3074.2912983923711181    -2.76e-02  1.49e-03  9.21e-03  9.27e-03  0.000   0.4
                              *** Initializing SOSCF ***
---------------------------------------S-O-S-C-F--------------------------------------
Iteration    Energy (Eh)           Delta-E    RMSDP     MaxDP     MaxGrad    Time(sec)
--------------------------------------------------------------------------------------
    6    -3074.2916446651220213    -3.46e-04  4.74e-04  2.54e-03  2.60e-03     0.4
               *** Restarting incremental Fock matrix formation ***
    7    -3074.2916755273067793    -3.09e-05  6.13e-04  3.90e-03  9.01e-04     0.3
    8    -3074.2916768454761041    -1.32e-06  2.26e-04  1.69e-03  6.50e-04     0.3
    9    -3074.2916834836269118    -6.64e-06  7.09e-05  5.47e-04  7.84e-05     0.3
   10    -3074.2916836110380245    -1.27e-07  1.95e-05  1.86e-04  5.77e-05     0.2
   11    -3074.2916836468921247    -3.59e-08  9.06e-06  7.65e-05  2.10e-05     0.2
   12    -3074.2916836497347504    -2.84e-09  3.42e-06  2.12e-05  7.93e-06     0.2
                 **** Energy Check signals convergence ****

               *****************************************************
               *                     SUCCESS                       *
               *           SCF CONVERGED AFTER  12 CYCLES          *
               *****************************************************

             **** ENERGY FILE WAS UPDATED (product_optfreq.en.tmp) ****

----------------
TOTAL SCF ENERGY
----------------

Total Energy       :      -3074.29168365148553 Eh          -83655.72969 eV

Components:
Nuclear Repulsion  :        184.71276279313258 Eh            5026.28981 eV
Electronic Energy  :      -3259.00444644461822 Eh          -88682.01949 eV
One Electron Energy:      -4651.53479272828372 Eh         -126574.69664 eV
Two Electron Energy:       1392.53034628366549 Eh           37892.67715 eV

Virial components:
Potential Energy   :      -6144.04182627770206 Eh         -167187.87776 eV
Kinetic Energy     :       3069.75014262621607 Eh           83532.14807 eV
Virial Ratio       :          2.00147944973182

DFT components:
N(Alpha)           :       31.000006653581 electrons
N(Beta)            :       31.000006653581 electrons
N(Total)           :       62.000013307161 electrons
E(X)               :     -123.615138577445 Eh       
E(C)               :       -2.675415073814 Eh       
E(XC)              :     -126.290553651260 Eh       

---------------
SCF CONVERGENCE
---------------

  Last Energy change         ...    2.8426e-09  Tolerance :   1.0000e-08
  Last MAX-Density change    ...    2.1172e-05  Tolerance :   1.0000e-07
  Last RMS-Density change    ...    3.4214e-06  Tolerance :   5.0000e-09
  Last DIIS Error            ...    2.6040e-03  Tolerance :   5.0000e-07
  Last Orbital Gradient      ...    7.9304e-06  Tolerance :   1.0000e-05
  Last Orbital Rotation      ...    2.2235e-05  Tolerance :   1.0000e-05


----------------
ORBITAL ENERGIES
----------------

  NO   OCC          E(Eh)            E(eV) 
   0   2.0000    -482.072736    -13117.8660 
   1   2.0000    -100.899267     -2745.6086 
   2   2.0000     -62.144958     -1691.0503 
   3   2.0000     -55.925827     -1521.8191 
   4   2.0000     -55.922460     -1521.7275 
   5   2.0000     -55.922460     -1521.7275 
   6   2.0000      -9.917371      -269.8654 
   7   2.0000      -9.055855      -246.4224 
   8   2.0000      -8.477223      -230.6770 
   9   2.0000      -6.795873      -184.9251 
  10   2.0000      -6.795089      -184.9038 
  11   2.0000      -6.795089      -184.9038 
  12   2.0000      -6.283115      -170.9723 
  13   2.0000      -6.271836      -170.6653 
  14   2.0000      -6.271836      -170.6653 
  15   2.0000      -2.381188       -64.7954 
  16   2.0000      -2.378447       -64.7208 
  17   2.0000      -2.378446       -64.7208 
  18   2.0000      -2.369809       -64.4858 
  19   2.0000      -2.369803       -64.4856 
  20   2.0000      -0.621201       -16.9037 
  21   2.0000      -0.483750       -13.1635 
  22   2.0000      -0.449178       -12.2228 
  23   2.0000      -0.249718        -6.7952 
  24   2.0000      -0.249676        -6.7940 
  25   2.0000      -0.214855        -5.8465 
  26   2.0000      -0.114837        -3.1249 
  27   2.0000      -0.114830        -3.1247 
  28   2.0000      -0.014577        -0.3967 
  29   2.0000      -0.013761        -0.3745 
  30   2.0000      -0.013760        -0.3744 
  31   0.0000       0.138296         3.7632 
  32   0.0000       0.248729         6.7683 
  33   0.0000       0.316495         8.6123 
  34   0.0000       0.316557         8.6140 
  35   0.0000       0.352946         9.6041 
  36   0.0000       0.352950         9.6043 
  37   0.0000       0.356042         9.6884 
  38   0.0000       0.412442        11.2231 
  39   0.0000       0.416310        11.3284 
  40   0.0000       0.416316        11.3285 
  41   0.0000       0.513491        13.9728 
*Only the first 10 virtual orbitals were printed.

                    ********************************
                    * MULLIKEN POPULATION ANALYSIS *
                    ********************************

-----------------------
MULLIKEN ATOMIC CHARGES
-----------------------
   0 C :   -0.360467
   1 H :    0.189356
   2 H :    0.189369
   3 H :    0.189363
   4 Br:   -0.339456
   5 Cl:   -0.868166
Sum of atomic charges:   -1.0000000

--------------------------------
MULLIKEN REDUCED ORBITAL CHARGES
--------------------------------
  0 C s       :     3.294013  s :     3.294013
      pz      :     0.744124  p :     3.039055
      px      :     1.147465
      py      :     1.147466
      dz2     :     0.010568  d :     0.027399
      dxz     :     0.004162
      dyz     :     0.004162
      dx2y2   :     0.004253
      dxy     :     0.004254

  1 H s       :     0.791294  s :     0.791294
      pz      :     0.005234  p :     0.019349
      px      :     0.003543
      py      :     0.010573

  2 H s       :     0.791283  s :     0.791283
      pz      :     0.005233  p :     0.019347
      px      :     0.008813
      py      :     0.005300

  3 H s       :     0.791297  s :     0.791297
      pz      :     0.005232  p :     0.019340
      px      :     0.008811
      py      :     0.005298

  4 Brs       :     7.950364  s :     7.950364
      pz      :     5.363491  p :    17.345736
      px      :     5.991124
      py      :     5.991121
      dz2     :     2.020663  d :    10.043356
      dxz     :     2.011266
      dyz     :     2.011264
      dx2y2   :     2.000082
      dxy     :     2.000082

  5 Cls       :     5.973148  s :     5.973148
      pz      :     3.907824  p :    11.892811
      px      :     3.992492
      py      :     3.992495
      dz2     :     0.001165  d :     0.002207
      dxz     :     0.000513
      dyz     :     0.000513
      dx2y2   :     0.000008
      dxy     :     0.000008



                     *******************************
                     * LOEWDIN POPULATION ANALYSIS *
                     *******************************

----------------------
LOEWDIN ATOMIC CHARGES
----------------------
   0 C :   -0.577317
   1 H :    0.159982
   2 H :    0.159996
   3 H :    0.160029
   4 Br:   -0.081977
   5 Cl:   -0.820714

-------------------------------
LOEWDIN REDUCED ORBITAL CHARGES
-------------------------------
  0 C s       :     3.098412  s :     3.098412
      pz      :     0.985804  p :     3.415793
      px      :     1.214992
      py      :     1.214998
      dz2     :     0.023756  d :     0.063111
      dxz     :     0.009283
      dyz     :     0.009285
      dx2y2   :     0.010393
      dxy     :     0.010394

  1 H s       :     0.792273  s :     0.792273
      pz      :     0.011127  p :     0.047745
      px      :     0.008379
      py      :     0.028239

  2 H s       :     0.792264  s :     0.792264
      pz      :     0.011125  p :     0.047739
      px      :     0.023271
      py      :     0.013343

  3 H s       :     0.792251  s :     0.792251
      pz      :     0.011120  p :     0.047719
      px      :     0.023264
      py      :     0.013335

  4 Brs       :     7.720333  s :     7.720333
      pz      :     5.364973  p :    17.297760
      px      :     5.966395
      py      :     5.966392
      dz2     :     2.036381  d :    10.063883
      dxz     :     2.013663
      dyz     :     2.013661
      dx2y2   :     2.000089
      dxy     :     2.000089

  5 Cls       :     5.951262  s :     5.951262
      pz      :     3.882245  p :    11.863159
      px      :     3.990456
      py      :     3.990458
      dz2     :     0.003240  d :     0.006293
      dxz     :     0.001499
      dyz     :     0.001499
      dx2y2   :     0.000028
      dxy     :     0.000028



                      *****************************
                      * MAYER POPULATION ANALYSIS *
                      *****************************

  NA   - Mulliken gross atomic population
  ZA   - Total nuclear charge
  QA   - Mulliken gross atomic charge
  VA   - Mayer's total valence
  BVA  - Mayer's bonded valence
  FA   - Mayer's free valence

  ATOM       NA         ZA         QA         VA         BVA        FA
  0 C      6.3605     6.0000    -0.3605     3.8544     3.8544    -0.0000
  1 H      0.8106     1.0000     0.1894     0.9492     0.9492    -0.0000
  2 H      0.8106     1.0000     0.1894     0.9492     0.9492    -0.0000
  3 H      0.8106     1.0000     0.1894     0.9493     0.9493    -0.0000
  4 Br    35.3395    35.0000    -0.3395     0.8779     0.8779    -0.0000
  5 Cl    17.8682    17.0000    -0.8682     0.2323     0.2323    -0.0000

  Mayer bond orders larger than 0.100000
B(  0-C ,  1-H ) :   0.9534 B(  0-C ,  2-H ) :   0.9534 B(  0-C ,  3-H ) :   0.9534 
B(  0-C ,  4-Br) :   0.8147 B(  0-C ,  5-Cl) :   0.1794 

-------
TIMINGS
-------

Total SCF time: 0 days 0 hours 0 min 5 sec 

Total time                  ....       5.179 sec
Sum of individual times     ....       4.755 sec  ( 91.8%)

SCF preparation             ....       0.584 sec  ( 11.3%)
Fock matrix formation       ....       3.218 sec  ( 62.1%)
  Startup                   ....       0.101 sec  (  3.1% of F)
  Split-RI-J                ....       0.377 sec  ( 11.7% of F)
  XC integration            ....       2.764 sec  ( 85.9% of F)
    XC Preparation          ....       0.000 sec  (  0.0% of XC)
    Basis function eval.    ....       0.170 sec  (  6.1% of XC)
    Density eval.           ....       0.413 sec  ( 14.9% of XC)
    XC-Functional eval.     ....       0.595 sec  ( 21.5% of XC)
    XC-Potential eval.      ....       0.315 sec  ( 11.4% of XC)
Diagonalization             ....       0.000 sec  (  0.0%)
Density matrix formation    ....       0.193 sec  (  3.7%)
Total Energy calculation    ....       0.019 sec  (  0.4%)
Population analysis         ....       0.086 sec  (  1.7%)
Orbital Transformation      ....       0.087 sec  (  1.7%)
Orbital Orthonormalization  ....       0.000 sec  (  0.0%)
DIIS solution               ....       0.388 sec  (  7.5%)
SOSCF solution              ....       0.180 sec  (  3.5%)
Finished LeanSCF after   5.2 sec

Maximum memory used throughout the entire LEANSCF-calculation: 6.6 MB


           ************************************************************
           *        Program running with 8 parallel MPI-processes     *
           *              working on a common directory               *
           ************************************************************

------------------------------------------------------------------------------
                         ORCA PROPERTY INTEGRAL CALCULATIONS
------------------------------------------------------------------------------

GBWName                                   ... product_optfreq.gbw
Number of atoms                           ...      6
Number of basis functions                 ...     97
Max core memory                           ...   4096 MB

Dipole integrals                          ... YES
Quadrupole integrals                      ...  NO
Linear momentum integrals                 ...  NO
Angular momentum integrals                ...  NO
Higher moments length integrals           ...  NO
Higher moments velocity integrals         ...  NO
Kinetic energy integrals                  ...  NO
GIAO right hand sides                     ...  NO
GIAO dipole derivative integrals          ...  NO
SOC integrals                             ...  NO
EPR diamagnetic integrals (GIAO)          ...  NO
EPR gauge integrals                       ...  NO
Field gradient integrals                  ...  NO (   0 nuclei)
Spin-dipole/Fermi contact integrals       ...  NO (   0 nuclei)
Contact density integrals                 ...  NO (   0 nuclei)
Nucleus-orbit integrals                   ...  NO (   0 nuclei)
Geometric perturbations                   ...  NO (   6 nuclei)

Choice of electric origin   ... Center of mass
Position of electric origin ... (  0.0001,  0.0001,  1.4239) 
Choice of magnetic origin   ... GIAO
Position of magnetic origin ... (  0.0000,  0.0000,  0.0000) 

Calculating integrals                     ... Electric Dipole (Length)     done (  0.1 sec)

Property integrals calculated in   0.1 sec

Maximum memory used throughout the entire PROPINT-calculation: 7.1 MB


-------------------------------------------------------------------------------
                          DFT DISPERSION CORRECTION                            
                                                                               
                                DFTD4 V3.4.0                                   
-------------------------------------------------------------------------------
The R2SCAN3C composite method is recognized
Using three-body term ABC
Active option DFTDOPT                   ...         5   

-------------------------   ----------------
Dispersion correction           -0.001134039
-------------------------   ----------------

------------------   -----------------
gCP correction             0.004171923
------------------   -----------------

-------------------------   --------------------
FINAL SINGLE POINT ENERGY     -3074.288645767436
-------------------------   --------------------



           ************************************************************
           *        Program running with 8 parallel MPI-processes     *
           *              working on a common directory               *
           ************************************************************
------------------------------------------------------------------------------
                         ORCA SCF GRADIENT CALCULATION
------------------------------------------------------------------------------

Nuc. rep. gradient        (SHARK) ... done (  0.0 sec)
HCore & Overlap gradient  (SHARK) ... done (  0.1 sec)
Split-RIJ-J gradient      (SHARK) ... done (  0.6 sec)
XC gradient                       ... done (  0.4 sec)
Dispersion correction             ... done (  0.1 sec)

-------------------
DISPERSION GRADIENT
-------------------

   1   C   :   -0.000000005   -0.000000005    0.000003069
   2   H   :    0.000000001   -0.000001117    0.000005116
   3   H   :   -0.000000968    0.000000560    0.000005117
   4   H   :    0.000000974    0.000000563    0.000005117
   5   Br  :    0.000000001    0.000000001    0.000062091
   6   Cl  :   -0.000000002   -0.000000002   -0.000080510

Difference to translation invariance:
           :    0.0000000000   -0.0000000000    0.0000000000

Difference to rotation invariance:
           :   -0.0000000000    0.0000000000   -0.0000000000

Norm of the Dispersion gradient    ...    0.0001021219
RMS gradient                       ...    0.0000240704
MAX gradient                       ...    0.0000805100
gCP correction                   ... done

------------------
CARTESIAN GRADIENT
------------------

   1   C   :    0.000110069    0.000082153    0.020318510
   2   H   :   -0.000004789   -0.001721465   -0.000065051
   3   H   :   -0.001492429    0.000857239   -0.000085138
   4   H   :    0.001390846    0.000804109   -0.000118231
   5   Br  :   -0.000003405   -0.000002766   -0.030729799
   6   Cl  :   -0.000000292   -0.000019271    0.010679710

Difference to translation invariance:
           :    0.0000000000    0.0000000000    0.0000000002

Difference to rotation invariance:
           :   -0.0000579248   -0.0000001817    0.0000000222

Norm of the Cartesian gradient     ...    0.0384677795
RMS gradient                       ...    0.0090669426
MAX gradient                       ...    0.0307297992

-------
TIMINGS
-------

Total SCF gradient time     ....        1.273 sec

Densities                   ....       0.000 sec  (  0.0%)
One electron gradient       ....       0.067 sec  (  5.3%)
RI-J Coulomb gradient       ....       0.601 sec  ( 47.2%)
XC gradient                 ....       0.408 sec  ( 32.1%)

Maximum memory used throughout the entire SCFGRAD-calculation: 26.8 MB
------------------------------------------------------------------------------
                         ORCA GEOMETRY RELAXATION STEP
------------------------------------------------------------------------------

Reading the OPT-File                    .... done
Getting information on internals        .... done
Copying old internal coords+grads       .... done
Making the new internal coordinates     .... (2022 redundants) done
Validating the new internal coordinates .... (2022 redundants) done
Calculating the B-matrix                .... done
Calculating the G,G- and P matrices     .... done
Transforming gradient to internals      .... done
Projecting the internal gradient        .... done
Number of atoms                         ....   6
Number of internal coordinates          ....  17
Current Energy                          .... -3074.288645767 Eh
Current gradient norm                   ....     0.038467780 Eh/bohr
Maximum allowed component of the step   ....  0.300
Current trust radius                    ....  0.300
Evaluating the initial hessian          ....  (Almloef) done
Projecting the Hessian                  .... done
Forming the augmented Hessian           .... done
Diagonalizing the augmented Hessian     .... done
Last element of RFO vector              ....  0.934398007
Lowest eigenvalues of augmented Hessian:
 -0.005543978  0.012036144  0.045635862  0.045645258  0.196330951
Length of the computed step             ....  0.381240940
Warning: the length of the step is outside the trust region - taking restricted step instead
The input lambda is                     ....     0.009000
   iter:   5  x=    0.002671  g=  518.118267 f(x)=     1.214633
   iter:  10  x=   -0.010290  g=    8.206295 f(x)=     0.003056
The output lambda is                    ....    -0.010300 (13 iterations)
The final length of the internal step   ....  0.300000000
Converting the step to Cartesian space:
 Initial RMS(Int)=    0.0727606875
Transforming coordinates:
 Iter   0:  RMS(Cart)=    0.0443648050 RMS(Int)=    0.0728579537
done
Storing new coordinates                 .... done

                                .--------------------.
          ----------------------|Geometry convergence|-------------------------
          Item                value                   Tolerance       Converged
          ---------------------------------------------------------------------
          RMS gradient        0.0076565501            0.0001000000      NO
          MAX gradient        0.0307297988            0.0003000000      NO
          RMS step            0.0727606875            0.0020000000      NO
          MAX step            0.1560369158            0.0040000000      NO
          -------------------------------------------------------------------------
          ........................................................
          Max(Bonds)      0.0826      Max(Angles)    0.31
          Max(Dihed)        0.00      Max(Improp)    0.00
          ---------------------------------------------------------------------

The optimization has not yet converged - more geometry cycles are needed


    ---------------------------------------------------------------------------
                         Redundant Internal Coordinates
                            (Angstroem and degrees)

        Definition                    Value    dE/dq     Step     New-Value
    ----------------------------------------------------------------------------
     1. B(H   1,C   0)                1.0810 -0.001448  0.0019    1.0830   
     2. B(H   2,C   0)                1.0811 -0.001439  0.0019    1.0830   
     3. B(H   3,C   0)                1.0813 -0.001319  0.0018    1.0830   
     4. B(Br  4,C   0)                1.9458 -0.030730  0.0575    2.0033   
     5. B(Cl  5,H   2)                2.6698 -0.002184  0.0708    2.7406   
     6. B(Cl  5,H   1)                2.6698 -0.002156  0.0705    2.7403   
     7. B(Cl  5,H   3)                2.6697 -0.002184  0.0708    2.7405   
     8. B(Cl  5,C   0)                2.8014 -0.004658  0.0826    2.8840   
     9. A(H   1,C   0,H   3)          110.74  0.001038   -0.28    110.45   
    10. A(H   2,C   0,H   3)          110.74  0.001040   -0.28    110.45   
    11. A(H   1,C   0,Br  4)          108.17 -0.001074    0.30    108.47   
    12. A(H   2,C   0,Br  4)          108.17 -0.001098    0.30    108.47   
    13. A(H   3,C   0,Br  4)          108.17 -0.001117    0.30    108.47   
    14. A(H   1,C   0,Cl  5)           71.83  0.001107   -0.31     71.52   
    15. A(H   2,C   0,Cl  5)           71.83  0.001093   -0.30     71.53   
    16. A(H   3,C   0,Cl  5)           71.83  0.001089   -0.29     71.53   
    17. A(H   1,C   0,H   2)          110.75  0.001049   -0.29    110.46   
    ----------------------------------------------------------------------------

Geometry step timings:
Preparation and reading OPT file:      0.000 s ( 3.013 %)
Internal coordinates            :      0.000 s ( 2.941 %)
B/P matrices and projection     :      0.000 s (11.191 %)
Hessian update/contruction      :      0.001 s (35.940 %)
Making the step                 :      0.000 s (14.275 %)
Converting the step to Cartesian:      0.000 s ( 3.372 %)
Storing new data                :      0.000 s ( 6.528 %)
Checking convergence            :      0.000 s ( 4.161 %)
Final printing                  :      0.000 s (18.221 %)
Total time                      :      0.001 s

Time for energy+gradient        :     10.955 s
Time for complete geometry iter :     11.449 s

         *************************************************************
         *                GEOMETRY OPTIMIZATION CYCLE   2            *
         *************************************************************
---------------------------------
CARTESIAN COORDINATES (ANGSTROEM)
---------------------------------
  C      0.000081    0.000019    0.337853
  H      0.000032    1.027182   -0.005372
  H      0.889650   -0.513679   -0.005259
  H     -0.889525   -0.513645   -0.005245
  Br     0.000057    0.000220    2.341107
  Cl    -0.000005    0.000182   -2.546011

----------------------------
CARTESIAN COORDINATES (A.U.)
----------------------------
  NO LB      ZA    FRAG     MASS         X           Y           Z
   0 C     6.0000    0    12.011    0.000153    0.000037    0.638450
   1 H     1.0000    0     1.008    0.000060    1.941093   -0.010152
   2 H     1.0000    0     1.008    1.681195   -0.970714   -0.009939
   3 H     1.0000    0     1.008   -1.680959   -0.970649   -0.009911
   4 Br   35.0000    0    79.900    0.000107    0.000416    4.424050
   5 Cl   17.0000    0    35.453   -0.000009    0.000344   -4.811264

--------------------------------
INTERNAL COORDINATES (ANGSTROEM)
--------------------------------
 C      0   0   0     0.000000000000     0.00000000     0.00000000
 H      1   0   0     1.082989691877     0.00000000     0.00000000
 H      1   2   0     1.083026023346   110.45677939     0.00000000
 H      1   2   3     1.083036162079   110.45042649   237.51702299
 Br     1   2   3     2.003253599191   108.47125995   118.76170120
 Cl     2   1   3     2.740360720448    86.46700872    61.24083036

---------------------------
INTERNAL COORDINATES (A.U.)
---------------------------
 C      0   0   0     0.000000000000     0.00000000     0.00000000
 H      1   0   0     2.046553923508     0.00000000     0.00000000
 H      1   2   0     2.046622580034   110.45677939     0.00000000
 H      1   2   3     2.046641739463   110.45042649   237.51702299
 Br     1   2   3     3.785600679264   108.47125995   118.76170120
 Cl     2   1   3     5.178531269801    86.46700872    61.24083036



           ************************************************************
           *        Program running with 8 parallel MPI-processes     *
           *              working on a common directory               *
           ************************************************************
------------------------------------------------------------------------------
                   ___                                                        
                  /   \      - P O W E R E D   B Y -                         
                 /     \                                                     
                 |  |  |   _    _      __       _____    __    __             
                 |  |  |  | |  | |    /  \     |  _  \  |  |  /  |          
                  \  \/   | |  | |   /    \    | | | |  |  | /  /          
                 / \  \   | |__| |  /  /\  \   | |_| |  |  |/  /          
                |  |  |   |  __  | /  /__\  \  |    /   |      \           
                |  |  |   | |  | | |   __   |  |    \   |  |\   \          
                \     /   | |  | | |  |  |  |  | |\  \  |  | \   \       
                 \___/    |_|  |_| |__|  |__|  |_| \__\ |__|  \__/        
                                                                              
                      - O R C A' S   B I G   F R I E N D -                    
                                      &                                       
                       - I N T E G R A L  F E E D E R -                       
                                                                              
 v1 FN, 2020, v2 2021, v3 2022-2024                                           
------------------------------------------------------------------------------


----------------------
SHARK INTEGRAL PACKAGE
----------------------

Number of atoms                             ...      6
Number of basis functions                   ...     97
Number of shells                            ...     43
Maximum angular momentum                    ...      2
Integral batch strategy                     ... SHARK/LIBINT Hybrid
RI-J (if used) integral strategy            ... SPLIT-RIJ (Revised 2003 algorithm where possible)
Printlevel                                  ...      1
Contraction scheme used                     ... SEGMENTED contraction
Prescreening option                         ... SCHWARTZ
   Thresh                                   ... 2.500e-11
   Tcut                                     ... 2.500e-12
   Tpresel                                  ... 2.500e-12 
Coulomb Range Separation                    ... NOT USED
Exchange Range Separation                   ... NOT USED
Multipole approximations                    ... NOT USED
Finite Nucleus Model                        ... NOT USED
CABS basis                                  ... NOT available
Auxiliary Coulomb fitting basis             ... AVAILABLE
   # of basis functions in Aux-J            ...    163
   # of shells in Aux-J                     ...     61
   Maximum angular momentum in Aux-J        ...      4
Auxiliary J/K fitting basis                 ... NOT available
Auxiliary Correlation fitting basis         ... NOT available
Auxiliary 'external' fitting basis          ... NOT available

Checking pre-screening integrals            ... done (  0.0 sec) Dimension = 43
   => SHARK Basis and OBASIS are compatible. Storing Pre-screening
Shell pair information
Shell pair cut-off parameter TPreSel        ...   2.5e-12
Total number of shell pairs                 ...       946
Shell pairs after pre-screening             ...       860
Total number of primitive shell pairs       ...      4697
Primitive shell pairs kept                  ...      3175
          la=0 lb=0:    223 shell pairs
          la=1 lb=0:    302 shell pairs
          la=1 lb=1:    113 shell pairs
          la=2 lb=0:    119 shell pairs
          la=2 lb=1:     84 shell pairs
          la=2 lb=2:     19 shell pairs

Checking whether 4 symmetric matrices of dimension 97 fit in memory
:Max Core in MB      =   4096.00
 MB in use           =      4.55
 MB left             =   4091.45
 MB needed           =      0.15
 Data fit in memory  = YES
Calculating RI/J V-Matrix + Cholesky decomp.... done (  0.0 sec)
Calculating Nuclear repulsion               ... done (  0.0 sec) ENN=    179.844341738557 Eh

Diagonalization of the overlap matrix:
Smallest eigenvalue                        ... 5.738e-03
Time for diagonalization                   ...    0.073 sec
Threshold for overlap eigenvalues          ... 1.000e-07
Number of eigenvalues below threshold      ... 0
Time for construction of square roots      ...    0.014 sec
Total time needed                          ...    0.088 sec

-------------------
DFT GRID GENERATION
-------------------

General Integration Accuracy     IntAcc      ... 4.388
Radial Grid Type                 RadialGrid  ... OptM3 with GC (2021)
Angular Grid (max. ang.)         AngularGrid ... 4 (Lebedev-302)
Angular grid pruning method      GridPruning ... 4 (adaptive)
Weight generation scheme         WeightScheme... mBecke (2022)
Basis function cutoff            BFCut       ... 1.0000e-11
Integration weight cutoff        WCut        ... 1.0000e-14
Partially contracted basis set               ... off
Rotationally invariant grid construction     ... off
Angular grids for H and He will be reduced by one unit
Core-polarized basis detected: some atoms will have their core
                               angular grid increased.

Total number of grid points                  ...    34587
Total number of batches                      ...      543
Average number of points per batch           ...       63
Average number of grid points per atom       ...     5764
Grids setup in   0.6 sec
Initializing property integral containers    ... done (  0.0 sec)

SHARK setup successfully completed in   0.9 seconds

Maximum memory used throughout the entire STARTUP-calculation: 13.3 MB


           ************************************************************
           *        Program running with 8 parallel MPI-processes     *
           *              working on a common directory               *
           ************************************************************
Occupation numbers will be reassigned to an Aufbau configuration
             **** ENERGY FILE WAS UPDATED (product_optfreq.en.tmp) ****
Finished Guess after   0.6 sec
Maximum memory used throughout the entire GUESS-calculation: 7.0 MB


           ************************************************************
           *        Program running with 8 parallel MPI-processes     *
           *              working on a common directory               *
           ************************************************************
----------------------------------------D-I-I-S--------------------------------------------
Iteration    Energy (Eh)           Delta-E    RMSDP     MaxDP     DIISErr   Damp  Time(sec)
-------------------------------------------------------------------------------------------
               ***  Starting incremental Fock matrix formation  ***
    1    -3074.2940484038608702     0.00e+00  4.24e-04  1.95e-03  1.07e-02  0.700   0.2
    2    -3074.2942106791092556    -1.62e-04  4.36e-04  2.58e-03  7.83e-03  0.700   0.3
                               ***Turning on AO-DIIS***
    3    -3074.2943306447796203    -1.20e-04  3.73e-04  2.31e-03  5.43e-03  0.700   0.3
    4    -3074.2944143595373134    -8.37e-05  9.61e-04  6.36e-03  4.07e-03  0.000   0.2
                              *** Initializing SOSCF ***
---------------------------------------S-O-S-C-F--------------------------------------
Iteration    Energy (Eh)           Delta-E    RMSDP     MaxDP     MaxGrad    Time(sec)
--------------------------------------------------------------------------------------
    5    -3074.2946110957636847    -1.97e-04  6.56e-05  4.81e-04  4.87e-04     0.2
               *** Restarting incremental Fock matrix formation ***
    6    -3074.2946116363436886    -5.41e-07  6.04e-05  4.49e-04  1.05e-04     0.3
    7    -3074.2946114568967459     1.79e-07  2.51e-05  1.20e-04  2.29e-04     0.4
    8    -3074.2946117780925306    -3.21e-07  4.66e-06  2.87e-05  6.87e-06     0.4
    9    -3074.2946117777064501     3.86e-10  1.99e-06  1.84e-05  5.52e-06     0.6
                 **** Energy Check signals convergence ****

               *****************************************************
               *                     SUCCESS                       *
               *           SCF CONVERGED AFTER   9 CYCLES          *
               *****************************************************

             **** ENERGY FILE WAS UPDATED (product_optfreq.en.tmp) ****

----------------
TOTAL SCF ENERGY
----------------

Total Energy       :      -3074.29461177942085 Eh          -83655.80937 eV

Components:
Nuclear Repulsion  :        179.84434173855698 Eh            4893.81334 eV
Electronic Energy  :      -3254.13895351797782 Eh          -88549.62270 eV
One Electron Energy:      -4641.69597092511049 Eh         -126306.96869 eV
Two Electron Energy:       1387.55701740713243 Eh           37757.34599 eV

Virial components:
Potential Energy   :      -6143.94163232620213 Eh         -167185.15134 eV
Kinetic Energy     :       3069.64702054678128 Eh           83529.34198 eV
Virial Ratio       :          2.00151404744634

DFT components:
N(Alpha)           :       31.000004129178 electrons
N(Beta)            :       31.000004129178 electrons
N(Total)           :       62.000008258356 electrons
E(X)               :     -123.592365567054 Eh       
E(C)               :       -2.672367393765 Eh       
E(XC)              :     -126.264732960819 Eh       

---------------
SCF CONVERGENCE
---------------

  Last Energy change         ...   -3.8608e-10  Tolerance :   1.0000e-08
  Last MAX-Density change    ...    1.8359e-05  Tolerance :   1.0000e-07
  Last RMS-Density change    ...    1.9926e-06  Tolerance :   5.0000e-09
  Last DIIS Error            ...    4.8692e-04  Tolerance :   5.0000e-07
  Last Orbital Gradient      ...    5.5206e-06  Tolerance :   1.0000e-05
  Last Orbital Rotation      ...    1.0926e-05  Tolerance :   1.0000e-05


Total SCF time: 0 days 0 hours 0 min 4 sec 
Finished LeanSCF after   4.1 sec

Maximum memory used throughout the entire LEANSCF-calculation: 6.6 MB


           ************************************************************
           *        Program running with 8 parallel MPI-processes     *
           *              working on a common directory               *
           ************************************************************

------------------------------------------------------------------------------
                         ORCA PROPERTY INTEGRAL CALCULATIONS
------------------------------------------------------------------------------

GBWName                                   ... product_optfreq.gbw
Number of atoms                           ...      6
Number of basis functions                 ...     97
Max core memory                           ...   4096 MB

Dipole integrals                          ... YES
Quadrupole integrals                      ...  NO
Linear momentum integrals                 ...  NO
Angular momentum integrals                ...  NO
Higher moments length integrals           ...  NO
Higher moments velocity integrals         ...  NO
Kinetic energy integrals                  ...  NO
GIAO right hand sides                     ...  NO
GIAO dipole derivative integrals          ...  NO
SOC integrals                             ...  NO
EPR diamagnetic integrals (GIAO)          ...  NO
EPR gauge integrals                       ...  NO
Field gradient integrals                  ...  NO (   0 nuclei)
Spin-dipole/Fermi contact integrals       ...  NO (   0 nuclei)
Contact density integrals                 ...  NO (   0 nuclei)
Nucleus-orbit integrals                   ...  NO (   0 nuclei)
Geometric perturbations                   ...  NO (   6 nuclei)

Choice of electric origin   ... Center of mass
Position of electric origin ... (  0.0001,  0.0003,  1.4614) 
Choice of magnetic origin   ... GIAO
Position of magnetic origin ... (  0.0000,  0.0000,  0.0000) 

Calculating integrals                     ... Electric Dipole (Length)     done (  0.0 sec)

Property integrals calculated in   0.0 sec

Maximum memory used throughout the entire PROPINT-calculation: 7.1 MB


-------------------------------------------------------------------------------
                          DFT DISPERSION CORRECTION                            
                                                                               
                                DFTD4 V3.4.0                                   
-------------------------------------------------------------------------------
-------------------------   ----------------
Dispersion correction           -0.001114938
-------------------------   ----------------

------------------   -----------------
gCP correction             0.003702252
------------------   -----------------

-------------------------   --------------------
FINAL SINGLE POINT ENERGY     -3074.292024465059
-------------------------   --------------------



           ************************************************************
           *        Program running with 8 parallel MPI-processes     *
           *              working on a common directory               *
           ************************************************************
------------------------------------------------------------------------------
                         ORCA SCF GRADIENT CALCULATION
------------------------------------------------------------------------------

Nuc. rep. gradient        (SHARK) ... done (  0.0 sec)
HCore & Overlap gradient  (SHARK) ... done (  0.0 sec)
Split-RIJ-J gradient      (SHARK) ... done (  1.0 sec)
XC gradient                       ... done (  0.2 sec)
Dispersion correction             ... done (  0.1 sec)

-------------------
DISPERSION GRADIENT
-------------------

   1   C   :   -0.000000000   -0.000000005    0.000004235
   2   H   :    0.000000000   -0.000000835    0.000005415
   3   H   :   -0.000000723    0.000000418    0.000005418
   4   H   :    0.000000724    0.000000418    0.000005418
   5   Br  :    0.000000000    0.000000002    0.000060651
   6   Cl  :   -0.000000002    0.000000003   -0.000081137

Difference to translation invariance:
           :   -0.0000000000    0.0000000000    0.0000000000

Difference to rotation invariance:
           :   -0.0000000000    0.0000000000   -0.0000000000

Norm of the Dispersion gradient    ...    0.0001018318
RMS gradient                       ...    0.0000240020
MAX gradient                       ...    0.0000811367
gCP correction                   ... done

------------------
CARTESIAN GRADIENT
------------------

   1   C   :    0.000014002    0.000009766    0.013321295
   2   H   :   -0.000005492   -0.001641165   -0.002477552
   3   H   :   -0.001430530    0.000823460   -0.002488739
   4   H   :    0.001423342    0.000825646   -0.002490632
   5   Br  :   -0.000001325    0.000001555   -0.010917968
   6   Cl  :    0.000000003   -0.000019262    0.005053596

Difference to translation invariance:
           :    0.0000000000   -0.0000000000   -0.0000000003

Difference to rotation invariance:
           :   -0.0000841677   -0.0000000396    0.0000000128

Norm of the Cartesian gradient     ...    0.0186777761
RMS gradient                       ...    0.0044023941
MAX gradient                       ...    0.0133212952

-------
TIMINGS
-------

Total SCF gradient time     ....        1.337 sec

Densities                   ....       0.000 sec  (  0.0%)
One electron gradient       ....       0.017 sec  (  1.3%)
RI-J Coulomb gradient       ....       1.010 sec  ( 75.6%)
XC gradient                 ....       0.212 sec  ( 15.9%)

Maximum memory used throughout the entire SCFGRAD-calculation: 26.8 MB
------------------------------------------------------------------------------
                         ORCA GEOMETRY RELAXATION STEP
------------------------------------------------------------------------------

Reading the OPT-File                    .... done
Getting information on internals        .... done
Copying old internal coords+grads       .... done
Making the new internal coordinates     .... (2022 redundants) done
Validating the new internal coordinates .... (2022 redundants) done
Calculating the B-matrix                .... done
Calculating the G,G- and P matrices     .... done
Transforming gradient to internals      .... done
Projecting the internal gradient        .... done
Number of atoms                         ....   6
Number of internal coordinates          ....  17
Current Energy                          .... -3074.292024465 Eh
Current gradient norm                   ....     0.018677776 Eh/bohr
Maximum allowed component of the step   ....  0.300
Current trust radius                    ....  0.300
Updating the Hessian (BFGS)             .... done
Forming the augmented Hessian           .... done
Diagonalizing the augmented Hessian     .... done
Last element of RFO vector              ....  0.972583498
Lowest eigenvalues of augmented Hessian:
 -0.001364606  0.011529282  0.045635826  0.045645097  0.175959961
Length of the computed step             ....  0.239109495
The final length of the internal step   ....  0.239109495
Converting the step to Cartesian space:
 Initial RMS(Int)=    0.0579925707
Transforming coordinates:
 Iter   0:  RMS(Cart)=    0.0305550729 RMS(Int)=    0.0580438813
done
Storing new coordinates                 .... done
The predicted energy change is          ....    -0.000721312
Previously predicted energy change      ....    -0.002964328
Actually observed energy change         ....    -0.003378698
Ratio of predicted to observed change   ....     1.139785313
New trust radius                        ....     0.450000000

                                .--------------------.
          ----------------------|Geometry convergence|-------------------------
          Item                value                   Tolerance       Converged
          ---------------------------------------------------------------------
          Energy change      -0.0033786976            0.0000050000      NO
          RMS gradient        0.0028206780            0.0001000000      NO
          MAX gradient        0.0109179679            0.0003000000      NO
          RMS step            0.0579925707            0.0020000000      NO
          MAX step            0.1163564937            0.0040000000      NO
          -------------------------------------------------------------------------
          ........................................................
          Max(Bonds)      0.0616      Max(Angles)    0.37
          Max(Dihed)        0.00      Max(Improp)    0.00
          ---------------------------------------------------------------------

The optimization has not yet converged - more geometry cycles are needed


[...]
Magnitude (Debye)      :     10.127202573



--------------------
Rotational spectrum 
--------------------
 
Rotational constants in cm-1:             5.133550             0.026999             0.026999 
Rotational constants in MHz :        153899.949191           809.399165           809.398945 

Dipole components along the rotational axes: 
x,y,z [a.u.] :     3.984267    -0.000003     0.001052 
x,y,z [Debye]:    10.127202    -0.000007     0.002674 

 

Dipole moment calculation done in   0.0 sec 

-----------
SCF HESSIAN
-----------

Occupied/Occupied contributions to the Hessian:
   => Occupied/Occupied contributions              ... done (  0.0 sec)
Perturbed density contributions to the Hessian:
   => Perturbed density contributions              ... done (  0.0 sec)
Explicit contributions to the Hessian:
   => Nuclear repulsion Hessian                    ... done (  0.0 sec)
   => HCore and overlap Hessian                    ... done (  0.2 sec)
   => RI-J Hessian                                 ... done (  1.3 sec)
   => XC-Hessian                                   ... done (  3.2 sec)
   => Van der Waals-Hessian                        ... done (  0.8 sec)
   => GCP-Hessian                                  ... done (  0.0 sec)
   => Explicit contributions done
Dipole derivatives                                 ... done (  0.0 sec)
Mass weighting the Hessian           ... done
Calculating normal modes             ... done
Scaling frequencies                  ... done

-----------------------
VIBRATIONAL FREQUENCIES
-----------------------

Scaling factor for frequencies =  1.000000000  (already applied!)

     0:       0.00 cm**-1
     1:       0.00 cm**-1
     2:       0.00 cm**-1
     3:       0.00 cm**-1
     4:       0.00 cm**-1
     5:       0.00 cm**-1
     6:     109.88 cm**-1
     7:     110.36 cm**-1
     8:     122.39 cm**-1
     9:     372.26 cm**-1
    10:     890.20 cm**-1
    11:     891.02 cm**-1
    12:    1197.06 cm**-1
    13:    1433.23 cm**-1
    14:    1433.31 cm**-1
    15:    3125.55 cm**-1
    16:    3278.95 cm**-1
    17:    3279.78 cm**-1


------------
NORMAL MODES
------------

These modes are the Cartesian displacements weighted by the diagonal matrix
M(i,i)=1/sqrt(m[i]) where m[i] is the mass of the displaced atom
Thus, these vectors are normalized but *not* orthogonal

                  0          1          2          3          4          5    
      0       0.000000   0.000000   0.000000   0.000000   0.000000   0.000000
      1       0.000000   0.000000   0.000000   0.000000   0.000000   0.000000
      2       0.000000   0.000000   0.000000   0.000000   0.000000   0.000000
      3       0.000000   0.000000   0.000000   0.000000   0.000000   0.000000
      4       0.000000   0.000000   0.000000   0.000000   0.000000   0.000000
      5       0.000000   0.000000   0.000000   0.000000   0.000000   0.000000
      6       0.000000   0.000000   0.000000   0.000000   0.000000   0.000000
      7       0.000000   0.000000   0.000000   0.000000   0.000000   0.000000
      8       0.000000   0.000000   0.000000   0.000000   0.000000   0.000000
      9       0.000000   0.000000   0.000000   0.000000   0.000000   0.000000
     10       0.000000   0.000000   0.000000   0.000000   0.000000   0.000000
     11       0.000000   0.000000   0.000000   0.000000   0.000000   0.000000
     12       0.000000   0.000000   0.000000   0.000000   0.000000   0.000000
     13       0.000000   0.000000   0.000000   0.000000   0.000000   0.000000
     14       0.000000   0.000000   0.000000   0.000000   0.000000   0.000000
     15       0.000000   0.000000   0.000000   0.000000   0.000000   0.000000
     16       0.000000   0.000000   0.000000   0.000000   0.000000   0.000000
     17       0.000000   0.000000   0.000000   0.000000   0.000000   0.000000
                  6          7          8          9         10         11    
      0      -0.000009   0.429893  -0.000001   0.000009  -0.000018  -0.091223
      1      -0.429626  -0.000009   0.001478   0.001157  -0.091344   0.000018
      2       0.000569  -0.000005  -0.361473   0.725813   0.000027   0.000001
      3      -0.000012   0.487276   0.000002   0.000004   0.000047   0.184406
      4      -0.498909  -0.000010   0.021875  -0.082387   0.118021  -0.000023
      5      -0.234907  -0.000011  -0.255332   0.380216   0.784213  -0.000157
      6       0.006431   0.493038   0.017430  -0.071838   0.029212   0.133837
      7      -0.487143  -0.009612  -0.008327   0.042487   0.166735   0.029631
      8       0.117695   0.203062  -0.256729   0.380873  -0.390615   0.678317
      9      -0.006448   0.493032  -0.017427   0.071846  -0.029170   0.133830
     10      -0.487143   0.009593  -0.008327   0.042487   0.166723  -0.029697
     11       0.117703  -0.203069  -0.256734   0.380873  -0.390882  -0.678167
     12       0.000001  -0.046772  -0.000004  -0.000002   0.000002   0.008107
     13       0.046745   0.000001  -0.000119  -0.000159   0.008122  -0.000002
     14      -0.000243   0.000001  -0.277902  -0.131974  -0.000035  -0.000000
     15       0.000002  -0.082122   0.000009   0.000000  -0.000000  -0.000219
     16       0.082088   0.000002  -0.000382  -0.000108  -0.000195   0.000000
     17       0.000341   0.000000   0.770625   0.019064  -0.000007  -0.000000
                 12         13         14         15         16         17    
      0      -0.000001   0.076462  -0.000179   0.000001   0.000031   0.098043
      1       0.000114   0.000179   0.076487   0.000206   0.098045  -0.000031
      2      -0.078171  -0.000001   0.000086   0.033660  -0.000164  -0.000001
      3       0.000008  -0.770713   0.001806  -0.000002   0.000009   0.018414
      4       0.151200   0.000277   0.118411   0.559913  -0.787132   0.000246
      5       0.554258   0.000555   0.232853  -0.133628   0.205171  -0.000064
      6       0.129800  -0.104748  -0.385034   0.486735   0.347344  -0.585260
      7      -0.076021  -0.386076  -0.547531  -0.281145  -0.182293   0.348652
      8       0.556102   0.202765  -0.117675  -0.133415  -0.101492   0.176398
      9      -0.129785  -0.102950   0.385517  -0.486740  -0.347714  -0.585045
     10      -0.076021   0.383510  -0.549331  -0.281146  -0.182511  -0.348538
     11       0.556106  -0.203310  -0.116735  -0.133402  -0.101593  -0.176318
     12      -0.000000   0.000698  -0.000002  -0.000000  -0.000000  -0.000167
     13      -0.000013   0.000002   0.000695  -0.000001  -0.000166   0.000000
     14      -0.007793   0.000000   0.000005  -0.000108   0.000000   0.000000
     15      -0.000000   0.000341  -0.000001   0.000000  -0.000000  -0.000089
     16       0.000014   0.000001   0.000341  -0.000001  -0.000090   0.000000
     17      -0.003335   0.000000   0.000004   0.000225  -0.000004   0.000000


-----------
IR SPECTRUM
-----------

 Mode   freq       eps      Int      T**2         TX        TY        TZ
       cm**-1   L/(mol*cm) km/mol    a.u.
----------------------------------------------------------------------------
  6:    109.88   0.001435    7.25  0.004075  (-0.000001 -0.063837  0.000434)
  7:    110.36   0.001434    7.25  0.004056  ( 0.063688 -0.000001  0.000001)
  8:    122.39   0.012595   63.65  0.032112  (-0.000002  0.000094 -0.179199)
  9:    372.26   0.072308  365.41  0.060615  ( 0.000003  0.000065  0.246202)
 10:    890.20   0.000230    1.16  0.000081  ( 0.000002  0.008974 -0.000017)
 11:    891.02   0.000233    1.18  0.000082  ( 0.009032 -0.000002 -0.000000)
 12:   1197.06   0.009631   48.67  0.002511  (-0.000001 -0.000060 -0.050108)
 13:   1433.23   0.001864    9.42  0.000406  (-0.020144 -0.000047  0.000001)
 14:   1433.31   0.001880    9.50  0.000409  ( 0.000047 -0.020233  0.000169)
 15:   3125.55   0.000089    0.45  0.000009  ( 0.000000  0.000115  0.002975)
 16:   3278.95   0.000169    0.86  0.000016  (-0.000001 -0.004013 -0.000063)
 17:   3279.78   0.000174    0.88  0.000017  (-0.004068  0.000001  0.000000)

* The epsilon (eps) is given for a Dirac delta lineshape.
** The dipole moment derivative (T) already includes vibrational overlap.

The first frequency considered to be a vibration is 6
The total number of vibrations considered is 12


--------------------------
THERMOCHEMISTRY AT 298.15K
--------------------------

Temperature         ...   298.15 K
Pressure            ...     1.00 atm
Total Mass          ...   130.39 AMU
Quasi RRHO          ...     True
Cut-Off Frequency   ...     1.00 cm^-1

Throughout the following assumptions are being made:
  (1) The electronic state is orbitally nondegenerate
  (2) There are no thermally accessible electronically excited states
  (3) Hindered rotations indicated by low frequency modes are not
      treated as such but are treated as vibrations and this may
      cause some error
  (4) All equations used are the standard statistical mechanics
      equations for an ideal gas
  (5) All vibrations are strictly harmonic

freq.     109.88  E(vib)   ...       0.45 
freq.     110.36  E(vib)   ...       0.45 
freq.     122.39  E(vib)   ...       0.43 
freq.     372.26  E(vib)   ...       0.21 
freq.     890.20  E(vib)   ...       0.04 
freq.     891.02  E(vib)   ...       0.04 
freq.    1197.06  E(vib)   ...       0.01 
freq.    1433.23  E(vib)   ...       0.00 
freq.    1433.31  E(vib)   ...       0.00 
freq.    3125.55  E(vib)   ...       0.00 
freq.    3278.95  E(vib)   ...       0.00 
freq.    3279.78  E(vib)   ...       0.00 

------------
INNER ENERGY
------------

The inner energy is: U= E(el) + E(ZPE) + E(vib) + E(rot) + E(trans)
    E(el)   - is the total energy from the electronic structure calculation
              = E(kin-el) + E(nuc-el) + E(el-el) + E(nuc-nuc)
    E(ZPE)  - the the zero temperature vibrational energy from the frequency calculation
    E(vib)  - the the finite temperature correction to E(ZPE) due to population
              of excited vibrational states
    E(rot)  - is the rotational thermal energy
    E(trans)- is the translational thermal energy

Summary of contributions to the inner energy U:
Electronic energy                ...  -3074.29339719 Eh
Zero point energy                ...      0.03700654 Eh      23.22 kcal/mol
Thermal vibrational correction   ...      0.00260275 Eh       1.63 kcal/mol
Thermal rotational correction    ...      0.00141627 Eh       0.89 kcal/mol
Thermal translational correction ...      0.00141627 Eh       0.89 kcal/mol
-----------------------------------------------------------------------
Total thermal energy                  -3074.25095535 Eh


Summary of corrections to the electronic energy:
(perhaps to be used in another calculation)
Total thermal correction                  0.00543530 Eh       3.41 kcal/mol
Non-thermal (ZPE) correction              0.03700654 Eh      23.22 kcal/mol
-----------------------------------------------------------------------
Total correction                          0.04244184 Eh      26.63 kcal/mol


--------
ENTHALPY
--------

The enthalpy is H = U + kB*T
                kB is Boltzmann's constant
Total thermal energy              ...  -3074.25095535 Eh 
Thermal Enthalpy correction       ...      0.00094421 Eh       0.59 kcal/mol
-----------------------------------------------------------------------
Total Enthalpy                    ...  -3074.25001114 Eh


Note: Rotational entropy computed according to Herzberg 
Infrared and Raman Spectra, Chapter V,1, Van Nostrand Reinhold, 1945 
Point Group:  Cs, Symmetry Number:   1  
Rotational constants in cm-1:     5.133554     0.026999     0.026999 

Vibrational entropy computed according to the QRRHO of S. Grimme
Chem.Eur.J. 2012 18 9955 using a reference frequency of 100.0 cm-1


-------
ENTROPY
-------

The entropy contributions are T*S = T*(S(el)+S(vib)+S(rot)+S(trans))
     S(el)   - electronic entropy
     S(vib)  - vibrational entropy
     S(rot)  - rotational entropy
     S(trans)- translational entropy
The entropies will be listed as multiplied by the temperature to get
units of energy

Electronic entropy                ...      0.00000000 Eh      0.00 kcal/mol
Vibrational entropy               ...      0.00498661 Eh      3.13 kcal/mol
Rotational entropy                ...      0.01214892 Eh      7.62 kcal/mol
Translational entropy             ...      0.01924704 Eh     12.08 kcal/mol
-----------------------------------------------------------------------
Final entropy term                ...      0.03638257 Eh     22.83 kcal/mol

In case the symmetry of your molecule has not been determined correctly
or in case you have a reason to use a different symmetry number we print 
out the resulting rotational entropy values for sn=1,12:

 non-linear molecules -----------------------------------
|  sn= 1 | S(rot)=       0.01214892 Eh      7.62 kcal/mol|
|  sn= 2 | S(rot)=       0.01149446 Eh      7.21 kcal/mol|
|  sn= 3 | S(rot)=       0.01111163 Eh      6.97 kcal/mol|
|  sn= 4 | S(rot)=       0.01084000 Eh      6.80 kcal/mol|
|  sn= 5 | S(rot)=       0.01062932 Eh      6.67 kcal/mol|
|  sn= 6 | S(rot)=       0.01045717 Eh      6.56 kcal/mol|
|  sn= 7 | S(rot)=       0.01031163 Eh      6.47 kcal/mol|
|  sn= 8 | S(rot)=       0.01018555 Eh      6.39 kcal/mol|
|  sn= 9 | S(rot)=       0.01007434 Eh      6.32 kcal/mol|
|  sn=10 | S(rot)=       0.00997486 Eh      6.26 kcal/mol|
|  sn=11 | S(rot)=       0.00988487 Eh      6.20 kcal/mol|
|  sn=12 | S(rot)=       0.00980272 Eh      6.15 kcal/mol|
 linear molecules ---------------------------------------
|  Dinfh | S(rot)=       0.00873616 Eh      5.48 kcal/mol|
|  Cinfv | S(rot)=       0.00939061 Eh      5.89 kcal/mol|
 --------------------------------------------------------


-------------------
GIBBS FREE ENERGY
-------------------

The Gibbs free energy is G = H - T*S

Total enthalpy                    ...  -3074.25001114 Eh 
Total entropy correction          ...     -0.03638257 Eh    -22.83 kcal/mol
-----------------------------------------------------------------------
Final Gibbs free energy         ...  -3074.28639371 Eh

For completeness - the Gibbs free energy minus the electronic energy
G-E(el)                           ...      0.00700348 Eh      4.39 kcal/mol


Maximum memory used throughout the entire PROP-calculation: 31.0 MB

--------------------------------
SUGGESTED CITATIONS FOR THIS RUN
--------------------------------

Below you find a list of papers that are relevant to this ORCA run
We neither can nor want to force you to cite these papers, but we appreciate if you do
You receive ORCA, which is the product of decades of hard work by many enthusiastic individuals, for free
The only thing we kindly ask in return is that you cite our papers,
We deeply appreciate it, if you show your appreciation for ORCA by not just citing the generic ORCA reference.

Please note that relegating all ORCA citations to the supporting information does *not* help us.
SI sections are not indexed - citations you put there will not count into any citation statistics
But we need these citations in order to attract the funding resources that allow us to do what we are doing

Therefore, if you are a happy ORCA user, please consider citing a few of the papers listed below in the main body of your paper

In addition to the list printed below, the program has created the file product_optfreq.bibtex that contains the list in bibtex format
You can import this file easily into all common literature databanks and citation aid programs


List of essential papers. We consider these as the minimum necessary citations

  1. Grimme, S.; Hansen, A.; Ehlert, S.; Mewes, J.
     r2SCAN-3c: A 'Swiss army knife' composite electronic-structure method
     J. Chem. Phys. 2021 154 , 064103
     doi.org/10.1063/5.0040021
  2. Neese, F.
     Software update: the ORCA program system, version 6.0
     WIRES Comput. Molec. Sci. 2025 15(1), e70019
     doi.org/10.1002/wcms.7019

List of papers to cite with high priority. The work reported in these papers was absolutely
necessary for this run to complete.
Our perspective: the developers of density functionals and basis sets usually get cited in chemistry papers
Good! But without the algorithms to do something with them, the functionals or basis sets would not do anything.
Hence, in our opinion, the algorithm design and method developments papers are equally worthy of getting cited

  1. Neese, F.
     An improvement of the resolution of the identity approximation for the formation of the Coulomb matrix
     J. Comp. Chem. 2003 24(14), 1740-1747
     doi.org/10.1002/jcc.10318
  2. Bykov, D.; Petrenko, T.; Izsak, R.; Kossmann, S.; Becker, U.; Valeev, E.; Neese, F.
     Efficient implementation of the analytic second derivatives of Hartree-Fock and hybrid DFT energies: a detailed analysis of different approximations
     Molec. Phys. 2015 113 , 1961-1977
     doi.org/10.1080/00268976.2015.1025114
  3. Caldeweyher, E.; Bannwarth, C.; Grimme, S.
     Extension of the D3 dispersion coefficient model
     J. Chem. Phys. 2017 147 , 034112
     doi.org/10.1063/1.4993215
  4. Lehtola, S.; Steigemann, C.; Oliveira, M.; Marques, M.
     Recent developments in Libxc - A comprehensive library of functionals for density functional theory
     Software X 2018 7 , 
     doi.org/10.1016/j.softx.2017.11.002
  5. Caldeweyher, E.; Ehlert, S.; Hansen, A.; Neugebauer, H.; Spicher, S.; Bannwarth, C.; Grimme, S.
     A generally applicable atomic-charge dependent London dispersion correction
     J. Chem. Phys. 2019 150 , 154122
     doi.org/10.1063/1.5090222
  6. Caldeweyher, E.; Mewes, J.; Ehlert, S.; Grimme, S.
     Extension and evaluation of the D4 London-dispersion model for periodic systems
     Phys. Chem. Chem. Phys. 2020 22(16), 8499-8512
     doi.org/10.1039/D0CP00502A
  7. Neese, F.
     The SHARK Integral Generation and Digestion System
     J. Comp. Chem. 2022 44(3), 381
     doi.org/10.1002/jcc.26942
  8. Wittmann, L.; Gordiy, I.; Friede, M.; Helmich-Paris, B.; Grimme, S.; Hansen, A.; Bursch, M.
     Extension of the D3 and D4 London Dispersion Corrections to the full Actinides Series
     Phys. Chem. Chem. Phys. 2024 26(32), 21379-21394
     doi.org/10.1039/D4CP01514B

List of suggested additional citations. These are papers that are important in the 'surrounding' of 
of this run, or papers that preceded the highly important papers. If you like your results we are grateful for a citation.

  1. Neese, F.
     The ORCA program system
     WIRES Comput. Molec. Sci. 2012 2(1), 73-78
     doi.org/10.1002/wcms.81
  2. Neese, F.
     Software update: the ORCA program system, version 4.0
     WIRES Comput. Molec. Sci. 2018 8(1), 1-6
     doi.org/10.1002/wcms.1327
  3. Neese, F.; Wennmohs, F.; Becker, U.; Riplinger, C.
     The ORCA quantum chemistry program package
     J. Chem. Phys. 2020 152(22), 224108
     doi.org/10.1063/5.0004608
  4. Neese, F.
     Software update: The ORCA program system—Version 5.0
     WIRES Comput. Molec. Sci. 2022 12(1), e1606
     doi.org/10.1002/wcms.1606

List of optional additional citations

  1. Neese, F.
     Approximate second-order SCF convergence for spin unrestricted wavefunctions
     Chem. Phys. Lett. 2000 325(1-3), 93-98
     doi.org/10.1016/s0009-2614(00)00662-x

Timings for individual modules:

Sum of individual times          ...      103.941 sec (=   1.732 min)
Startup calculation              ...       14.388 sec (=   0.240 min)  13.8 %
SCF iterations                   ...       43.922 sec (=   0.732 min)  42.3 %
Property integrals               ...       16.529 sec (=   0.275 min)  15.9 %
SCF Response                     ...        4.763 sec (=   0.079 min)   4.6 %
Property calculations            ...        6.054 sec (=   0.101 min)   5.8 %
SCF Gradient evaluation          ...       18.260 sec (=   0.304 min)  17.6 %
Geometry relaxation              ...        0.026 sec (=   0.000 min)   0.0 %
                             ****ORCA TERMINATED NORMALLY****
TOTAL RUN TIME: 0 days 0 hours 1 minutes 51 seconds 288 msec
