
                                 *****************
                                 * O   R   C   A *
                                 *****************

                                            #,                                       
                                            ###                                      
                                            ####                                     
                                            #####                                    
                                            ######                                   
                                           ########,                                 
                                     ,,################,,,,,                         
                               ,,#################################,,                 
                          ,,##########################################,,             
                       ,#########################################, ''#####,          
                    ,#############################################,,   '####,        
                  ,##################################################,,,,####,       
                ,###########''''           ''''###############################       
              ,#####''   ,,,,##########,,,,          '''####'''          '####       
            ,##' ,,,,###########################,,,                        '##       
           ' ,,###''''                  '''############,,,                           
         ,,##''                                '''############,,,,        ,,,,,,###''
      ,#''                                            '''#######################'''  
     '                                                          ''''####''''         
             ,#######,   #######,   ,#######,      ##                                
            ,#'     '#,  ##    ##  ,#'     '#,    #''#        ,####,    ,#,          
            ##       ##  ##   ,#'  ##            #'  '#       #'       ,# #          
            ##       ##  #######   ##           ,######,      #####,      #          
            '#,     ,#'  ##    ##  '#,     ,#' ,#      #,     #,   #      #          
             '#######'   ##     ##  '#######'  #'      '#     '####' #    #          



                #########################################################
                #                        -***-                          #
                #          Department of theory and spectroscopy        #
                #                                                       #
                #                      Frank Neese                      #
                #                                                       #
                #     Directorship, Architecture, Infrastructure        #
                #                    SHARK, DRIVERS                     #
                #        Core code/Algorithms in most modules           #
                #                                                       #
                #        Max Planck Institute fuer Kohlenforschung      #
                #                Kaiser Wilhelm Platz 1                 #
                #                 D-45470 Muelheim/Ruhr                 #
                #                      Germany                          #
                #                                                       #
                #                  All rights reserved                  #
                #                        -***-                          #
                #########################################################


                         Program Version 6.1.0  -  RELEASE   -
                                (GIT: $679e74b$)
                          ($2025-06-10 18:02:51 +0200$)


 With contributions from (in alphabetic order):
[Max-Planck-Institut fuer Kohlenforschung]                               
  Daniel Aravena         : Magnetic Suceptibility                        
  Michael Atanasov       : Ab Initio Ligand Field Theory (pilot matlab implementation)
  Alexander A. Auer      : GIAO ZORA, VPT2 properties, NMR spectrum      
  Ute Becker             : All parallelization in ORCA, NUMFREQ, NUMCALC 
  Giovanni Bistoni       : ED, misc. LED, open-shell LED, HFLD           
  Dmytro Bykov           : pre 5.0 version of the SCF Hessian            
  Marcos Casanova-Páez   : Triplet and SCS-CIS(D). UHF-(DLPNO)-IP/EA/STEOM-CCSD. UHF-CVS-IP/STEOM-CCSD   
  Vijay G. Chilkuri      : MRCI spin determinant printing, contributions to CSF-ICE 
  Pauline Colinet        : FMM embedding                                 
  Dipayan Datta          : RHF DLPNO-CCSD density                        
  Achintya Kumar Dutta   : EOM-CC, STEOM-CC                              
  Nicolas Foglia         : Exact transition moments, OPA infrastructure, MCD improvements    
  Dmitry Ganyushin       : Spin-Orbit,Spin-Spin,Magnetic field MRCI      
  Miquel Garcia-Rates    : C-PCM and meta-GGA Hessian, CCSD/C-PCM, Gaussian charge scheme 
  Tiago L. C. Gouveia    : GS-ROHF, GS-ROCIS                             
  Yang Guo               : DLPNO-NEVPT2, F12-NEVPT2, CIM, IAO-localization        
  Andreas Hansen         : Spin unrestricted coupled pair/coupled cluster methods 
  Ingolf Harden          : AUTO-CI MPn and infrastructure                
  Benjamin Helmich-Paris : MC-RPA, TRAH-(SCF,CASSCF), AVAS, COSX integrals, SCF dyn. polar., MC-PDFT, srDFT 
  Lee Huntington         : MR-EOM, pCC                                   
  Robert Izsak           : Overlap fitted RIJCOSX, COSX-SCS-MP3, EOM     
  Riya Kayal             : Wick's Theorem for AUTO-CI, AUTO-CI UHF-CCSDT 
  Emily Kempfer          : AUTO-CI RHF CISDT and CCSDT, approximate NEVPT4
  Christian Kollmar      : KDIIS, OOCD, Brueckner-CCSD(T), CCSD density, CASPT2, CASPT2-K, improved NEVPT2 
  Axel Koslowski         : Symmetry handling                             
  Simone Kossmann        : meta-GGA functionals, TD-DFT gradient, OOMP2, (MP2 Hessian; deprecated post 5.0) 
  Lucas Lang             : DCDCAS, Hyperfine gauge corrections, ICE-SOC+SSC
  Marvin Lechner         : AUTO-CI (C++ implementation), FIC-MRCC        
  Spencer Leger          : CASSCF response                               
  Dagmar Lenk            : GEPOL surface, SMD, ORCA-2-JSON               
  Dimitrios Liakos       : Extrapolation schemes; Compound Job, Property file
  Dimitrios Manganas     : Further ROCIS development; embedding schemes. LFT, Crystal Embedding 
  Dimitrios Pantazis     : SARC Basis sets                               
  Anastasios Papadopoulos: AUTO-CI, single reference methods and gradients 
  Taras Petrenko         : pre 6.0 DFT Hessian and TD-DFT gradient,  ECA, NRVS 
  Petra Pikulova         : Analytic Raman intensities                    
  Peter Pinski           : DLPNO-MP2, DLPNO-MP2 Gradient                 
  Shashank Vittal Rao    : ES-AILFT, MagRelax                            
  Christoph Reimann      : Effective Core Potentials                     
  Marius Retegan         : Local ZFS, SOC                                
  Christoph Riplinger    : Optimizer, TS searches, QM/MM, DLPNO-CCSD(T), (RO)-DLPNO pert. Triples 
  Michael Roemelt        : Original ROCIS implementation, recursive CI coupling coefficients
  Masaaki Saitow         : Open-shell DLPNO-CCSD energy and density      
  Barbara Sandhoefer     : DKH picture change effects                    
  Yorick L. A. Schmerwitz: GMF and freeze-and-release deltaSCF, NEB S-IDPP initial path                    
  Kantharuban Sivalingam : CASSCF convergence/infrastructure, NEVPT2, NEVPT3, NEVPT4(SD), FIC-MRCI and CEPA variants
  Bernardo de Souza      : ESD, SOC TD-DFT                               
  Georgi L. Stoychev     : AutoAux, RI-MP2 NMR, DLPNO-MP2 response, X2C  
  Van Anh Tran           : RI-MP2 g-tensors                              
  Willem Van den Heuvel  : Paramagnetic NMR                              
  Zikuan Wang            : NOTCH, Electric field optimization            
  Frank Wennmohs         : Technical directorship and infrastructure     
  Hang Xu                : AUTO-CI-Response properties                   
                                                                         
[FACCTs GmbH]                                                            
  Markus Bursch, Nicolas Foglia, Miquel Garcia-Rates, Ingolf Harden, Hagen Neugebauer, Anastasios Papadopoulos, 
  Christoph Riplinger, Bernardo de Souza, Georgi L. Stoychev                                                    
                                                                 
  APM, various basis sets, CI-OPT, improved COSX, DLPNO-Multilevel,           
  DOCKER, DRACO, updates on ESD, Fragmentator, GOAT, IRC, LR-CPCM, L-BFGS, MBIS, meta-GGA TD-DFT gradient, ML-optimized integration grids, 
  MM, NACMEs, nearIR, NEB, NEB-TS, NL-DFT gradient (VV10), 2- and 3-layer-ONIOM, interface openCOSMO-RS, QMMM,   
  Crystal-QMMM, RESP, rigid body optimization, SF, symmetry and pop. for TD-DFT, various functionals, SOLVATOR                                   
                                                                         
[Other institutions]                                                     
  V. Asgeirsson          : NEB                                           
  Christoph Bannwarth    : sTDA-DFT, sTD-DFT, PBEh-3c, B97-3c, D3        
  Giovanni Bistoni       : ETS/NOCV, ADLD/ADEX, COVALED                  
  Martin Brehm           : Molecular dynamics                            
  Ronald Cardenas        : ETS/NOCV                                      
  Martina Colucci        : COVALED                                       
  Sebastian Ehlert       : rSCAN, r2SCAN, r2SCAN-3c, D4, dhf basis sets  
  Marvin Friede          : D4 for Fr, Ra, Ac-Lr                          
  Lars Goerigk           : TD-DFT with DH, B97 family of functionals     
  Stefan Grimme          : VdW corrections, initial TS optimization, DFT functionals, gCP, sTDA/sTD-DF 
  Waldemar Hujo          : DFT-NL                                        
  H. Jonsson             : NEB                                           
  Holger Kruse           : gCP                                           
  Marcel Mueller         : wB97X-3c, vDZP basis set                      
  Hagen Neugebauer       : wr2SCAN, Native XTB                           
  Gianluca Regni         : ADLD/ADEX                                     
  Tobias Risthaus        : pre 6.0 range-separated hybrid DFT and stability analysis
  Lukas Wittmann         : regularized MP2, r2SCAN double-hybrids, wr2SCAN        
                                                                         
We gratefully acknowledge several colleagues who have allowed us to      
interface, adapt or use parts of their codes:                            
  Ed Valeev, F. Pavosevic, A. Kumar             : LibInt (2-el integral package), F12 methods 
  Garnet Chan, S. Sharma, J. Yang, R. Olivares  : DMRG                   
  Ulf Ekstrom                                   : XCFun DFT Library      
  Mihaly Kallay                                 : mrcc  (arbitrary order and MRCC methods)
  Frank Weinhold                                : gennbo (NPA and NBO analysis)           
  Simon Mueller                                 : openCOSMO-RS                            
  Christopher J. Cramer and Donald G. Truhlar   : smd solvation model                     
  S Lehtola, MJT Oliveira, MAL Marques          : LibXC Library                           
  Liviu Ungur et al                             : ANISO software                          


 Your calculation uses the libint2 library for the computation of 2-el integrals
 For citations please refer to: http://libint.valeyev.net

 Your ORCA version has been built with support for libXC version: 7.0.0
 For citations please refer to: https://libxc.gitlab.io

 This ORCA versions uses:
   CBLAS   interface :  Fast vector & matrix operations
   LAPACKE interface :  Fast linear algebra routines
   SCALAPACK package :  Parallel linear algebra routines
   Shared memory     :  Shared parallel matrices
   BLAS/LAPACK       :  OpenBLAS 0.3.29  USE64BITINT DYNAMIC_ARCH NO_AFFINITY SkylakeX SINGLE_THREADED
        Core in use  :  SkylakeX
   Copyright (c) 2011-2014, The OpenBLAS Project


  ***********************************
  * Starting time: Thu Mar 12 13:28:03 2026
  * Host name:     midway3-login4.rcc.local
  * Process ID:    3082650
  * Working dir.:  /home/rzhu16/orca_TS_search/sn2_br_cl/DFT_test
  ***********************************

Your calculation utilizes the geometrical counterpoise correction gCP
Please cite in your paper:
H.Kruse, S. Grimme J.Chem.Phys., 136, (2012), 154101 
   

Your calculation utilizes the atom-pairwise dispersion correction
based on EEQ partial charges (D4)


================================================================================

----- Orbital basis set information -----
Your calculation utilizes the basis: def2-mTZVPP
   Stefan Grimme, Andreas Hansen, Sebastian Ehlert, and Jan-Michael Mewes 
   J. Chem. Phys. 154, 064103 (2021). DOI: 10.1063/5.0040021

----- AuxJ basis set information -----
Your calculation utilizes the basis: def2-mTZVPP/J
   Stefan Grimme, Andreas Hansen, Sebastian Ehlert, and Jan-Michael Mewes 
   J. Chem. Phys. 154, 000000 (2021). DOI: 10.1063/5.0040021

================================================================================
                                        WARNINGS
                       Please study these warnings very carefully!
================================================================================



WARNING: SCAN, rSCAN, or r2SCAN functional requested.
  ===> : libXC variant has now been activated.



WARNING: Geometry Optimization
  ===> : Switching off AutoStart
         For restart on a previous wavefunction, please use MOREAD

================================================================================
                                       INPUT FILE
================================================================================
NAME = reactant_optfreq.inp
|  1> ! r2SCAN-3c Opt Freq PAL8 TightSCF
|  2> 
|  3> %pal
|  4>    nprocs 8
|  5> end
|  6> 
|  7> %scf
|  8>    MaxIter 150
|  9> end
| 10> 
| 11> * xyz -1 1
| 12>   C       0.000376     -0.000055     -0.397698
| 13>   H      -0.000080      1.027525     -0.054628
| 14>   H       0.889649     -0.513740     -0.054687
| 15>   H      -0.890170     -0.513947     -0.054546
| 16>   Br      0.000009      0.000007      2.664548
| 17>   Cl     -0.000074     -0.000068     -2.177742
| 18> *
| 19> 
| 20>                          ****END OF INPUT****
================================================================================

                       *****************************
                       * Geometry Optimization Run *
                       *****************************

Geometry optimization settings:
Update method            Update   .... BFGS
Choice of coordinates    CoordSys .... (2022) Redundant Internals
Initial Hessian          InHess   .... Almloef's Model
Max. no of cycles        MaxIter  .... 50

Convergence Tolerances:
Energy Change            TolE     ....  5.0000e-06 Eh
Max. Gradient            TolMAXG  ....  3.0000e-04 Eh/bohr
RMS Gradient             TolRMSG  ....  1.0000e-04 Eh/bohr
Max. Displacement        TolMAXD  ....  4.0000e-03 bohr
RMS Displacement         TolRMSD  ....  2.0000e-03 bohr
Strict Convergence                .... False

------------------------------------------------------------------------------
                        ORCA OPTIMIZATION COORDINATE SETUP
------------------------------------------------------------------------------

The optimization will be done in redundant internal coordinates (2022)
Making redundant internal coordinates   ...  (2022 redundants) done
Evaluating the initial hessian          ...  (Almloef) done
Evaluating the coordinates              ...  done
Calculating the B-matrix                .... done
Calculating the G-matrix                .... done
The number of degrees of freedom        ....   17

    -----------------------------------------------------------------
                    Redundant Internal Coordinates


    -----------------------------------------------------------------
         Definition                    Initial Value    Approx d2E/dq
    -----------------------------------------------------------------
      1. B(H   1,C   0)                  1.0833         0.369024   
      2. B(H   2,C   0)                  1.0827         0.369827   
      3. B(H   3,C   0)                  1.0839         0.368216   
      4. B(Br  4,H   1)                  2.9068         0.010000   
      5. B(Br  4,H   2)                  2.9068         0.010000   
      6. B(Br  4,H   3)                  2.9069         0.010000   
      7. B(Br  4,C   0)                  3.0622         0.010000   
      8. B(Cl  5,C   0)                  1.7800         0.334537   
      9. A(H   1,C   0,H   3)          110.4322         0.292987   
     10. A(H   2,C   0,H   3)          110.4606         0.293088   
     11. A(H   1,C   0,Cl  5)          108.4626         0.333101   
     12. A(H   2,C   0,Cl  5)          108.4817         0.333222   
     13. A(H   3,C   0,Cl  5)          108.4435         0.332980   
     14. A(H   1,C   0,Br  4)           71.5366         0.183480   
     15. A(H   2,C   0,Br  4)           71.5371         0.183526   
     16. A(H   3,C   0,Br  4)           71.5384         0.183433   
     17. A(H   1,C   0,H   2)          110.4894         0.293189   
    -----------------------------------------------------------------

Number of atoms                         .... 6
Number of degrees of freedom            .... 17


         *************************************************************
         *                GEOMETRY OPTIMIZATION CYCLE   1            *
         *************************************************************
---------------------------------
CARTESIAN COORDINATES (ANGSTROEM)
---------------------------------
  C      0.000376   -0.000055   -0.397698
  H     -0.000080    1.027525   -0.054628
  H      0.889649   -0.513740   -0.054687
  H     -0.890170   -0.513947   -0.054546
  Br     0.000009    0.000007    2.664548
  Cl    -0.000074   -0.000068   -2.177742

----------------------------
CARTESIAN COORDINATES (A.U.)
----------------------------
  NO LB      ZA    FRAG     MASS         X           Y           Z
   0 C     6.0000    0    12.011    0.000711   -0.000104   -0.751540
   1 H     1.0000    0     1.008   -0.000151    1.941741   -0.103232
   2 H     1.0000    0     1.008    1.681193   -0.970828   -0.103343
   3 H     1.0000    0     1.008   -1.682178   -0.971219   -0.103077
   4 Br   35.0000    0    79.900    0.000017    0.000013    5.035266
   5 Cl   17.0000    0    35.453   -0.000140   -0.000129   -4.115336

--------------------------------
INTERNAL COORDINATES (ANGSTROEM)
--------------------------------
 C      0   0   0     0.000000000000     0.00000000     0.00000000
 H      1   0   0     1.083336461694     0.00000000     0.00000000
 H      1   2   0     1.082744334492   110.48937022     0.00000000
 H      1   2   3     1.083932867333   110.43219025   122.50897549
 Br     3   1   2     2.906825466868    87.77286207    61.23668379
 Cl     1   2   3     1.780044056928   108.46261985   241.21449024

---------------------------
INTERNAL COORDINATES (A.U.)
---------------------------
 C      0   0   0     0.000000000000     0.00000000     0.00000000
 H      1   0   0     2.047209223493     0.00000000     0.00000000
 H      1   2   0     2.046090265245   110.48937022     0.00000000
 H      1   2   3     2.048336266815   110.43219025   122.50897549
 Br     3   1   2     5.493104051489    87.77286207    61.23668379
 Cl     1   2   3     3.363795773908   108.46261985   241.21449024

---------------------
BASIS SET INFORMATION
---------------------
There are 4 groups of distinct atoms

 Group   1 Type C   : 11s6p1d contracted to 5s3p1d pattern {62111/411/1}
 Group   2 Type H   : 4s1p contracted to 2s1p pattern {31/1}
 Group   3 Type Br  : 17s13p7d contracted to 6s5p3d pattern {842111/64111/511}
 Group   4 Type Cl  : 14s9p2d contracted to 5s4p2d pattern {73211/6111/11}

Atom   0C    basis set group =>   1
Atom   1H    basis set group =>   2
Atom   2H    basis set group =>   2
Atom   3H    basis set group =>   2
Atom   4Br   basis set group =>   3
Atom   5Cl   basis set group =>   4
---------------------------------
AUXILIARY/J BASIS SET INFORMATION
---------------------------------
There are 4 groups of distinct atoms

 Group   1 Type C   : 8s3p3d contracted to 6s3p3d pattern {311111/111/111}
 Group   2 Type H   : 5s2p1d contracted to 3s1p1d pattern {311/2/1}
 Group   3 Type Br  : 19s5p5d3f1g contracted to 8s4p3d2f1g pattern {121111111/2111/311/21/1}
 Group   4 Type Cl  : 14s5p5d2f contracted to 8s4p3d1f pattern {71111111/2111/311/2}

Atom   0C    basis set group =>   1
Atom   1H    basis set group =>   2
Atom   2H    basis set group =>   2
Atom   3H    basis set group =>   2
Atom   4Br   basis set group =>   3
Atom   5Cl   basis set group =>   4


           ************************************************************
           *        Program running with 8 parallel MPI-processes     *
           *              working on a common directory               *
           ************************************************************
------------------------------------------------------------------------------
                             ORCA STARTUP CALCULATIONS
                           -- RI-GTO INTEGRALS CHOSEN --
------------------------------------------------------------------------------
------------------------------------------------------------------------------
                   ___                                                        
                  /   \      - P O W E R E D   B Y -                         
                 /     \                                                     
                 |  |  |   _    _      __       _____    __    __             
                 |  |  |  | |  | |    /  \     |  _  \  |  |  /  |          
                  \  \/   | |  | |   /    \    | | | |  |  | /  /          
                 / \  \   | |__| |  /  /\  \   | |_| |  |  |/  /          
                |  |  |   |  __  | /  /__\  \  |    /   |      \           
                |  |  |   | |  | | |   __   |  |    \   |  |\   \          
                \     /   | |  | | |  |  |  |  | |\  \  |  | \   \       
                 \___/    |_|  |_| |__|  |__|  |_| \__\ |__|  \__/        
                                                                              
                      - O R C A' S   B I G   F R I E N D -                    
                                      &                                       
                       - I N T E G R A L  F E E D E R -                       
                                                                              
 v1 FN, 2020, v2 2021, v3 2022-2024                                           
------------------------------------------------------------------------------


----------------------
SHARK INTEGRAL PACKAGE
----------------------

Number of atoms                             ...      6
Number of basis functions                   ...     97
Number of shells                            ...     43
Maximum angular momentum                    ...      2
Integral batch strategy                     ... SHARK/LIBINT Hybrid
RI-J (if used) integral strategy            ... SPLIT-RIJ (Revised 2003 algorithm where possible)
Printlevel                                  ...      1
Contraction scheme used                     ... SEGMENTED contraction
Prescreening option                         ... SCHWARTZ
   Thresh                                   ... 2.500e-11
   Tcut                                     ... 2.500e-12
   Tpresel                                  ... 2.500e-12 
Coulomb Range Separation                    ... NOT USED
Exchange Range Separation                   ... NOT USED
Multipole approximations                    ... NOT USED
Finite Nucleus Model                        ... NOT USED
CABS basis                                  ... NOT available
Auxiliary Coulomb fitting basis             ... AVAILABLE
   # of basis functions in Aux-J            ...    163
   # of shells in Aux-J                     ...     61
   Maximum angular momentum in Aux-J        ...      4
Auxiliary J/K fitting basis                 ... NOT available
Auxiliary Correlation fitting basis         ... NOT available
Auxiliary 'external' fitting basis          ... NOT available

Checking pre-screening integrals            ... done (  0.1 sec) Dimension = 43
   => SHARK Basis and OBASIS are compatible. Storing Pre-screening
Shell pair information
Shell pair cut-off parameter TPreSel        ...   2.5e-12
Total number of shell pairs                 ...       946
Shell pairs after pre-screening             ...       851
Total number of primitive shell pairs       ...      4697
Primitive shell pairs kept                  ...      3127
          la=0 lb=0:    223 shell pairs
          la=1 lb=0:    295 shell pairs
          la=1 lb=1:    113 shell pairs
          la=2 lb=0:    117 shell pairs
          la=2 lb=1:     84 shell pairs
          la=2 lb=2:     19 shell pairs

Checking whether 4 symmetric matrices of dimension 97 fit in memory
:Max Core in MB      =   4096.00
 MB in use           =      4.46
 MB left             =   4091.54
 MB needed           =      0.15
 Data fit in memory  = YES
Calculating RI/J V-Matrix + Cholesky decomp.... done (  0.0 sec)
Calculating Nuclear repulsion               ... done (  0.0 sec) ENN=    171.876292891132 Eh

Diagonalization of the overlap matrix:
Smallest eigenvalue                        ... 5.871e-03
Time for diagonalization                   ...    0.001 sec
Threshold for overlap eigenvalues          ... 1.000e-07
Number of eigenvalues below threshold      ... 0
Time for construction of square roots      ...    0.001 sec
Total time needed                          ...    0.002 sec

-------------------
DFT GRID GENERATION
-------------------

General Integration Accuracy     IntAcc      ... 4.388
Radial Grid Type                 RadialGrid  ... OptM3 with GC (2021)
Angular Grid (max. ang.)         AngularGrid ... 4 (Lebedev-302)
Angular grid pruning method      GridPruning ... 4 (adaptive)
Weight generation scheme         WeightScheme... mBecke (2022)
Basis function cutoff            BFCut       ... 1.0000e-11
Integration weight cutoff        WCut        ... 1.0000e-14
Partially contracted basis set               ... off
Rotationally invariant grid construction     ... off
Angular grids for H and He will be reduced by one unit
Core-polarized basis detected: some atoms will have their core
                               angular grid increased.

Total number of grid points                  ...    34591
Total number of batches                      ...      544
Average number of points per batch           ...       63
Average number of grid points per atom       ...     5765
Grids setup in   0.5 sec
Initializing property integral containers    ... done (  0.0 sec)

SHARK setup successfully completed in   0.9 seconds

Maximum memory used throughout the entire STARTUP-calculation: 13.2 MB


           ************************************************************
           *        Program running with 8 parallel MPI-processes     *
           *              working on a common directory               *
           ************************************************************
-------------------------------------------------------------------------------
                                 ORCA GUESS
                   Start orbitals & Density for SCF / CASSCF
-------------------------------------------------------------------------------

------------
SCF SETTINGS
------------
Hamiltonian:
 Density Functional     Method          .... DFT(GTOs)
  Functional kind                       .... Exchange
  Functional name                       .... Re-regularized SCAN exchange by Furness et al
  Functional family                     .... MGGA
  Functional refs                              
    [ 0] J. W. Furness, A. D. Kaplan, J. Ning, J. P. Perdew, and J. Sun.,  J. Phys. Chem. Lett. 11, 8208-8215 (2020), doi: 10.1021/acs.jpclett.0c02405
    [ 1] J. W. Furness, A. D. Kaplan, J. Ning, J. P. Perdew, and J. Sun.,  J. Phys. Chem. Lett. 11, 9248-9248 (2020), doi: 10.1021/acs.jpclett.0c03077
  Functional external parameters        .... 6
    Parameter  0 _c1        =  6.670000e-01 : c1 parameter        
    Parameter  1 _c2        =  8.000000e-01 : c2 parameter        
    Parameter  2 _d         =  1.240000e+00 : d parameter         
    Parameter  3 _k1        =  6.500000e-02 : k1 parameter        
    Parameter  4 _eta       =  1.000000e-03 : eta parameter       
    Parameter  5 _dp2       =  3.610000e-01 : dp2 parameter       
  Functional kind                       .... Correlation
  Functional name                       .... Re-regularized SCAN correlation by Furness et al
  Functional family                     .... MGGA
  Functional refs                              
    [ 0] J. W. Furness, A. D. Kaplan, J. Ning, J. P. Perdew, and J. Sun.,  J. Phys. Chem. Lett. 11, 8208-8215 (2020), doi: 10.1021/acs.jpclett.0c02405
    [ 1] J. W. Furness, A. D. Kaplan, J. Ning, J. P. Perdew, and J. Sun.,  J. Phys. Chem. Lett. 11, 9248-9248 (2020), doi: 10.1021/acs.jpclett.0c03077
  Functional external parameters        .... 1
    Parameter  0 _eta       =  1.000000e-03 : Regularization parameter
 Gradients option       PostSCFGGA      .... off
 RI-approximation to the Coulomb term is turned on
   Number of AuxJ basis functions       .... 163


General Settings:
 Integral files         IntName         .... reactant_optfreq
 Hartree-Fock type      HFTyp           .... RHF
 Total Charge           Charge          ....   -1
 Multiplicity           Mult            ....    1
 Number of Electrons    NEL             ....   62
 Basis Dimension        Dim             ....   97
 Nuclear Repulsion      ENuc            ....    171.8762928911 Eh

Convergence Acceleration:
 AO-DIIS                CNVDIIS         .... on
   Start iteration      DIISMaxIt       ....    12
   Startup error        DIISStart       ....  0.200000
   # of expansion vecs  DIISMaxEq       ....     5
   Bias factor          DIISBfac        ....   1.050
   Max. coefficient     DIISMaxC        ....  10.000
 MO-DIIS                CNVKDIIS        .... off
 Trust-Rad. Augm. Hess. CNVTRAH         .... auto
   Auto Start mean grad. ratio tolernc. ....  1.125000
   Auto Start start iteration           ....    50
   Auto Start num. interpolation iter.  ....    10
   Max. Number of Micro iterations      ....    24
   Max. Number of Macro iterations      .... Maxiter - #DIIS iter
   Number of Davidson start vectors     ....     2
   Converg. threshold    (grad. norm)   ....   1.000e-05
   Grad. Scal. Fac. for Micro threshold ....   0.100
   Minimum threshold for Micro iter.    ....   1.000e-02
   NR start threshold (gradient norm)   ....   1.000e-04
   Initial trust radius                 ....   0.400
   Minimum AH scaling param. (alpha)    ....   1.000
   Maximum AH scaling param. (alpha)    .... 1000.000
   Quad. conv. algorithm                .... NR
   White noise on init. David. guess    .... on
   Maximum white noise                  ....   0.010
   Pseudo random numbers                .... off
   Inactive MOs                         .... canonical
   Orbital update algorithm             .... Taylor
   Preconditioner                       .... Diag
   Full preconditioner red. dimension   ....   250
   COSX micro iterations for RIJONX calc.... off
 SOSCF                 CNVSOSCF           .... on
   Start iteration     SOSCFMaxIt         ....   150
   Startup grad/error  SOSCFStart         ....  0.003300
   Hessian update      SOSCFHessUp        .... L-BFGS
   Autom. constraints  SOSCFAutoConstrain .... off
 Level Shifting         CNVShift        .... on
   Level shift para.    LevelShift      ....    0.2500
   Turn off err/grad.   ShiftErr        ....    0.0010
 Zerner damping         CNVZerner       .... off
 Static damping         CNVDamp         .... on
   Fraction old density DampFac         ....    0.7000
   Max. Damping (<1)    DampMax         ....    0.9800
   Min. Damping (>=0)   DampMin         ....    0.0000
   Turn off err/grad.   DampErr         ....    0.1000

SCF Procedure:
 Maximum # iterations   MaxIter         ....   150
 SCF integral mode      SCFMode         .... Direct
   Integral package                     .... SHARK and LIBINT hybrid scheme
 Reset frequency        DirectResetFreq ....    20
 Integral Threshold     Thresh          ....  2.500e-11 Eh
 Primitive CutOff       TCut            ....  2.500e-12 Eh

Convergence Tolerance:
 Convergence Check Mode ConvCheckMode   .... Total+1el-Energy
 Convergence forced     ConvForced      .... 0
 Energy Change          TolE            ....  1.000e-08 Eh
 1-El. energy change                    ....  1.000e-05 Eh
 Orbital Gradient       TolG            ....  1.000e-05
 Orbital Rotation angle TolX            ....  1.000e-05
 DIIS Error             TolErr          ....  5.000e-07

------------------------------
INITIAL GUESS: MODEL POTENTIAL
------------------------------
Loading Hartree-Fock densities                     ... done
Calculating cut-offs                               ... done
Initializing the effective Hamiltonian             ... done
Setting up the integral package (SHARK)            ... done
Starting the Coulomb interaction                   ... done (   0.1 sec)
Making the grid                                    ... done (   0.2 sec)
Mapping shells                                     ... done
Starting the XC term evaluation                    ... done (   0.1 sec)
  promolecular density results
     # of electrons  =     60.997286549
     EX              =   -122.613059264
     EC              =     -2.650694292
     EX+EC           =   -125.263753556
Transforming the Hamiltonian                       ... done (   0.0 sec)
Diagonalizing the Hamiltonian                      ... done (   0.0 sec)
Back transforming the eigenvectors                 ... done (   0.0 sec)
Now organizing SCF variables                       ... done
                      ------------------
                      INITIAL GUESS DONE (   0.4 sec)
                      ------------------
             **** ENERGY FILE WAS UPDATED (reactant_optfreq.en.tmp) ****
Finished Guess after   0.7 sec
Maximum memory used throughout the entire GUESS-calculation: 7.0 MB


           ************************************************************
           *        Program running with 8 parallel MPI-processes     *
           *              working on a common directory               *
           ************************************************************

-------------------------------------------------------------------------------------------
                                      ORCA LEAN-SCF
                              memory conserving SCF solver
-------------------------------------------------------------------------------------------

----------------------------------------D-I-I-S--------------------------------------------
Iteration    Energy (Eh)           Delta-E    RMSDP     MaxDP     DIISErr   Damp  Time(sec)
-------------------------------------------------------------------------------------------
               ***  Starting incremental Fock matrix formation  ***
    1    -3074.2150575462565030     0.00e+00  9.58e-03  9.32e-02  1.59e-01  0.700   0.4
    2    -3074.2541265181325798    -3.91e-02  8.01e-03  6.29e-02  7.80e-02  0.700   0.3
                               ***Turning on AO-DIIS***
    3    -3074.2720920358547119    -1.80e-02  4.36e-03  3.08e-02  3.80e-02  0.700   0.3
    4    -3074.2823407116065937    -1.02e-02  7.46e-03  5.65e-02  1.88e-02  0.000   0.3
    5    -3074.3037323305493373    -2.14e-02  1.28e-03  9.67e-03  7.54e-03  0.000   0.2
                              *** Initializing SOSCF ***
---------------------------------------S-O-S-C-F--------------------------------------
Iteration    Energy (Eh)           Delta-E    RMSDP     MaxDP     MaxGrad    Time(sec)
--------------------------------------------------------------------------------------
    6    -3074.3039522935455352    -2.20e-04  3.32e-04  2.37e-03  1.45e-03     0.4
               *** Restarting incremental Fock matrix formation ***
    7    -3074.3039657513190832    -1.35e-05  2.58e-04  1.31e-03  3.46e-04     0.4
    8    -3074.3039667525467848    -1.00e-06  8.95e-05  9.58e-04  2.39e-04     0.4
    9    -3074.3039675479990365    -7.95e-07  3.20e-05  2.29e-04  8.04e-05     0.3
   10    -3074.3039675861136857    -3.81e-08  1.08e-05  9.38e-05  4.37e-05     0.2
   11    -3074.3039676005419096    -1.44e-08  4.67e-06  3.80e-05  1.52e-05     0.1
   12    -3074.3039676003813838     1.61e-10  2.11e-06  1.02e-05  1.19e-05     0.3
                 **** Energy Check signals convergence ****

               *****************************************************
               *                     SUCCESS                       *
               *           SCF CONVERGED AFTER  12 CYCLES          *
               *****************************************************

             **** ENERGY FILE WAS UPDATED (reactant_optfreq.en.tmp) ****

----------------
TOTAL SCF ENERGY
----------------

Total Energy       :      -3074.30396760372514 Eh          -83656.06395 eV

Components:
Nuclear Repulsion  :        171.87629289113175 Eh            4676.99170 eV
Electronic Energy  :      -3246.18026049485707 Eh          -88333.05565 eV
One Electron Energy:      -4627.73798110550706 Eh         -125927.15248 eV
Two Electron Energy:       1381.55772061064977 Eh           37594.09682 eV

Virial components:
Potential Energy   :      -6144.06146120319318 Eh         -167188.41205 eV
Kinetic Energy     :       3069.75749359946758 Eh           83532.34810 eV
Virial Ratio       :          2.00148105314955

DFT components:
N(Alpha)           :       30.999997441610 electrons
N(Beta)            :       30.999997441610 electrons
N(Total)           :       61.999994883219 electrons
E(X)               :     -123.610241949553 Eh       
E(C)               :       -2.674336176745 Eh       
E(XC)              :     -126.284578126299 Eh       

---------------
SCF CONVERGENCE
---------------

  Last Energy change         ...   -1.6053e-10  Tolerance :   1.0000e-08
  Last MAX-Density change    ...    1.0218e-05  Tolerance :   1.0000e-07
  Last RMS-Density change    ...    2.1087e-06  Tolerance :   5.0000e-09
  Last DIIS Error            ...    1.4527e-03  Tolerance :   5.0000e-07
  Last Orbital Gradient      ...    1.1869e-05  Tolerance :   1.0000e-05
  Last Orbital Rotation      ...    1.1585e-05  Tolerance :   1.0000e-05


----------------
ORBITAL ENERGIES
----------------

  NO   OCC          E(Eh)            E(eV) 
   0   2.0000    -481.935232    -13114.1244 
   1   2.0000    -101.065957     -2750.1445 
   2   2.0000     -62.008134     -1687.3271 
   3   2.0000     -55.786854     -1518.0375 
   4   2.0000     -55.786806     -1518.0362 
   5   2.0000     -55.786806     -1518.0362 
   6   2.0000      -9.928572      -270.1702 
   7   2.0000      -9.223046      -250.9718 
   8   2.0000      -8.339746      -226.9360 
   9   2.0000      -6.968798      -189.6306 
  10   2.0000      -6.959179      -189.3689 
  11   2.0000      -6.959178      -189.3689 
  12   2.0000      -6.138414      -167.0347 
  13   2.0000      -6.138029      -167.0243 
  14   2.0000      -6.138029      -167.0243 
  15   2.0000      -2.238207       -60.9047 
  16   2.0000      -2.238131       -60.9026 
  17   2.0000      -2.238131       -60.9026 
  18   2.0000      -2.237808       -60.8938 
  19   2.0000      -2.237807       -60.8938 
  20   2.0000      -0.676374       -18.4051 
  21   2.0000      -0.491241       -13.3673 
  22   2.0000      -0.433154       -11.7867 
  23   2.0000      -0.265449        -7.2232 
  24   2.0000      -0.265250        -7.2178 
  25   2.0000      -0.246918        -6.7190 
  26   2.0000      -0.134192        -3.6516 
  27   2.0000      -0.134138        -3.6501 
  28   2.0000      -0.015351        -0.4177 
  29   2.0000      -0.015062        -0.4098 
  30   2.0000      -0.015059        -0.4098 
  31   0.0000       0.164200         4.4681 
  32   0.0000       0.238534         6.4908 
  33   0.0000       0.314359         8.5541 
  34   0.0000       0.314720         8.5640 
  35   0.0000       0.341741         9.2992 
  36   0.0000       0.341801         9.3009 
  37   0.0000       0.377261        10.2658 
  38   0.0000       0.421092        11.4585 
  39   0.0000       0.473361        12.8808 
  40   0.0000       0.477801        13.0016 
  41   0.0000       0.477807        13.0018 
*Only the first 10 virtual orbitals were printed.

                    ********************************
                    * MULLIKEN POPULATION ANALYSIS *
                    ********************************

-----------------------
MULLIKEN ATOMIC CHARGES
-----------------------
   0 C :   -0.319309
   1 H :    0.179367
   2 H :    0.179405
   3 H :    0.179308
   4 Br:   -0.915825
   5 Cl:   -0.302946
Sum of atomic charges:   -1.0000000

--------------------------------
MULLIKEN REDUCED ORBITAL CHARGES
--------------------------------
  0 C s       :     3.291473  s :     3.291473
      pz      :     0.723295  p :     2.995336
      px      :     1.136019
      py      :     1.136022
      dz2     :     0.012465  d :     0.032500
      dxz     :     0.005723
      dyz     :     0.005723
      dx2y2   :     0.004294
      dxy     :     0.004294

  1 H s       :     0.801617  s :     0.801617
      pz      :     0.004769  p :     0.019016
      px      :     0.003577
      py      :     0.010670

  2 H s       :     0.801555  s :     0.801555
      pz      :     0.004775  p :     0.019040
      px      :     0.008905
      py      :     0.005360

  3 H s       :     0.801699  s :     0.801699
      pz      :     0.004763  p :     0.018993
      px      :     0.008890
      py      :     0.005341

  4 Brs       :     7.982124  s :     7.982124
      pz      :     5.942183  p :    17.932160
      px      :     5.994989
      py      :     5.994988
      dz2     :     2.000842  d :    10.001542
      dxz     :     2.000346
      dyz     :     2.000346
      dx2y2   :     2.000004
      dxy     :     2.000004

  5 Cls       :     5.930859  s :     5.930859
      pz      :     3.354866  p :    11.321659
      px      :     3.983396
      py      :     3.983398
      dz2     :     0.020217  d :     0.050428
      dxz     :     0.014922
      dyz     :     0.014923
      dx2y2   :     0.000183
      dxy     :     0.000183



                     *******************************
                     * LOEWDIN POPULATION ANALYSIS *
                     *******************************

----------------------
LOEWDIN ATOMIC CHARGES
----------------------
   0 C :   -0.497135
   1 H :    0.158273
   2 H :    0.158176
   3 H :    0.158366
   4 Br:   -0.866522
   5 Cl:   -0.111158

-------------------------------
LOEWDIN REDUCED ORBITAL CHARGES
-------------------------------
  0 C s       :     3.060792  s :     3.060792
      pz      :     0.968774  p :     3.359836
      px      :     1.195530
      py      :     1.195532
      dz2     :     0.028818  d :     0.076507
      dxz     :     0.013304
      dyz     :     0.013304
      dx2y2   :     0.010540
      dxy     :     0.010540

  1 H s       :     0.795755  s :     0.795755
      pz      :     0.009797  p :     0.045971
      px      :     0.008309
      py      :     0.027865

  2 H s       :     0.795784  s :     0.795784
      pz      :     0.009815  p :     0.046040
      px      :     0.022999
      py      :     0.013226

  3 H s       :     0.795732  s :     0.795732
      pz      :     0.009779  p :     0.045902
      px      :     0.022953
      py      :     0.013171

  4 Brs       :     7.963665  s :     7.963665
      pz      :     5.914443  p :    17.901050
      px      :     5.993303
      py      :     5.993303
      dz2     :     2.000863  d :    10.001808
      dxz     :     2.000465
      dyz     :     2.000465
      dx2y2   :     2.000007
      dxy     :     2.000007

  5 Cls       :     5.700179  s :     5.700179
      pz      :     3.383597  p :    11.302363
      px      :     3.959383
      py      :     3.959383
      dz2     :     0.052724  d :     0.108617
      dxz     :     0.027698
      dyz     :     0.027698
      dx2y2   :     0.000248
      dxy     :     0.000248



                      *****************************
                      * MAYER POPULATION ANALYSIS *
                      *****************************

  NA   - Mulliken gross atomic population
  ZA   - Total nuclear charge
  QA   - Mulliken gross atomic charge
  VA   - Mayer's total valence
  BVA  - Mayer's bonded valence
  FA   - Mayer's free valence

  ATOM       NA         ZA         QA         VA         BVA        FA
  0 C      6.3193     6.0000    -0.3193     3.8793     3.8793     0.0000
  1 H      0.8206     1.0000     0.1794     0.9498     0.9498    -0.0000
  2 H      0.8206     1.0000     0.1794     0.9498     0.9498     0.0000
  3 H      0.8207     1.0000     0.1793     0.9499     0.9499     0.0000
  4 Br    35.9158    35.0000    -0.9158     0.1511     0.1511     0.0000
  5 Cl    17.3029    17.0000    -0.3029     0.9207     0.9207    -0.0000

  Mayer bond orders larger than 0.100000
B(  0-C ,  1-H ) :   0.9545 B(  0-C ,  2-H ) :   0.9545 B(  0-C ,  3-H ) :   0.9546 
B(  0-C ,  4-Br) :   0.1319 B(  0-C ,  5-Cl) :   0.8838 

-------
TIMINGS
-------

Total SCF time: 0 days 0 hours 0 min 4 sec 

Total time                  ....       4.620 sec
Sum of individual times     ....       4.013 sec  ( 86.8%)

SCF preparation             ....       0.511 sec  ( 11.1%)
Fock matrix formation       ....       2.612 sec  ( 56.5%)
  Startup                   ....       0.010 sec  (  0.4% of F)
  Split-RI-J                ....       0.508 sec  ( 19.5% of F)
  XC integration            ....       2.174 sec  ( 83.2% of F)
    XC Preparation          ....       0.000 sec  (  0.0% of XC)
    Basis function eval.    ....       0.415 sec  ( 19.1% of XC)
    Density eval.           ....       0.355 sec  ( 16.4% of XC)
    XC-Functional eval.     ....       0.255 sec  ( 11.7% of XC)
    XC-Potential eval.      ....       0.304 sec  ( 14.0% of XC)
Diagonalization             ....       0.000 sec  (  0.0%)
Density matrix formation    ....       0.132 sec  (  2.9%)
Total Energy calculation    ....       0.081 sec  (  1.7%)
Population analysis         ....       0.011 sec  (  0.2%)
Orbital Transformation      ....       0.012 sec  (  0.3%)
Orbital Orthonormalization  ....       0.000 sec  (  0.0%)
DIIS solution               ....       0.348 sec  (  7.5%)
SOSCF solution              ....       0.306 sec  (  6.6%)
Finished LeanSCF after   4.6 sec

Maximum memory used throughout the entire LEANSCF-calculation: 6.6 MB


           ************************************************************
           *        Program running with 8 parallel MPI-processes     *
           *              working on a common directory               *
           ************************************************************

------------------------------------------------------------------------------
                         ORCA PROPERTY INTEGRAL CALCULATIONS
------------------------------------------------------------------------------

GBWName                                   ... reactant_optfreq.gbw
Number of atoms                           ...      6
Number of basis functions                 ...     97
Max core memory                           ...   4096 MB

Dipole integrals                          ... YES
Quadrupole integrals                      ...  NO
Linear momentum integrals                 ...  NO
Angular momentum integrals                ...  NO
Higher moments length integrals           ...  NO
Higher moments velocity integrals         ...  NO
Kinetic energy integrals                  ...  NO
GIAO right hand sides                     ...  NO
GIAO dipole derivative integrals          ...  NO
SOC integrals                             ...  NO
EPR diamagnetic integrals (GIAO)          ...  NO
EPR gauge integrals                       ...  NO
Field gradient integrals                  ...  NO (   0 nuclei)
Spin-dipole/Fermi contact integrals       ...  NO (   0 nuclei)
Contact density integrals                 ...  NO (   0 nuclei)
Nucleus-orbit integrals                   ...  NO (   0 nuclei)
Geometric perturbations                   ...  NO (   6 nuclei)

Choice of electric origin   ... Center of mass
Position of electric origin ... (  0.0000, -0.0000,  1.8949) 
Choice of magnetic origin   ... GIAO
Position of magnetic origin ... (  0.0000,  0.0000,  0.0000) 

Calculating integrals                     ... Electric Dipole (Length)     done (  0.0 sec)

Property integrals calculated in   0.0 sec

Maximum memory used throughout the entire PROPINT-calculation: 7.1 MB


-------------------------------------------------------------------------------
                          DFT DISPERSION CORRECTION                            
                                                                               
                                DFTD4 V3.4.0                                   
-------------------------------------------------------------------------------
The R2SCAN3C composite method is recognized
Using three-body term ABC
Active option DFTDOPT                   ...         5   

-------------------------   ----------------
Dispersion correction           -0.001101091
-------------------------   ----------------

------------------   -----------------
gCP correction             0.005746688
------------------   -----------------

-------------------------   --------------------
FINAL SINGLE POINT ENERGY     -3074.299322006033
-------------------------   --------------------



           ************************************************************
           *        Program running with 8 parallel MPI-processes     *
           *              working on a common directory               *
           ************************************************************
------------------------------------------------------------------------------
                         ORCA SCF GRADIENT CALCULATION
------------------------------------------------------------------------------

Nuc. rep. gradient        (SHARK) ... done (  0.0 sec)
HCore & Overlap gradient  (SHARK) ... done (  0.0 sec)
Split-RIJ-J gradient      (SHARK) ... done (  1.1 sec)
XC gradient                       ... done (  0.4 sec)
Dispersion correction             ... done (  0.1 sec)

-------------------
DISPERSION GRADIENT
-------------------

   1   C   :   -0.000000049   -0.000000001   -0.000010724
   2   H   :    0.000000003   -0.000001114   -0.000005939
   3   H   :   -0.000000942    0.000000545   -0.000005933
   4   H   :    0.000000989    0.000000569   -0.000005947
   5   Br  :   -0.000000000    0.000000002    0.000087275
   6   Cl  :   -0.000000001   -0.000000001   -0.000058732

Difference to translation invariance:
           :    0.0000000000   -0.0000000000   -0.0000000000

Difference to rotation invariance:
           :    0.0000000000   -0.0000000000    0.0000000000

Norm of the Dispersion gradient    ...    0.0001062587
RMS gradient                       ...    0.0000250454
MAX gradient                       ...    0.0000872748
gCP correction                   ... done

------------------
CARTESIAN GRADIENT
------------------

   1   C   :    0.000743237   -0.000023103   -0.017553011
   2   H   :   -0.000035072   -0.001276341   -0.002966167
   3   H   :   -0.001460315    0.000831530   -0.003077922
   4   H   :    0.000780612    0.000479600   -0.002857655
   5   Br  :   -0.000001848   -0.000012840   -0.007108460
   6   Cl  :   -0.000026614    0.000001153    0.033563215

Difference to translation invariance:
           :   -0.0000000000   -0.0000000000   -0.0000000002

Difference to rotation invariance:
           :    0.0000570763    0.0000000555   -0.0000000285

Norm of the Cartesian gradient     ...    0.0389539881
RMS gradient                       ...    0.0091815430
MAX gradient                       ...    0.0335632152

-------
TIMINGS
-------

Total SCF gradient time     ....        1.693 sec

Densities                   ....       0.000 sec  (  0.0%)
One electron gradient       ....       0.009 sec  (  0.6%)
RI-J Coulomb gradient       ....       1.086 sec  ( 64.1%)
XC gradient                 ....       0.404 sec  ( 23.8%)

Maximum memory used throughout the entire SCFGRAD-calculation: 26.8 MB
------------------------------------------------------------------------------
                         ORCA GEOMETRY RELAXATION STEP
------------------------------------------------------------------------------

Reading the OPT-File                    .... done
Getting information on internals        .... done
Copying old internal coords+grads       .... done
Making the new internal coordinates     .... (2022 redundants) done
Validating the new internal coordinates .... (2022 redundants) done
Calculating the B-matrix                .... done
Calculating the G,G- and P matrices     .... done
Transforming gradient to internals      .... done
Projecting the internal gradient        .... done
Number of atoms                         ....   6
Number of internal coordinates          ....  17
Current Energy                          .... -3074.299322006 Eh
Current gradient norm                   ....     0.038953988 Eh/bohr
Maximum allowed component of the step   ....  0.300
Current trust radius                    ....  0.300
Evaluating the initial hessian          ....  (Almloef) done
Projecting the Hessian                  .... done
Forming the augmented Hessian           .... done
Diagonalizing the augmented Hessian     .... done
Last element of RFO vector              ....  0.963702297
Lowest eigenvalues of augmented Hessian:
 -0.004589442  0.010944224  0.043433729  0.043477869  0.196167875
Length of the computed step             ....  0.277034910
The final length of the internal step   ....  0.277034910
Converting the step to Cartesian space:
 Initial RMS(Int)=    0.0671908351
Transforming coordinates:
 Iter   0:  RMS(Cart)=    0.0419988418 RMS(Int)=    0.0672552510
done
Storing new coordinates                 .... done

                                .--------------------.
          ----------------------|Geometry convergence|-------------------------
          Item                value                   Tolerance       Converged
          ---------------------------------------------------------------------
          RMS gradient        0.0084361093            0.0001000000      NO
          MAX gradient        0.0335632074            0.0003000000      NO
          RMS step            0.0671908351            0.0020000000      NO
          MAX step            0.1510378616            0.0040000000      NO
          -------------------------------------------------------------------------
          ........................................................
          Max(Bonds)      0.0799      Max(Angles)    0.62
          Max(Dihed)        0.00      Max(Improp)    0.00
          ---------------------------------------------------------------------

The optimization has not yet converged - more geometry cycles are needed


    ---------------------------------------------------------------------------
                         Redundant Internal Coordinates
                            (Angstroem and degrees)

        Definition                    Value    dE/dq     Step     New-Value
    ----------------------------------------------------------------------------
     1. B(H   1,C   0)                1.0833 -0.002126  0.0029    1.0863   
     2. B(H   2,C   0)                1.0827 -0.002543  0.0035    1.0863   
     3. B(H   3,C   0)                1.0839 -0.001747  0.0024    1.0864   
     4. B(Br  4,H   1)                2.9068 -0.000640  0.0633    2.9701   
     5. B(Br  4,H   2)                2.9068 -0.000656  0.0635    2.9703   
     6. B(Br  4,H   3)                2.9069 -0.000656  0.0635    2.9703   
     7. B(Br  4,C   0)                3.0622 -0.005283  0.0799    3.1422   
     8. B(Cl  5,C   0)                1.7800 -0.033563  0.0524    1.8324   
     9. A(H   1,C   0,H   3)          110.43  0.002009   -0.58    109.86   
    10. A(H   2,C   0,H   3)          110.46  0.002068   -0.59    109.87   
    11. A(H   1,C   0,Cl  5)          108.46 -0.002130    0.61    109.07   
    12. A(H   2,C   0,Cl  5)          108.48 -0.002076    0.60    109.08   
    13. A(H   3,C   0,Cl  5)          108.44 -0.002210    0.62    109.06   
    14. A(H   1,C   0,Br  4)           71.54  0.002143   -0.61     70.92   
    15. A(H   2,C   0,Br  4)           71.54  0.002145   -0.61     70.93   
    16. A(H   3,C   0,Br  4)           71.54  0.002127   -0.60     70.94   
    17. A(H   1,C   0,H   2)          110.49  0.002093   -0.59    109.90   
    ----------------------------------------------------------------------------

Geometry step timings:
Preparation and reading OPT file:      0.000 s ( 2.552 %)
Internal coordinates            :      0.000 s ( 3.420 %)
B/P matrices and projection     :      0.000 s ( 9.852 %)
Hessian update/contruction      :      0.001 s (37.621 %)
Making the step                 :      0.000 s ( 9.750 %)
Converting the step to Cartesian:      0.000 s ( 3.063 %)
Storing new data                :      0.000 s ( 6.687 %)
Checking convergence            :      0.000 s ( 4.849 %)
Final printing                  :      0.000 s (21.899 %)
Total time                      :      0.002 s

Time for energy+gradient        :     10.682 s
Time for complete geometry iter :     11.477 s

         *************************************************************
         *                GEOMETRY OPTIMIZATION CYCLE   2            *
         *************************************************************
---------------------------------
CARTESIAN COORDINATES (ANGSTROEM)
---------------------------------
  C      0.000086   -0.000084   -0.408201
  H     -0.000236    1.026569   -0.053237
  H      0.889094   -0.513586   -0.053264
  H     -0.889174   -0.513359   -0.053342
  Br     0.000031    0.000130    2.733908
  Cl    -0.000090    0.000054   -2.240617

----------------------------
CARTESIAN COORDINATES (A.U.)
----------------------------
  NO LB      ZA    FRAG     MASS         X           Y           Z
   0 C     6.0000    0    12.011    0.000162   -0.000159   -0.771387
   1 H     1.0000    0     1.008   -0.000446    1.939934   -0.100603
   2 H     1.0000    0     1.008    1.680143   -0.970538   -0.100655
   3 H     1.0000    0     1.008   -1.680296   -0.970108   -0.100802
   4 Br   35.0000    0    79.900    0.000059    0.000245    5.166337
   5 Cl   17.0000    0    35.453   -0.000171    0.000101   -4.234153

--------------------------------
INTERNAL COORDINATES (ANGSTROEM)
--------------------------------
 C      0   0   0     0.000000000000     0.00000000     0.00000000
 H      1   0   0     1.086285368781     0.00000000     0.00000000
 H      1   2   0     1.086277682024   109.89144531     0.00000000
 H      1   2   3     1.086350996579   109.84991526   120.98765019
 Br     2   1   3     2.970143309926    88.85519908   299.52109328
 Cl     1   2   3     1.832416518255   109.06844331   240.47204211

---------------------------
INTERNAL COORDINATES (A.U.)
---------------------------
 C      0   0   0     0.000000000000     0.00000000     0.00000000
 H      1   0   0     2.052781850282     0.00000000     0.00000000
 H      1   2   0     2.052767324416   109.89144531     0.00000000
 H      1   2   3     2.052905868846   109.84991526   120.98765019
 Br     2   1   3     5.612757434259    88.85519908   299.52109328
 Cl     1   2   3     3.462765382775   109.06844331   240.47204211



           ************************************************************
           *        Program running with 8 parallel MPI-processes     *
           *              working on a common directory               *
           ************************************************************
------------------------------------------------------------------------------
                   ___                                                        
                  /   \      - P O W E R E D   B Y -                         
                 /     \                                                     
                 |  |  |   _    _      __       _____    __    __             
                 |  |  |  | |  | |    /  \     |  _  \  |  |  /  |          
                  \  \/   | |  | |   /    \    | | | |  |  | /  /          
                 / \  \   | |__| |  /  /\  \   | |_| |  |  |/  /          
                |  |  |   |  __  | /  /__\  \  |    /   |      \           
                |  |  |   | |  | | |   __   |  |    \   |  |\   \          
                \     /   | |  | | |  |  |  |  | |\  \  |  | \   \       
                 \___/    |_|  |_| |__|  |__|  |_| \__\ |__|  \__/        
                                                                              
                      - O R C A' S   B I G   F R I E N D -                    
                                      &                                       
                       - I N T E G R A L  F E E D E R -                       
                                                                              
 v1 FN, 2020, v2 2021, v3 2022-2024                                           
------------------------------------------------------------------------------


----------------------
SHARK INTEGRAL PACKAGE
----------------------

Number of atoms                             ...      6
Number of basis functions                   ...     97
Number of shells                            ...     43
Maximum angular momentum                    ...      2
Integral batch strategy                     ... SHARK/LIBINT Hybrid
RI-J (if used) integral strategy            ... SPLIT-RIJ (Revised 2003 algorithm where possible)
Printlevel                                  ...      1
Contraction scheme used                     ... SEGMENTED contraction
Prescreening option                         ... SCHWARTZ
   Thresh                                   ... 2.500e-11
   Tcut                                     ... 2.500e-12
   Tpresel                                  ... 2.500e-12 
Coulomb Range Separation                    ... NOT USED
Exchange Range Separation                   ... NOT USED
Multipole approximations                    ... NOT USED
Finite Nucleus Model                        ... NOT USED
CABS basis                                  ... NOT available
Auxiliary Coulomb fitting basis             ... AVAILABLE
   # of basis functions in Aux-J            ...    163
   # of shells in Aux-J                     ...     61
   Maximum angular momentum in Aux-J        ...      4
Auxiliary J/K fitting basis                 ... NOT available
Auxiliary Correlation fitting basis         ... NOT available
Auxiliary 'external' fitting basis          ... NOT available

Checking pre-screening integrals            ... done (  0.0 sec) Dimension = 43
   => SHARK Basis and OBASIS are compatible. Storing Pre-screening
Shell pair information
Shell pair cut-off parameter TPreSel        ...   2.5e-12
Total number of shell pairs                 ...       946
Shell pairs after pre-screening             ...       846
Total number of primitive shell pairs       ...      4697
Primitive shell pairs kept                  ...      3093
          la=0 lb=0:    223 shell pairs
          la=1 lb=0:    295 shell pairs
          la=1 lb=1:    110 shell pairs
          la=2 lb=0:    116 shell pairs
          la=2 lb=1:     83 shell pairs
          la=2 lb=2:     19 shell pairs

Checking whether 4 symmetric matrices of dimension 97 fit in memory
:Max Core in MB      =   4096.00
 MB in use           =      4.53
 MB left             =   4091.47
 MB needed           =      0.15
 Data fit in memory  = YES
Calculating RI/J V-Matrix + Cholesky decomp.... done (  0.0 sec)
Calculating Nuclear repulsion               ... done (  0.0 sec) ENN=    167.654770489816 Eh

Diagonalization of the overlap matrix:
Smallest eigenvalue                        ... 6.031e-03
Time for diagonalization                   ...    0.001 sec
Threshold for overlap eigenvalues          ... 1.000e-07
Number of eigenvalues below threshold      ... 0
Time for construction of square roots      ...    0.001 sec
Total time needed                          ...    0.002 sec

-------------------
DFT GRID GENERATION
-------------------

General Integration Accuracy     IntAcc      ... 4.388
Radial Grid Type                 RadialGrid  ... OptM3 with GC (2021)
Angular Grid (max. ang.)         AngularGrid ... 4 (Lebedev-302)
Angular grid pruning method      GridPruning ... 4 (adaptive)
Weight generation scheme         WeightScheme... mBecke (2022)
Basis function cutoff            BFCut       ... 1.0000e-11
Integration weight cutoff        WCut        ... 1.0000e-14
Partially contracted basis set               ... off
Rotationally invariant grid construction     ... off
Angular grids for H and He will be reduced by one unit
Core-polarized basis detected: some atoms will have their core
                               angular grid increased.

Total number of grid points                  ...    34601
Total number of batches                      ...      545
Average number of points per batch           ...       63
Average number of grid points per atom       ...     5767
Grids setup in   0.6 sec
Initializing property integral containers    ... done (  0.0 sec)

SHARK setup successfully completed in   0.8 seconds

Maximum memory used throughout the entire STARTUP-calculation: 13.3 MB


           ************************************************************
           *        Program running with 8 parallel MPI-processes     *
           *              working on a common directory               *
           ************************************************************
Occupation numbers will be reassigned to an Aufbau configuration
             **** ENERGY FILE WAS UPDATED (reactant_optfreq.en.tmp) ****
Finished Guess after   0.3 sec
Maximum memory used throughout the entire GUESS-calculation: 7.0 MB


           ************************************************************
           *        Program running with 8 parallel MPI-processes     *
           *              working on a common directory               *
           ************************************************************
----------------------------------------D-I-I-S--------------------------------------------
Iteration    Energy (Eh)           Delta-E    RMSDP     MaxDP     DIISErr   Damp  Time(sec)
-------------------------------------------------------------------------------------------
               ***  Starting incremental Fock matrix formation  ***
    1    -3074.3057923386586481     0.00e+00  3.74e-04  2.17e-03  1.10e-02  0.700   0.4
    2    -3074.3059717629807892    -1.79e-04  3.59e-04  1.86e-03  7.96e-03  0.700   0.2
                               ***Turning on AO-DIIS***
    3    -3074.3061004917103674    -1.29e-04  3.00e-04  1.49e-03  5.49e-03  0.700   0.1
    4    -3074.3061897544271233    -8.93e-05  7.60e-04  3.82e-03  4.08e-03  0.000   0.4
                              *** Initializing SOSCF ***
---------------------------------------S-O-S-C-F--------------------------------------
Iteration    Energy (Eh)           Delta-E    RMSDP     MaxDP     MaxGrad    Time(sec)
--------------------------------------------------------------------------------------
    5    -3074.3063992562820204    -2.10e-04  5.49e-05  3.21e-04  6.08e-04     0.2
               *** Restarting incremental Fock matrix formation ***
    6    -3074.3064000510166807    -7.95e-07  4.87e-05  3.79e-04  8.14e-05     0.1
    7    -3074.3063999719397543     7.91e-08  1.78e-05  1.07e-04  1.67e-04     0.2
    8    -3074.3064001534139607    -1.81e-07  4.82e-06  3.40e-05  8.48e-06     0.4
    9    -3074.3064001524817286     9.32e-10  1.95e-06  1.79e-05  5.46e-06     0.5
                 **** Energy Check signals convergence ****

               *****************************************************
               *                     SUCCESS                       *
               *           SCF CONVERGED AFTER   9 CYCLES          *
               *****************************************************

             **** ENERGY FILE WAS UPDATED (reactant_optfreq.en.tmp) ****

----------------
TOTAL SCF ENERGY
----------------

Total Energy       :      -3074.30640015515064 Eh          -83656.13014 eV

Components:
Nuclear Repulsion  :        167.65477048981646 Eh            4562.11824 eV
Electronic Energy  :      -3241.96117064496684 Eh          -88218.24838 eV
One Electron Energy:      -4619.19859167284358 Eh         -125694.78388 eV
Two Electron Energy:       1377.23742102787651 Eh           37476.53550 eV

Virial components:
Potential Energy   :      -6143.95675351114460 Eh         -167185.56281 eV
Kinetic Energy     :       3069.65035335599396 Eh           83529.43267 eV
Virial Ratio       :          2.00151680037242

DFT components:
N(Alpha)           :       30.999995665238 electrons
N(Beta)            :       30.999995665238 electrons
N(Total)           :       61.999991330476 electrons
E(X)               :     -123.586182943423 Eh       
E(C)               :       -2.671572133122 Eh       
E(XC)              :     -126.257755076545 Eh       

---------------
SCF CONVERGENCE
---------------

  Last Energy change         ...   -9.3223e-10  Tolerance :   1.0000e-08
  Last MAX-Density change    ...    1.7899e-05  Tolerance :   1.0000e-07
  Last RMS-Density change    ...    1.9455e-06  Tolerance :   5.0000e-09
  Last DIIS Error            ...    6.0786e-04  Tolerance :   5.0000e-07
  Last Orbital Gradient      ...    5.4604e-06  Tolerance :   1.0000e-05
  Last Orbital Rotation      ...    1.2231e-05  Tolerance :   1.0000e-05


Total SCF time: 0 days 0 hours 0 min 3 sec 
Finished LeanSCF after   3.7 sec

Maximum memory used throughout the entire LEANSCF-calculation: 6.5 MB


           ************************************************************
           *        Program running with 8 parallel MPI-processes     *
           *              working on a common directory               *
           ************************************************************

------------------------------------------------------------------------------
                         ORCA PROPERTY INTEGRAL CALCULATIONS
------------------------------------------------------------------------------

GBWName                                   ... reactant_optfreq.gbw
Number of atoms                           ...      6
Number of basis functions                 ...     97
Max core memory                           ...   4096 MB

Dipole integrals                          ... YES
Quadrupole integrals                      ...  NO
Linear momentum integrals                 ...  NO
Angular momentum integrals                ...  NO
Higher moments length integrals           ...  NO
Higher moments velocity integrals         ...  NO
Kinetic energy integrals                  ...  NO
GIAO right hand sides                     ...  NO
GIAO dipole derivative integrals          ...  NO
SOC integrals                             ...  NO
EPR diamagnetic integrals (GIAO)          ...  NO
EPR gauge integrals                       ...  NO
Field gradient integrals                  ...  NO (   0 nuclei)
Spin-dipole/Fermi contact integrals       ...  NO (   0 nuclei)
Contact density integrals                 ...  NO (   0 nuclei)
Nucleus-orbit integrals                   ...  NO (   0 nuclei)
Geometric perturbations                   ...  NO (   6 nuclei)

Choice of electric origin   ... Center of mass
Position of electric origin ... (  0.0000,  0.0002,  1.9412) 
Choice of magnetic origin   ... GIAO
Position of magnetic origin ... (  0.0000,  0.0000,  0.0000) 

Calculating integrals                     ... Electric Dipole (Length)     done (  0.0 sec)

Property integrals calculated in   0.0 sec

Maximum memory used throughout the entire PROPINT-calculation: 7.1 MB


-------------------------------------------------------------------------------
                          DFT DISPERSION CORRECTION                            
                                                                               
                                DFTD4 V3.4.0                                   
-------------------------------------------------------------------------------
-------------------------   ----------------
Dispersion correction           -0.001082587
-------------------------   ----------------

------------------   -----------------
gCP correction             0.005171203
------------------   -----------------

-------------------------   --------------------
FINAL SINGLE POINT ENERGY     -3074.302311539095
-------------------------   --------------------



           ************************************************************
           *        Program running with 8 parallel MPI-processes     *
           *              working on a common directory               *
           ************************************************************
------------------------------------------------------------------------------
                         ORCA SCF GRADIENT CALCULATION
------------------------------------------------------------------------------

Nuc. rep. gradient        (SHARK) ... done (  0.0 sec)
HCore & Overlap gradient  (SHARK) ... done (  0.1 sec)
Split-RIJ-J gradient      (SHARK) ... done (  0.9 sec)
XC gradient                       ... done (  0.4 sec)
Dispersion correction             ... done (  0.1 sec)

-------------------
DISPERSION GRADIENT
-------------------

   1   C   :   -0.000000007   -0.000000004   -0.000012046
   2   H   :    0.000000002   -0.000000966   -0.000006532
   3   H   :   -0.000000834    0.000000483   -0.000006532
   4   H   :    0.000000839    0.000000483   -0.000006536
   5   Br  :    0.000000002    0.000000005    0.000087859
   6   Cl  :   -0.000000002    0.000000000   -0.000056213

Difference to translation invariance:
           :   -0.0000000000   -0.0000000000   -0.0000000000

Difference to rotation invariance:
           :   -0.0000000000    0.0000000000   -0.0000000000

Norm of the Dispersion gradient    ...    0.0001056178
RMS gradient                       ...    0.0000248944
MAX gradient                       ...    0.0000878591
gCP correction                   ... done

------------------
CARTESIAN GRADIENT
------------------

   1   C   :    0.000097366   -0.000010236   -0.010057983
   2   H   :   -0.000037801   -0.000710287    0.000897896
   3   H   :   -0.000644191    0.000353433    0.000912784
   4   H   :    0.000594597    0.000368453    0.000923382
   5   Br  :    0.000000233   -0.000004243   -0.003351061
   6   Cl  :   -0.000010204    0.000002880    0.010674982

Difference to translation invariance:
           :   -0.0000000000   -0.0000000000    0.0000000004

Difference to rotation invariance:
           :   -0.0000104735    0.0000000018   -0.0000000187

Norm of the Cartesian gradient     ...    0.0151784300
RMS gradient                       ...    0.0035775903
MAX gradient                       ...    0.0106749816

-------
TIMINGS
-------

Total SCF gradient time     ....        1.597 sec

Densities                   ....       0.000 sec  (  0.0%)
One electron gradient       ....       0.084 sec  (  5.3%)
RI-J Coulomb gradient       ....       0.912 sec  ( 57.1%)
XC gradient                 ....       0.405 sec  ( 25.4%)

Maximum memory used throughout the entire SCFGRAD-calculation: 26.8 MB
------------------------------------------------------------------------------
                         ORCA GEOMETRY RELAXATION STEP
------------------------------------------------------------------------------

Reading the OPT-File                    .... done
Getting information on internals        .... done
Copying old internal coords+grads       .... done
Making the new internal coordinates     .... (2022 redundants) done
Validating the new internal coordinates .... (2022 redundants) done
Calculating the B-matrix                .... done
Calculating the G,G- and P matrices     .... done
Transforming gradient to internals      .... done
Projecting the internal gradient        .... done
Number of atoms                         ....   6
Number of internal coordinates          ....  17
Current Energy                          .... -3074.302311539 Eh
Current gradient norm                   ....     0.015178430 Eh/bohr
Maximum allowed component of the step   ....  0.300
Current trust radius                    ....  0.300
Updating the Hessian (BFGS)             .... done
Forming the augmented Hessian           .... done
Diagonalizing the augmented Hessian     .... done
Last element of RFO vector              ....  0.981242332
Lowest eigenvalues of augmented Hessian:
 -0.000845629  0.009977345  0.043433699  0.043477838  0.203242054
Length of the computed step             ....  0.196463529
The final length of the internal step   ....  0.196463529
Converting the step to Cartesian space:
 Initial RMS(Int)=    0.0476494048
Transforming coordinates:
 Iter   0:  RMS(Cart)=    0.0254082624 RMS(Int)=    0.0476819148
done
Storing new coordinates                 .... done
The predicted energy change is          ....    -0.000439134
Previously predicted energy change      ....    -0.002470837
Actually observed energy change         ....    -0.002989533
Ratio of predicted to observed change   ....     1.209927376
New trust radius                        ....     0.450000000

                                .--------------------.
          ----------------------|Geometry convergence|-------------------------
          Item                value                   Tolerance       Converged
          ---------------------------------------------------------------------
          Energy change      -0.0029895331            0.0000050000      NO
          RMS gradient        0.0026300954            0.0001000000      NO
          MAX gradient        0.0106749802            0.0003000000      NO
          RMS step            0.0476494048            0.0020000000      NO
          MAX step            0.0986790439            0.0040000000      NO
          -------------------------------------------------------------------------
          ........................................................
          Max(Bonds)      0.0522      Max(Angles)    0.06
          Max(Dihed)        0.00      Max(Improp)    0.00
          ---------------------------------------------------------------------

The optimization has not yet converged - more geometry cycles are needed


    ---------------------------------------------------------------------------
                         Redundant Internal Coordinates
                            (Angstroem and degrees)

        Definition                    Value    dE/dq     Step     New-Value
    ----------------------------------------------------------------------------
[...]
Magnitude (Debye)      :      3.783359063



--------------------
Rotational spectrum 
--------------------
 
Rotational constants in cm-1:             5.216829             0.024886             0.024886 
Rotational constants in MHz :        156396.585668           746.058968           746.058944 

Dipole components along the rotational axes: 
x,y,z [a.u.] :    -1.488458    -0.000270     0.000373 
x,y,z [Debye]:    -3.783359    -0.000687     0.000947 

 

Dipole moment calculation done in   0.0 sec 

-----------
SCF HESSIAN
-----------

Occupied/Occupied contributions to the Hessian:
   => Occupied/Occupied contributions              ... done (  0.0 sec)
Perturbed density contributions to the Hessian:
   => Perturbed density contributions              ... done (  0.0 sec)
Explicit contributions to the Hessian:
   => Nuclear repulsion Hessian                    ... done (  0.0 sec)
   => HCore and overlap Hessian                    ... done (  0.4 sec)
   => RI-J Hessian                                 ... done (  1.2 sec)
   => XC-Hessian                                   ... done (  3.2 sec)
   => Van der Waals-Hessian                        ... done (  0.5 sec)
   => GCP-Hessian                                  ... done (  0.0 sec)
   => Explicit contributions done
Dipole derivatives                                 ... done (  0.0 sec)
Mass weighting the Hessian           ... done
Calculating normal modes             ... done
Scaling frequencies                  ... done

-----------------------
VIBRATIONAL FREQUENCIES
-----------------------

Scaling factor for frequencies =  1.000000000  (already applied!)

     0:       0.00 cm**-1
     1:       0.00 cm**-1
     2:       0.00 cm**-1
     3:       0.00 cm**-1
     4:       0.00 cm**-1
     5:       0.00 cm**-1
     6:      89.67 cm**-1
     7:      90.51 cm**-1
     8:      92.86 cm**-1
     9:     540.52 cm**-1
    10:     973.41 cm**-1
    11:     973.99 cm**-1
    12:    1298.36 cm**-1
    13:    1451.35 cm**-1
    14:    1451.40 cm**-1
    15:    3095.60 cm**-1
    16:    3229.40 cm**-1
    17:    3230.27 cm**-1


------------
NORMAL MODES
------------

These modes are the Cartesian displacements weighted by the diagonal matrix
M(i,i)=1/sqrt(m[i]) where m[i] is the mass of the displaced atom
Thus, these vectors are normalized but *not* orthogonal

                  0          1          2          3          4          5    
      0       0.000000   0.000000   0.000000   0.000000   0.000000   0.000000
      1       0.000000   0.000000   0.000000   0.000000   0.000000   0.000000
      2       0.000000   0.000000   0.000000   0.000000   0.000000   0.000000
      3       0.000000   0.000000   0.000000   0.000000   0.000000   0.000000
      4       0.000000   0.000000   0.000000   0.000000   0.000000   0.000000
      5       0.000000   0.000000   0.000000   0.000000   0.000000   0.000000
      6       0.000000   0.000000   0.000000   0.000000   0.000000   0.000000
      7       0.000000   0.000000   0.000000   0.000000   0.000000   0.000000
      8       0.000000   0.000000   0.000000   0.000000   0.000000   0.000000
      9       0.000000   0.000000   0.000000   0.000000   0.000000   0.000000
     10       0.000000   0.000000   0.000000   0.000000   0.000000   0.000000
     11       0.000000   0.000000   0.000000   0.000000   0.000000   0.000000
     12       0.000000   0.000000   0.000000   0.000000   0.000000   0.000000
     13       0.000000   0.000000   0.000000   0.000000   0.000000   0.000000
     14       0.000000   0.000000   0.000000   0.000000   0.000000   0.000000
     15       0.000000   0.000000   0.000000   0.000000   0.000000   0.000000
     16       0.000000   0.000000   0.000000   0.000000   0.000000   0.000000
     17       0.000000   0.000000   0.000000   0.000000   0.000000   0.000000
                  6          7          8          9         10         11    
      0       0.398028   0.000509   0.000430   0.000005   0.107172   0.000202
      1       0.000509  -0.398215   0.000511   0.000327  -0.000202   0.107081
      2       0.000107  -0.000274  -0.450270  -0.702896  -0.000001   0.000106
      3       0.478489   0.000675   0.000517   0.000004  -0.223977  -0.000425
      4       0.000631  -0.492734  -0.003416  -0.091535   0.000239  -0.128722
      5      -0.000267   0.287217  -0.426627  -0.366456  -0.001445   0.768966
      6       0.487716   0.007512  -0.002895  -0.079331  -0.152274  -0.041519
      7      -0.007712  -0.480767   0.002566   0.046087  -0.041243  -0.200233
      8      -0.249156  -0.144533  -0.426492  -0.366367   0.667071  -0.383900
      9       0.487730  -0.006328   0.003950   0.079339  -0.152418   0.040943
     10       0.008937  -0.480636   0.002584   0.046087   0.041997  -0.200070
     11       0.249724  -0.143896  -0.425949  -0.366365  -0.665608  -0.386408
     12      -0.030932  -0.000040  -0.000029  -0.000000  -0.000078  -0.000000
     13      -0.000040   0.030942  -0.000016  -0.000004   0.000000  -0.000072
     14      -0.000063   0.000073   0.271197  -0.004366  -0.000000  -0.000003
     15      -0.106474  -0.000136  -0.000124  -0.000001  -0.021101  -0.000040
     16      -0.000136   0.106521  -0.000187  -0.000121   0.000040  -0.021075
     17       0.000096  -0.000038  -0.422282   0.279223  -0.000000   0.000008
                 12         13         14         15         16         17    
      0      -0.000001   0.070212   0.004561  -0.000003   0.000637  -0.096876
      1       0.000108   0.004560  -0.070200  -0.000224   0.096884   0.000637
      2      -0.085601   0.000002  -0.000040   0.038615   0.000144  -0.000001
      3       0.000008  -0.753938  -0.048974   0.000002   0.000137  -0.019875
      4      -0.177060   0.008551  -0.131719  -0.553948  -0.779791  -0.005109
      5       0.547737  -0.017783   0.273758  -0.154996  -0.232455  -0.001523
      6      -0.153048  -0.114734   0.377644  -0.481837   0.340852   0.581298
      7       0.087814  -0.417884   0.507645   0.278285  -0.176972  -0.347061
      8       0.547150  -0.228272  -0.151893  -0.155500   0.114057   0.201259
      9       0.153049  -0.064914  -0.389308   0.481874  -0.348469   0.576741
     10       0.087804   0.348704   0.557441   0.278303  -0.181517   0.344683
     11       0.547161   0.246016  -0.121094  -0.155507   0.116691  -0.199727
     12      -0.000000   0.000168   0.000011   0.000000  -0.000000   0.000026
     13       0.000002   0.000011  -0.000167   0.000000  -0.000026  -0.000000
     14      -0.000436   0.000000  -0.000001   0.000079  -0.000000  -0.000000
     15       0.000000   0.002378   0.000154   0.000000  -0.000003   0.000402
     16       0.000000   0.000154  -0.002377  -0.000000  -0.000401  -0.000003
     17      -0.016704   0.000000  -0.000006  -0.000011   0.000001   0.000000


-----------
IR SPECTRUM
-----------

 Mode   freq       eps      Int      T**2         TX        TY        TZ
       cm**-1   L/(mol*cm) km/mol    a.u.
----------------------------------------------------------------------------
  6:     89.67   0.001091    5.51  0.003796  ( 0.061610  0.000079  0.000056)
  7:     90.51   0.001088    5.50  0.003752  ( 0.000078 -0.061257 -0.000194)
  8:     92.86   0.002871   14.51  0.009648  ( 0.000029  0.000049 -0.098222)
  9:    540.52   0.055844  282.21  0.032241  (-0.000002  0.000074 -0.179557)
 10:    973.41   0.000090    0.45  0.000029  (-0.005372  0.000010  0.000002)
 11:    973.99   0.000089    0.45  0.000028  (-0.000010 -0.005328 -0.000088)
 12:   1298.36   0.002265   11.44  0.000544  ( 0.000000  0.000023 -0.023331)
 13:   1451.35   0.002104   10.63  0.000452  (-0.021225 -0.001384 -0.000006)
 14:   1451.40   0.002121   10.72  0.000456  (-0.001378  0.021310  0.000074)
 15:   3095.60   0.001112    5.62  0.000112  (-0.000000 -0.000115  0.010586)
 16:   3229.40   0.000002    0.01  0.000000  (-0.000003 -0.000412  0.000049)
 17:   3230.27   0.000003    0.01  0.000000  ( 0.000501 -0.000003  0.000001)

* The epsilon (eps) is given for a Dirac delta lineshape.
** The dipole moment derivative (T) already includes vibrational overlap.

The first frequency considered to be a vibration is 6
The total number of vibrations considered is 12


--------------------------
THERMOCHEMISTRY AT 298.15K
--------------------------

Temperature         ...   298.15 K
Pressure            ...     1.00 atm
Total Mass          ...   130.39 AMU
Quasi RRHO          ...     True
Cut-Off Frequency   ...     1.00 cm^-1

Throughout the following assumptions are being made:
  (1) The electronic state is orbitally nondegenerate
  (2) There are no thermally accessible electronically excited states
  (3) Hindered rotations indicated by low frequency modes are not
      treated as such but are treated as vibrations and this may
      cause some error
  (4) All equations used are the standard statistical mechanics
      equations for an ideal gas
  (5) All vibrations are strictly harmonic

freq.      89.67  E(vib)   ...       0.47 
freq.      90.51  E(vib)   ...       0.47 
freq.      92.86  E(vib)   ...       0.47 
freq.     540.52  E(vib)   ...       0.12 
freq.     973.41  E(vib)   ...       0.03 
freq.     973.99  E(vib)   ...       0.03 
freq.    1298.36  E(vib)   ...       0.01 
freq.    1451.35  E(vib)   ...       0.00 
freq.    1451.40  E(vib)   ...       0.00 
freq.    3095.60  E(vib)   ...       0.00 
freq.    3229.40  E(vib)   ...       0.00 
freq.    3230.27  E(vib)   ...       0.00 

------------
INNER ENERGY
------------

The inner energy is: U= E(el) + E(ZPE) + E(vib) + E(rot) + E(trans)
    E(el)   - is the total energy from the electronic structure calculation
              = E(kin-el) + E(nuc-el) + E(el-el) + E(nuc-nuc)
    E(ZPE)  - the the zero temperature vibrational energy from the frequency calculation
    E(vib)  - the the finite temperature correction to E(ZPE) due to population
              of excited vibrational states
    E(rot)  - is the rotational thermal energy
    E(trans)- is the translational thermal energy

Summary of contributions to the inner energy U:
Electronic energy                ...  -3074.30305945 Eh
Zero point energy                ...      0.03762925 Eh      23.61 kcal/mol
Thermal vibrational correction   ...      0.00255670 Eh       1.60 kcal/mol
Thermal rotational correction    ...      0.00141627 Eh       0.89 kcal/mol
Thermal translational correction ...      0.00141627 Eh       0.89 kcal/mol
-----------------------------------------------------------------------
Total thermal energy                  -3074.26004096 Eh


Summary of corrections to the electronic energy:
(perhaps to be used in another calculation)
Total thermal correction                  0.00538924 Eh       3.38 kcal/mol
Non-thermal (ZPE) correction              0.03762925 Eh      23.61 kcal/mol
-----------------------------------------------------------------------
Total correction                          0.04301849 Eh      26.99 kcal/mol


--------
ENTHALPY
--------

The enthalpy is H = U + kB*T
                kB is Boltzmann's constant
Total thermal energy              ...  -3074.26004096 Eh 
Thermal Enthalpy correction       ...      0.00094421 Eh       0.59 kcal/mol
-----------------------------------------------------------------------
Total Enthalpy                    ...  -3074.25909675 Eh


Note: Rotational entropy computed according to Herzberg 
Infrared and Raman Spectra, Chapter V,1, Van Nostrand Reinhold, 1945 
Point Group:  Cs, Symmetry Number:   1  
Rotational constants in cm-1:     5.216833     0.024886     0.024886 

Vibrational entropy computed according to the QRRHO of S. Grimme
Chem.Eur.J. 2012 18 9955 using a reference frequency of 100.0 cm-1


-------
ENTROPY
-------

The entropy contributions are T*S = T*(S(el)+S(vib)+S(rot)+S(trans))
     S(el)   - electronic entropy
     S(vib)  - vibrational entropy
     S(rot)  - rotational entropy
     S(trans)- translational entropy
The entropies will be listed as multiplied by the temperature to get
units of energy

Electronic entropy                ...      0.00000000 Eh      0.00 kcal/mol
Vibrational entropy               ...      0.00499675 Eh      3.14 kcal/mol
Rotational entropy                ...      0.01221826 Eh      7.67 kcal/mol
Translational entropy             ...      0.01924704 Eh     12.08 kcal/mol
-----------------------------------------------------------------------
Final entropy term                ...      0.03646205 Eh     22.88 kcal/mol

In case the symmetry of your molecule has not been determined correctly
or in case you have a reason to use a different symmetry number we print 
out the resulting rotational entropy values for sn=1,12:

 non-linear molecules -----------------------------------
|  sn= 1 | S(rot)=       0.01221826 Eh      7.67 kcal/mol|
|  sn= 2 | S(rot)=       0.01156380 Eh      7.26 kcal/mol|
|  sn= 3 | S(rot)=       0.01118097 Eh      7.02 kcal/mol|
|  sn= 4 | S(rot)=       0.01090935 Eh      6.85 kcal/mol|
|  sn= 5 | S(rot)=       0.01069866 Eh      6.71 kcal/mol|
|  sn= 6 | S(rot)=       0.01052651 Eh      6.61 kcal/mol|
|  sn= 7 | S(rot)=       0.01038097 Eh      6.51 kcal/mol|
|  sn= 8 | S(rot)=       0.01025489 Eh      6.44 kcal/mol|
|  sn= 9 | S(rot)=       0.01014368 Eh      6.37 kcal/mol|
|  sn=10 | S(rot)=       0.01004420 Eh      6.30 kcal/mol|
|  sn=11 | S(rot)=       0.00995421 Eh      6.25 kcal/mol|
|  sn=12 | S(rot)=       0.00987206 Eh      6.19 kcal/mol|
 linear molecules ---------------------------------------
|  Dinfh | S(rot)=       0.00881310 Eh      5.53 kcal/mol|
|  Cinfv | S(rot)=       0.00946755 Eh      5.94 kcal/mol|
 --------------------------------------------------------


-------------------
GIBBS FREE ENERGY
-------------------

The Gibbs free energy is G = H - T*S

Total enthalpy                    ...  -3074.25909675 Eh 
Total entropy correction          ...     -0.03646205 Eh    -22.88 kcal/mol
-----------------------------------------------------------------------
Final Gibbs free energy         ...  -3074.29555881 Eh

For completeness - the Gibbs free energy minus the electronic energy
G-E(el)                           ...      0.00750064 Eh      4.71 kcal/mol


Maximum memory used throughout the entire PROP-calculation: 31.0 MB

--------------------------------
SUGGESTED CITATIONS FOR THIS RUN
--------------------------------

Below you find a list of papers that are relevant to this ORCA run
We neither can nor want to force you to cite these papers, but we appreciate if you do
You receive ORCA, which is the product of decades of hard work by many enthusiastic individuals, for free
The only thing we kindly ask in return is that you cite our papers,
We deeply appreciate it, if you show your appreciation for ORCA by not just citing the generic ORCA reference.

Please note that relegating all ORCA citations to the supporting information does *not* help us.
SI sections are not indexed - citations you put there will not count into any citation statistics
But we need these citations in order to attract the funding resources that allow us to do what we are doing

Therefore, if you are a happy ORCA user, please consider citing a few of the papers listed below in the main body of your paper

In addition to the list printed below, the program has created the file reactant_optfreq.bibtex that contains the list in bibtex format
You can import this file easily into all common literature databanks and citation aid programs


List of essential papers. We consider these as the minimum necessary citations

  1. Grimme, S.; Hansen, A.; Ehlert, S.; Mewes, J.
     r2SCAN-3c: A 'Swiss army knife' composite electronic-structure method
     J. Chem. Phys. 2021 154 , 064103
     doi.org/10.1063/5.0040021
  2. Neese, F.
     Software update: the ORCA program system, version 6.0
     WIRES Comput. Molec. Sci. 2025 15(1), e70019
     doi.org/10.1002/wcms.7019

List of papers to cite with high priority. The work reported in these papers was absolutely
necessary for this run to complete.
Our perspective: the developers of density functionals and basis sets usually get cited in chemistry papers
Good! But without the algorithms to do something with them, the functionals or basis sets would not do anything.
Hence, in our opinion, the algorithm design and method developments papers are equally worthy of getting cited

  1. Neese, F.
     An improvement of the resolution of the identity approximation for the formation of the Coulomb matrix
     J. Comp. Chem. 2003 24(14), 1740-1747
     doi.org/10.1002/jcc.10318
  2. Bykov, D.; Petrenko, T.; Izsak, R.; Kossmann, S.; Becker, U.; Valeev, E.; Neese, F.
     Efficient implementation of the analytic second derivatives of Hartree-Fock and hybrid DFT energies: a detailed analysis of different approximations
     Molec. Phys. 2015 113 , 1961-1977
     doi.org/10.1080/00268976.2015.1025114
  3. Caldeweyher, E.; Bannwarth, C.; Grimme, S.
     Extension of the D3 dispersion coefficient model
     J. Chem. Phys. 2017 147 , 034112
     doi.org/10.1063/1.4993215
  4. Lehtola, S.; Steigemann, C.; Oliveira, M.; Marques, M.
     Recent developments in Libxc - A comprehensive library of functionals for density functional theory
     Software X 2018 7 , 
     doi.org/10.1016/j.softx.2017.11.002
  5. Caldeweyher, E.; Ehlert, S.; Hansen, A.; Neugebauer, H.; Spicher, S.; Bannwarth, C.; Grimme, S.
     A generally applicable atomic-charge dependent London dispersion correction
     J. Chem. Phys. 2019 150 , 154122
     doi.org/10.1063/1.5090222
  6. Caldeweyher, E.; Mewes, J.; Ehlert, S.; Grimme, S.
     Extension and evaluation of the D4 London-dispersion model for periodic systems
     Phys. Chem. Chem. Phys. 2020 22(16), 8499-8512
     doi.org/10.1039/D0CP00502A
  7. Neese, F.
     The SHARK Integral Generation and Digestion System
     J. Comp. Chem. 2022 44(3), 381
     doi.org/10.1002/jcc.26942
  8. Wittmann, L.; Gordiy, I.; Friede, M.; Helmich-Paris, B.; Grimme, S.; Hansen, A.; Bursch, M.
     Extension of the D3 and D4 London Dispersion Corrections to the full Actinides Series
     Phys. Chem. Chem. Phys. 2024 26(32), 21379-21394
     doi.org/10.1039/D4CP01514B

List of suggested additional citations. These are papers that are important in the 'surrounding' of 
of this run, or papers that preceded the highly important papers. If you like your results we are grateful for a citation.

  1. Neese, F.
     The ORCA program system
     WIRES Comput. Molec. Sci. 2012 2(1), 73-78
     doi.org/10.1002/wcms.81
  2. Neese, F.
     Software update: the ORCA program system, version 4.0
     WIRES Comput. Molec. Sci. 2018 8(1), 1-6
     doi.org/10.1002/wcms.1327
  3. Neese, F.; Wennmohs, F.; Becker, U.; Riplinger, C.
     The ORCA quantum chemistry program package
     J. Chem. Phys. 2020 152(22), 224108
     doi.org/10.1063/5.0004608
  4. Neese, F.
     Software update: The ORCA program system—Version 5.0
     WIRES Comput. Molec. Sci. 2022 12(1), e1606
     doi.org/10.1002/wcms.1606

List of optional additional citations

  1. Neese, F.
     Approximate second-order SCF convergence for spin unrestricted wavefunctions
     Chem. Phys. Lett. 2000 325(1-3), 93-98
     doi.org/10.1016/s0009-2614(00)00662-x

Timings for individual modules:

Sum of individual times          ...       98.749 sec (=   1.646 min)
Startup calculation              ...       15.338 sec (=   0.256 min)  15.5 %
SCF iterations                   ...       38.765 sec (=   0.646 min)  39.3 %
Property integrals               ...       14.344 sec (=   0.239 min)  14.5 %
SCF Response                     ...        4.879 sec (=   0.081 min)   4.9 %
Property calculations            ...        6.253 sec (=   0.104 min)   6.3 %
SCF Gradient evaluation          ...       19.143 sec (=   0.319 min)  19.4 %
Geometry relaxation              ...        0.026 sec (=   0.000 min)   0.0 %
                             ****ORCA TERMINATED NORMALLY****
TOTAL RUN TIME: 0 days 0 hours 1 minutes 46 seconds 774 msec
