
                                 *****************
                                 * O   R   C   A *
                                 *****************

                                            #,                                       
                                            ###                                      
                                            ####                                     
                                            #####                                    
                                            ######                                   
                                           ########,                                 
                                     ,,################,,,,,                         
                               ,,#################################,,                 
                          ,,##########################################,,             
                       ,#########################################, ''#####,          
                    ,#############################################,,   '####,        
                  ,##################################################,,,,####,       
                ,###########''''           ''''###############################       
              ,#####''   ,,,,##########,,,,          '''####'''          '####       
            ,##' ,,,,###########################,,,                        '##       
           ' ,,###''''                  '''############,,,                           
         ,,##''                                '''############,,,,        ,,,,,,###''
      ,#''                                            '''#######################'''  
     '                                                          ''''####''''         
             ,#######,   #######,   ,#######,      ##                                
            ,#'     '#,  ##    ##  ,#'     '#,    #''#        ,####,    ,#,          
            ##       ##  ##   ,#'  ##            #'  '#       #'       ,# #          
            ##       ##  #######   ##           ,######,      #####,      #          
            '#,     ,#'  ##    ##  '#,     ,#' ,#      #,     #,   #      #          
             '#######'   ##     ##  '#######'  #'      '#     '####' #    #          



                #########################################################
                #                        -***-                          #
                #          Department of theory and spectroscopy        #
                #                                                       #
                #                      Frank Neese                      #
                #                                                       #
                #     Directorship, Architecture, Infrastructure        #
                #                    SHARK, DRIVERS                     #
                #        Core code/Algorithms in most modules           #
                #                                                       #
                #        Max Planck Institute fuer Kohlenforschung      #
                #                Kaiser Wilhelm Platz 1                 #
                #                 D-45470 Muelheim/Ruhr                 #
                #                      Germany                          #
                #                                                       #
                #                  All rights reserved                  #
                #                        -***-                          #
                #########################################################


                         Program Version 6.1.0  -  RELEASE   -
                                (GIT: $679e74b$)
                          ($2025-06-10 18:02:51 +0200$)


 With contributions from (in alphabetic order):
[Max-Planck-Institut fuer Kohlenforschung]                               
  Daniel Aravena         : Magnetic Suceptibility                        
  Michael Atanasov       : Ab Initio Ligand Field Theory (pilot matlab implementation)
  Alexander A. Auer      : GIAO ZORA, VPT2 properties, NMR spectrum      
  Ute Becker             : All parallelization in ORCA, NUMFREQ, NUMCALC 
  Giovanni Bistoni       : ED, misc. LED, open-shell LED, HFLD           
  Dmytro Bykov           : pre 5.0 version of the SCF Hessian            
  Marcos Casanova-Páez   : Triplet and SCS-CIS(D). UHF-(DLPNO)-IP/EA/STEOM-CCSD. UHF-CVS-IP/STEOM-CCSD   
  Vijay G. Chilkuri      : MRCI spin determinant printing, contributions to CSF-ICE 
  Pauline Colinet        : FMM embedding                                 
  Dipayan Datta          : RHF DLPNO-CCSD density                        
  Achintya Kumar Dutta   : EOM-CC, STEOM-CC                              
  Nicolas Foglia         : Exact transition moments, OPA infrastructure, MCD improvements    
  Dmitry Ganyushin       : Spin-Orbit,Spin-Spin,Magnetic field MRCI      
  Miquel Garcia-Rates    : C-PCM and meta-GGA Hessian, CCSD/C-PCM, Gaussian charge scheme 
  Tiago L. C. Gouveia    : GS-ROHF, GS-ROCIS                             
  Yang Guo               : DLPNO-NEVPT2, F12-NEVPT2, CIM, IAO-localization        
  Andreas Hansen         : Spin unrestricted coupled pair/coupled cluster methods 
  Ingolf Harden          : AUTO-CI MPn and infrastructure                
  Benjamin Helmich-Paris : MC-RPA, TRAH-(SCF,CASSCF), AVAS, COSX integrals, SCF dyn. polar., MC-PDFT, srDFT 
  Lee Huntington         : MR-EOM, pCC                                   
  Robert Izsak           : Overlap fitted RIJCOSX, COSX-SCS-MP3, EOM     
  Riya Kayal             : Wick's Theorem for AUTO-CI, AUTO-CI UHF-CCSDT 
  Emily Kempfer          : AUTO-CI RHF CISDT and CCSDT, approximate NEVPT4
  Christian Kollmar      : KDIIS, OOCD, Brueckner-CCSD(T), CCSD density, CASPT2, CASPT2-K, improved NEVPT2 
  Axel Koslowski         : Symmetry handling                             
  Simone Kossmann        : meta-GGA functionals, TD-DFT gradient, OOMP2, (MP2 Hessian; deprecated post 5.0) 
  Lucas Lang             : DCDCAS, Hyperfine gauge corrections, ICE-SOC+SSC
  Marvin Lechner         : AUTO-CI (C++ implementation), FIC-MRCC        
  Spencer Leger          : CASSCF response                               
  Dagmar Lenk            : GEPOL surface, SMD, ORCA-2-JSON               
  Dimitrios Liakos       : Extrapolation schemes; Compound Job, Property file
  Dimitrios Manganas     : Further ROCIS development; embedding schemes. LFT, Crystal Embedding 
  Dimitrios Pantazis     : SARC Basis sets                               
  Anastasios Papadopoulos: AUTO-CI, single reference methods and gradients 
  Taras Petrenko         : pre 6.0 DFT Hessian and TD-DFT gradient,  ECA, NRVS 
  Petra Pikulova         : Analytic Raman intensities                    
  Peter Pinski           : DLPNO-MP2, DLPNO-MP2 Gradient                 
  Shashank Vittal Rao    : ES-AILFT, MagRelax                            
  Christoph Reimann      : Effective Core Potentials                     
  Marius Retegan         : Local ZFS, SOC                                
  Christoph Riplinger    : Optimizer, TS searches, QM/MM, DLPNO-CCSD(T), (RO)-DLPNO pert. Triples 
  Michael Roemelt        : Original ROCIS implementation, recursive CI coupling coefficients
  Masaaki Saitow         : Open-shell DLPNO-CCSD energy and density      
  Barbara Sandhoefer     : DKH picture change effects                    
  Yorick L. A. Schmerwitz: GMF and freeze-and-release deltaSCF, NEB S-IDPP initial path                    
  Kantharuban Sivalingam : CASSCF convergence/infrastructure, NEVPT2, NEVPT3, NEVPT4(SD), FIC-MRCI and CEPA variants
  Bernardo de Souza      : ESD, SOC TD-DFT                               
  Georgi L. Stoychev     : AutoAux, RI-MP2 NMR, DLPNO-MP2 response, X2C  
  Van Anh Tran           : RI-MP2 g-tensors                              
  Willem Van den Heuvel  : Paramagnetic NMR                              
  Zikuan Wang            : NOTCH, Electric field optimization            
  Frank Wennmohs         : Technical directorship and infrastructure     
  Hang Xu                : AUTO-CI-Response properties                   
                                                                         
[FACCTs GmbH]                                                            
  Markus Bursch, Nicolas Foglia, Miquel Garcia-Rates, Ingolf Harden, Hagen Neugebauer, Anastasios Papadopoulos, 
  Christoph Riplinger, Bernardo de Souza, Georgi L. Stoychev                                                    
                                                                 
  APM, various basis sets, CI-OPT, improved COSX, DLPNO-Multilevel,           
  DOCKER, DRACO, updates on ESD, Fragmentator, GOAT, IRC, LR-CPCM, L-BFGS, MBIS, meta-GGA TD-DFT gradient, ML-optimized integration grids, 
  MM, NACMEs, nearIR, NEB, NEB-TS, NL-DFT gradient (VV10), 2- and 3-layer-ONIOM, interface openCOSMO-RS, QMMM,   
  Crystal-QMMM, RESP, rigid body optimization, SF, symmetry and pop. for TD-DFT, various functionals, SOLVATOR                                   
                                                                         
[Other institutions]                                                     
  V. Asgeirsson          : NEB                                           
  Christoph Bannwarth    : sTDA-DFT, sTD-DFT, PBEh-3c, B97-3c, D3        
  Giovanni Bistoni       : ETS/NOCV, ADLD/ADEX, COVALED                  
  Martin Brehm           : Molecular dynamics                            
  Ronald Cardenas        : ETS/NOCV                                      
  Martina Colucci        : COVALED                                       
  Sebastian Ehlert       : rSCAN, r2SCAN, r2SCAN-3c, D4, dhf basis sets  
  Marvin Friede          : D4 for Fr, Ra, Ac-Lr                          
  Lars Goerigk           : TD-DFT with DH, B97 family of functionals     
  Stefan Grimme          : VdW corrections, initial TS optimization, DFT functionals, gCP, sTDA/sTD-DF 
  Waldemar Hujo          : DFT-NL                                        
  H. Jonsson             : NEB                                           
  Holger Kruse           : gCP                                           
  Marcel Mueller         : wB97X-3c, vDZP basis set                      
  Hagen Neugebauer       : wr2SCAN, Native XTB                           
  Gianluca Regni         : ADLD/ADEX                                     
  Tobias Risthaus        : pre 6.0 range-separated hybrid DFT and stability analysis
  Lukas Wittmann         : regularized MP2, r2SCAN double-hybrids, wr2SCAN        
                                                                         
We gratefully acknowledge several colleagues who have allowed us to      
interface, adapt or use parts of their codes:                            
  Ed Valeev, F. Pavosevic, A. Kumar             : LibInt (2-el integral package), F12 methods 
  Garnet Chan, S. Sharma, J. Yang, R. Olivares  : DMRG                   
  Ulf Ekstrom                                   : XCFun DFT Library      
  Mihaly Kallay                                 : mrcc  (arbitrary order and MRCC methods)
  Frank Weinhold                                : gennbo (NPA and NBO analysis)           
  Simon Mueller                                 : openCOSMO-RS                            
  Christopher J. Cramer and Donald G. Truhlar   : smd solvation model                     
  S Lehtola, MJT Oliveira, MAL Marques          : LibXC Library                           
  Liviu Ungur et al                             : ANISO software                          


 Your calculation uses the libint2 library for the computation of 2-el integrals
 For citations please refer to: http://libint.valeyev.net

 Your ORCA version has been built with support for libXC version: 7.0.0
 For citations please refer to: https://libxc.gitlab.io

 This ORCA versions uses:
   CBLAS   interface :  Fast vector & matrix operations
   LAPACKE interface :  Fast linear algebra routines
   SCALAPACK package :  Parallel linear algebra routines
   Shared memory     :  Shared parallel matrices
   BLAS/LAPACK       :  OpenBLAS 0.3.29  USE64BITINT DYNAMIC_ARCH NO_AFFINITY SkylakeX SINGLE_THREADED
        Core in use  :  SkylakeX
   Copyright (c) 2011-2014, The OpenBLAS Project


  ***********************************
  * Starting time: Thu Mar 12 13:26:33 2026
  * Host name:     midway3-login4.rcc.local
  * Process ID:    3074517
  * Working dir.:  /home/rzhu16/orca_TS_search/sn2_br_cl/DFT_test
  ***********************************

Your calculation utilizes the geometrical counterpoise correction gCP
Please cite in your paper:
H.Kruse, S. Grimme J.Chem.Phys., 136, (2012), 154101 
   

Your calculation utilizes the atom-pairwise dispersion correction
based on EEQ partial charges (D4)


================================================================================

----- Orbital basis set information -----
Your calculation utilizes the basis: def2-mTZVPP
   Stefan Grimme, Andreas Hansen, Sebastian Ehlert, and Jan-Michael Mewes 
   J. Chem. Phys. 154, 064103 (2021). DOI: 10.1063/5.0040021

----- AuxJ basis set information -----
Your calculation utilizes the basis: def2-mTZVPP/J
   Stefan Grimme, Andreas Hansen, Sebastian Ehlert, and Jan-Michael Mewes 
   J. Chem. Phys. 154, 000000 (2021). DOI: 10.1063/5.0040021

================================================================================
                                        WARNINGS
                       Please study these warnings very carefully!
================================================================================



WARNING: SCAN, rSCAN, or r2SCAN functional requested.
  ===> : libXC variant has now been activated.



WARNING: Geometry Optimization
  ===> : Switching off AutoStart
         For restart on a previous wavefunction, please use MOREAD

================================================================================
                                       INPUT FILE
================================================================================
NAME = ts_optfreq.inp
|  1> ! r2SCAN-3c OptTS Freq PAL8 SOSCF TightSCF
|  2> 
|  3> %pal
|  4>    nprocs 8
|  5> end
|  6> 
|  7> %scf
|  8>    MaxIter 150
|  9> end
| 10> 
| 11> %geom
| 12>   Calc_Hess true
| 13>   Recalc_Hess 5
| 14> end
| 15> 
| 16> * xyz -1 1
| 17>   C           0.00000000081682     -0.00000006932550     -0.00058888413616
| 18>   H           0.00000000015844      1.06781682540483     -0.03262485355981
| 19>   H           0.92475651673613     -0.53390859750160     -0.03262510310564
| 20>   H          -0.92475651635537     -0.53390859746648     -0.03262510165730
| 21>   Br         -0.00000000024447     -0.00000015793938      2.37213512654176
| 22>   Cl         -0.00000000111154      0.00000059682813     -2.25251118408286
| 23> *
| 24> 
| 25>                          ****END OF INPUT****
================================================================================

                       *****************************
                       * Geometry Optimization Run *
                       *****************************

Geometry optimization settings:
Update method            Update   .... Bofill
Choice of coordinates    CoordSys .... (2022) Redundant Internals
Initial Hessian          InHess   .... Almloef's Model
Max. no of cycles        MaxIter  .... 50

Convergence Tolerances:
Energy Change            TolE     ....  5.0000e-06 Eh
Max. Gradient            TolMAXG  ....  3.0000e-04 Eh/bohr
RMS Gradient             TolRMSG  ....  1.0000e-04 Eh/bohr
Max. Displacement        TolMAXD  ....  4.0000e-03 bohr
RMS Displacement         TolRMSD  ....  2.0000e-03 bohr
Strict Convergence                .... False

------------------------------------------------------------------------------
                        ORCA OPTIMIZATION COORDINATE SETUP
------------------------------------------------------------------------------

The optimization will be done in redundant internal coordinates (2022)
Making redundant internal coordinates   ...  (2022 redundants) done
Following TS mode number                ...     0
Evaluating the initial hessian          ...  (Is done on the fly) done
Evaluating the coordinates              ...  done
Calculating the B-matrix                .... done
Calculating the G-matrix                .... done
The number of degrees of freedom        ....   14

    -----------------------------------------------------------------
                    Redundant Internal Coordinates


    -----------------------------------------------------------------
         Definition                    Initial Value    d2E/dq (diagonal element)
    -----------------------------------------------------------------
      1. B(H   1,C   0)                  1.0683         0.000000   
      2. B(H   2,C   0)                  1.0683         0.000000   
      3. B(H   3,C   0)                  1.0683         0.000000   
      4. B(Br  4,C   0)                  2.3727         0.000000   
      5. B(Cl  5,C   0)                  2.2519         0.000000   
      6. A(H   1,C   0,H   3)          119.9108         0.000000   
      7. A(H   2,C   0,H   3)          119.9108         0.000000   
      8. A(H   1,C   0,Br  4)           91.7184         0.000000   
      9. A(H   2,C   0,Br  4)           91.7184         0.000000   
     10. A(H   3,C   0,Br  4)           91.7184         0.000000   
     11. A(H   1,C   0,Cl  5)           88.2815         0.000000   
     12. A(H   2,C   0,Cl  5)           88.2816         0.000000   
     13. A(H   3,C   0,Cl  5)           88.2816         0.000000   
     14. A(H   1,C   0,H   2)          119.9108         0.000000   
    -----------------------------------------------------------------

Number of atoms                         .... 6
Number of degrees of freedom            .... 14


         *************************************************************
         *                GEOMETRY OPTIMIZATION CYCLE   1            *
         *************************************************************
---------------------------------
CARTESIAN COORDINATES (ANGSTROEM)
---------------------------------
  C      0.000000   -0.000000   -0.000589
  H      0.000000    1.067817   -0.032625
  H      0.924757   -0.533909   -0.032625
  H     -0.924757   -0.533909   -0.032625
  Br    -0.000000   -0.000000    2.372135
  Cl    -0.000000    0.000001   -2.252511

----------------------------
CARTESIAN COORDINATES (A.U.)
----------------------------
  NO LB      ZA    FRAG     MASS         X           Y           Z
   0 C     6.0000    0    12.011    0.000000   -0.000000   -0.001113
   1 H     1.0000    0     1.008    0.000000    2.017881   -0.061652
   2 H     1.0000    0     1.008    1.747537   -1.008941   -0.061653
   3 H     1.0000    0     1.008   -1.747537   -1.008941   -0.061653
   4 Br   35.0000    0    79.900   -0.000000   -0.000000    4.482686
   5 Cl   17.0000    0    35.453   -0.000000    0.000001   -4.256629

--------------------------------
INTERNAL COORDINATES (ANGSTROEM)
--------------------------------
 C      0   0   0     0.000000000000     0.00000000     0.00000000
 H      1   0   0     1.068297348124     0.00000000     0.00000000
 H      1   2   0     1.068297360064   119.91080115     0.00000000
 H      1   2   3     1.068297361088   119.91080104   185.94663343
 Br     1   2   3     2.372724010678    91.71843855    92.97331679
 Cl     1   2   3     2.251922299947    88.28154664   272.97331671

---------------------------
INTERNAL COORDINATES (A.U.)
---------------------------
 C      0   0   0     0.000000000000     0.00000000     0.00000000
 H      1   0   0     2.018789417548     0.00000000     0.00000000
 H      1   2   0     2.018789440112   119.91080115     0.00000000
 H      1   2   3     2.018789442047   119.91080104   185.94663343
 Br     1   2   3     4.483798571561    91.71843855    92.97331679
 Cl     1   2   3     4.255516421770    88.28154664   272.97331671

---------------------
BASIS SET INFORMATION
---------------------
There are 4 groups of distinct atoms

 Group   1 Type C   : 11s6p1d contracted to 5s3p1d pattern {62111/411/1}
 Group   2 Type H   : 4s1p contracted to 2s1p pattern {31/1}
 Group   3 Type Br  : 17s13p7d contracted to 6s5p3d pattern {842111/64111/511}
 Group   4 Type Cl  : 14s9p2d contracted to 5s4p2d pattern {73211/6111/11}

Atom   0C    basis set group =>   1
Atom   1H    basis set group =>   2
Atom   2H    basis set group =>   2
Atom   3H    basis set group =>   2
Atom   4Br   basis set group =>   3
Atom   5Cl   basis set group =>   4
---------------------------------
AUXILIARY/J BASIS SET INFORMATION
---------------------------------
There are 4 groups of distinct atoms

 Group   1 Type C   : 8s3p3d contracted to 6s3p3d pattern {311111/111/111}
 Group   2 Type H   : 5s2p1d contracted to 3s1p1d pattern {311/2/1}
 Group   3 Type Br  : 19s5p5d3f1g contracted to 8s4p3d2f1g pattern {121111111/2111/311/21/1}
 Group   4 Type Cl  : 14s5p5d2f contracted to 8s4p3d1f pattern {71111111/2111/311/2}

Atom   0C    basis set group =>   1
Atom   1H    basis set group =>   2
Atom   2H    basis set group =>   2
Atom   3H    basis set group =>   2
Atom   4Br   basis set group =>   3
Atom   5Cl   basis set group =>   4


           ************************************************************
           *        Program running with 8 parallel MPI-processes     *
           *              working on a common directory               *
           ************************************************************
------------------------------------------------------------------------------
                             ORCA STARTUP CALCULATIONS
                           -- RI-GTO INTEGRALS CHOSEN --
------------------------------------------------------------------------------
------------------------------------------------------------------------------
                   ___                                                        
                  /   \      - P O W E R E D   B Y -                         
                 /     \                                                     
                 |  |  |   _    _      __       _____    __    __             
                 |  |  |  | |  | |    /  \     |  _  \  |  |  /  |          
                  \  \/   | |  | |   /    \    | | | |  |  | /  /          
                 / \  \   | |__| |  /  /\  \   | |_| |  |  |/  /          
                |  |  |   |  __  | /  /__\  \  |    /   |      \           
                |  |  |   | |  | | |   __   |  |    \   |  |\   \          
                \     /   | |  | | |  |  |  |  | |\  \  |  | \   \       
                 \___/    |_|  |_| |__|  |__|  |_| \__\ |__|  \__/        
                                                                              
                      - O R C A' S   B I G   F R I E N D -                    
                                      &                                       
                       - I N T E G R A L  F E E D E R -                       
                                                                              
 v1 FN, 2020, v2 2021, v3 2022-2024                                           
------------------------------------------------------------------------------


----------------------
SHARK INTEGRAL PACKAGE
----------------------

Number of atoms                             ...      6
Number of basis functions                   ...     97
Number of shells                            ...     43
Maximum angular momentum                    ...      2
Integral batch strategy                     ... SHARK/LIBINT Hybrid
RI-J (if used) integral strategy            ... SPLIT-RIJ (Revised 2003 algorithm where possible)
Printlevel                                  ...      1
Contraction scheme used                     ... SEGMENTED contraction
Prescreening option                         ... SCHWARTZ
   Thresh                                   ... 2.500e-11
   Tcut                                     ... 2.500e-12
   Tpresel                                  ... 2.500e-12 
Coulomb Range Separation                    ... NOT USED
Exchange Range Separation                   ... NOT USED
Multipole approximations                    ... NOT USED
Finite Nucleus Model                        ... NOT USED
CABS basis                                  ... NOT available
Auxiliary Coulomb fitting basis             ... AVAILABLE
   # of basis functions in Aux-J            ...    163
   # of shells in Aux-J                     ...     61
   Maximum angular momentum in Aux-J        ...      4
Auxiliary J/K fitting basis                 ... NOT available
Auxiliary Correlation fitting basis         ... NOT available
Auxiliary 'external' fitting basis          ... NOT available

Checking pre-screening integrals            ... done (  0.0 sec) Dimension = 43
   => SHARK Basis and OBASIS are compatible. Storing Pre-screening
Shell pair information
Shell pair cut-off parameter TPreSel        ...   2.5e-12
Total number of shell pairs                 ...       946
Shell pairs after pre-screening             ...       862
Total number of primitive shell pairs       ...      4697
Primitive shell pairs kept                  ...      3174
          la=0 lb=0:    222 shell pairs
          la=1 lb=0:    304 shell pairs
          la=1 lb=1:    113 shell pairs
          la=2 lb=0:    120 shell pairs
          la=2 lb=1:     84 shell pairs
          la=2 lb=2:     19 shell pairs

Checking whether 4 symmetric matrices of dimension 97 fit in memory
:Max Core in MB      =   4096.00
 MB in use           =      4.48
 MB left             =   4091.52
 MB needed           =      0.15
 Data fit in memory  = YES
Calculating RI/J V-Matrix + Cholesky decomp.... done (  0.0 sec)
Calculating Nuclear repulsion               ... done (  0.0 sec) ENN=    180.735076778806 Eh

Diagonalization of the overlap matrix:
Smallest eigenvalue                        ... 6.088e-03
Time for diagonalization                   ...    0.001 sec
Threshold for overlap eigenvalues          ... 1.000e-07
Number of eigenvalues below threshold      ... 0
Time for construction of square roots      ...    0.001 sec
Total time needed                          ...    0.003 sec

-------------------
DFT GRID GENERATION
-------------------

General Integration Accuracy     IntAcc      ... 4.388
Radial Grid Type                 RadialGrid  ... OptM3 with GC (2021)
Angular Grid (max. ang.)         AngularGrid ... 4 (Lebedev-302)
Angular grid pruning method      GridPruning ... 4 (adaptive)
Weight generation scheme         WeightScheme... mBecke (2022)
Basis function cutoff            BFCut       ... 1.0000e-11
Integration weight cutoff        WCut        ... 1.0000e-14
Partially contracted basis set               ... off
Rotationally invariant grid construction     ... off
Angular grids for H and He will be reduced by one unit
Core-polarized basis detected: some atoms will have their core
                               angular grid increased.

Total number of grid points                  ...    34582
Total number of batches                      ...      543
Average number of points per batch           ...       63
Average number of grid points per atom       ...     5764
Grids setup in   0.8 sec
Initializing property integral containers    ... done (  0.0 sec)

SHARK setup successfully completed in   1.2 seconds

Maximum memory used throughout the entire STARTUP-calculation: 13.2 MB


           ************************************************************
           *        Program running with 8 parallel MPI-processes     *
           *              working on a common directory               *
           ************************************************************
-------------------------------------------------------------------------------
                                 ORCA GUESS
                   Start orbitals & Density for SCF / CASSCF
-------------------------------------------------------------------------------

------------
SCF SETTINGS
------------
Hamiltonian:
 Density Functional     Method          .... DFT(GTOs)
  Functional kind                       .... Exchange
  Functional name                       .... Re-regularized SCAN exchange by Furness et al
  Functional family                     .... MGGA
  Functional refs                              
    [ 0] J. W. Furness, A. D. Kaplan, J. Ning, J. P. Perdew, and J. Sun.,  J. Phys. Chem. Lett. 11, 8208-8215 (2020), doi: 10.1021/acs.jpclett.0c02405
    [ 1] J. W. Furness, A. D. Kaplan, J. Ning, J. P. Perdew, and J. Sun.,  J. Phys. Chem. Lett. 11, 9248-9248 (2020), doi: 10.1021/acs.jpclett.0c03077
  Functional external parameters        .... 6
    Parameter  0 _c1        =  6.670000e-01 : c1 parameter        
    Parameter  1 _c2        =  8.000000e-01 : c2 parameter        
    Parameter  2 _d         =  1.240000e+00 : d parameter         
    Parameter  3 _k1        =  6.500000e-02 : k1 parameter        
    Parameter  4 _eta       =  1.000000e-03 : eta parameter       
    Parameter  5 _dp2       =  3.610000e-01 : dp2 parameter       
  Functional kind                       .... Correlation
  Functional name                       .... Re-regularized SCAN correlation by Furness et al
  Functional family                     .... MGGA
  Functional refs                              
    [ 0] J. W. Furness, A. D. Kaplan, J. Ning, J. P. Perdew, and J. Sun.,  J. Phys. Chem. Lett. 11, 8208-8215 (2020), doi: 10.1021/acs.jpclett.0c02405
    [ 1] J. W. Furness, A. D. Kaplan, J. Ning, J. P. Perdew, and J. Sun.,  J. Phys. Chem. Lett. 11, 9248-9248 (2020), doi: 10.1021/acs.jpclett.0c03077
  Functional external parameters        .... 1
    Parameter  0 _eta       =  1.000000e-03 : Regularization parameter
 Gradients option       PostSCFGGA      .... off
 RI-approximation to the Coulomb term is turned on
   Number of AuxJ basis functions       .... 163


General Settings:
 Integral files         IntName         .... ts_optfreq
 Hartree-Fock type      HFTyp           .... RHF
 Total Charge           Charge          ....   -1
 Multiplicity           Mult            ....    1
 Number of Electrons    NEL             ....   62
 Basis Dimension        Dim             ....   97
 Nuclear Repulsion      ENuc            ....    180.7350767788 Eh

Convergence Acceleration:
 AO-DIIS                CNVDIIS         .... on
   Start iteration      DIISMaxIt       ....    12
   Startup error        DIISStart       ....  0.200000
   # of expansion vecs  DIISMaxEq       ....     5
   Bias factor          DIISBfac        ....   1.050
   Max. coefficient     DIISMaxC        ....  10.000
 MO-DIIS                CNVKDIIS        .... off
 Trust-Rad. Augm. Hess. CNVTRAH         .... auto
   Auto Start mean grad. ratio tolernc. ....  1.125000
   Auto Start start iteration           ....    50
   Auto Start num. interpolation iter.  ....    10
   Max. Number of Micro iterations      ....    24
   Max. Number of Macro iterations      .... Maxiter - #DIIS iter
   Number of Davidson start vectors     ....     2
   Converg. threshold    (grad. norm)   ....   1.000e-05
   Grad. Scal. Fac. for Micro threshold ....   0.100
   Minimum threshold for Micro iter.    ....   1.000e-02
   NR start threshold (gradient norm)   ....   1.000e-04
   Initial trust radius                 ....   0.400
   Minimum AH scaling param. (alpha)    ....   1.000
   Maximum AH scaling param. (alpha)    .... 1000.000
   Quad. conv. algorithm                .... NR
   White noise on init. David. guess    .... on
   Maximum white noise                  ....   0.010
   Pseudo random numbers                .... off
   Inactive MOs                         .... canonical
   Orbital update algorithm             .... Taylor
   Preconditioner                       .... Diag
   Full preconditioner red. dimension   ....   250
   COSX micro iterations for RIJONX calc.... off
 SOSCF                 CNVSOSCF           .... on
   Start iteration     SOSCFMaxIt         ....   150
   Startup grad/error  SOSCFStart         ....  0.003300
   Hessian update      SOSCFHessUp        .... L-BFGS
   Autom. constraints  SOSCFAutoConstrain .... off
 Level Shifting         CNVShift        .... on
   Level shift para.    LevelShift      ....    0.2500
   Turn off err/grad.   ShiftErr        ....    0.0010
 Zerner damping         CNVZerner       .... off
 Static damping         CNVDamp         .... on
   Fraction old density DampFac         ....    0.7000
   Max. Damping (<1)    DampMax         ....    0.9800
   Min. Damping (>=0)   DampMin         ....    0.0000
   Turn off err/grad.   DampErr         ....    0.1000

SCF Procedure:
 Maximum # iterations   MaxIter         ....   150
 SCF integral mode      SCFMode         .... Direct
   Integral package                     .... SHARK and LIBINT hybrid scheme
 Reset frequency        DirectResetFreq ....    20
 Integral Threshold     Thresh          ....  2.500e-11 Eh
 Primitive CutOff       TCut            ....  2.500e-12 Eh

Convergence Tolerance:
 Convergence Check Mode ConvCheckMode   .... Total+1el-Energy
 Convergence forced     ConvForced      .... 0
 Energy Change          TolE            ....  1.000e-08 Eh
 1-El. energy change                    ....  1.000e-05 Eh
 Orbital Gradient       TolG            ....  1.000e-05
 Orbital Rotation angle TolX            ....  1.000e-05
 DIIS Error             TolErr          ....  5.000e-07

------------------------------
INITIAL GUESS: MODEL POTENTIAL
------------------------------
Loading Hartree-Fock densities                     ... done
Calculating cut-offs                               ... done
Initializing the effective Hamiltonian             ... done
Setting up the integral package (SHARK)            ... done
Starting the Coulomb interaction                   ... done (   0.1 sec)
Making the grid                                    ... done (   0.3 sec)
Mapping shells                                     ... done
Starting the XC term evaluation                    ... done (   0.1 sec)
  promolecular density results
     # of electrons  =     60.997966555
     EX              =   -122.579855316
     EC              =     -2.647507448
     EX+EC           =   -125.227362764
Transforming the Hamiltonian                       ... done (   0.0 sec)
Diagonalizing the Hamiltonian                      ... done (   0.0 sec)
Back transforming the eigenvectors                 ... done (   0.0 sec)
Now organizing SCF variables                       ... done
                      ------------------
                      INITIAL GUESS DONE (   0.6 sec)
                      ------------------
             **** ENERGY FILE WAS UPDATED (ts_optfreq.en.tmp) ****
Finished Guess after   1.1 sec
Maximum memory used throughout the entire GUESS-calculation: 7.0 MB


           ************************************************************
           *        Program running with 8 parallel MPI-processes     *
           *              working on a common directory               *
           ************************************************************

-------------------------------------------------------------------------------------------
                                      ORCA LEAN-SCF
                              memory conserving SCF solver
-------------------------------------------------------------------------------------------

----------------------------------------D-I-I-S--------------------------------------------
Iteration    Energy (Eh)           Delta-E    RMSDP     MaxDP     DIISErr   Damp  Time(sec)
-------------------------------------------------------------------------------------------
               ***  Starting incremental Fock matrix formation  ***
    1    -3074.2189411645772452     0.00e+00  8.41e-03  7.46e-02  1.31e-01  0.700   0.3
    2    -3074.2499738608848929    -3.10e-02  6.90e-03  4.79e-02  7.27e-02  0.700   0.5
                               ***Turning on AO-DIIS***
    3    -3074.2642006673977448    -1.42e-02  3.85e-03  2.41e-02  3.40e-02  0.700   0.5
    4    -3074.2723648899373075    -8.16e-03  7.15e-03  4.88e-02  2.02e-02  0.000   0.4
    5    -3074.2895684615482423    -1.72e-02  1.05e-03  9.71e-03  5.66e-03  0.000   0.6
                              *** Initializing SOSCF ***
---------------------------------------S-O-S-C-F--------------------------------------
Iteration    Energy (Eh)           Delta-E    RMSDP     MaxDP     MaxGrad    Time(sec)
--------------------------------------------------------------------------------------
    6    -3074.2897079107319769    -1.39e-04  2.61e-04  2.06e-03  1.35e-03     0.4
               *** Restarting incremental Fock matrix formation ***
    7    -3074.2897160998513755    -8.19e-06  2.07e-04  1.70e-03  2.64e-04     0.2
    8    -3074.2897161434916597    -4.36e-08  7.65e-05  5.75e-04  3.27e-04     0.2
    9    -3074.2897169930988639    -8.50e-07  5.17e-05  4.19e-04  7.38e-05     0.3
   10    -3074.2897170024748448    -9.38e-09  2.28e-05  2.04e-04  7.76e-05     0.2
                 **** Energy Check signals convergence ****

               *****************************************************
               *                     SUCCESS                       *
               *           SCF CONVERGED AFTER  10 CYCLES          *
               *****************************************************

             **** ENERGY FILE WAS UPDATED (ts_optfreq.en.tmp) ****

----------------
TOTAL SCF ENERGY
----------------

Total Energy       :      -3074.28971708112658 Eh          -83655.67617 eV

Components:
Nuclear Repulsion  :        180.73507677880610 Eh            4918.05147 eV
Electronic Energy  :      -3255.02479385993229 Eh          -88573.72764 eV
One Electron Energy:      -4644.93380254822387 Eh         -126395.07457 eV
Two Electron Energy:       1389.90900868829135 Eh           37821.34693 eV

Virial components:
Potential Energy   :      -6143.99822981900161 Eh         -167186.69144 eV
Kinetic Energy     :       3069.70851273787503 Eh           83531.01527 eV
Virial Ratio       :          2.00149239066975

DFT components:
N(Alpha)           :       30.999999236671 electrons
N(Beta)            :       30.999999236671 electrons
N(Total)           :       61.999998473342 electrons
E(X)               :     -123.583352123698 Eh       
E(C)               :       -2.673569625722 Eh       
E(XC)              :     -126.256921749420 Eh       

---------------
SCF CONVERGENCE
---------------

  Last Energy change         ...    9.3760e-09  Tolerance :   1.0000e-08
  Last MAX-Density change    ...    2.0408e-04  Tolerance :   1.0000e-07
  Last RMS-Density change    ...    2.2807e-05  Tolerance :   5.0000e-09
  Last DIIS Error            ...    1.3530e-03  Tolerance :   5.0000e-07
  Last Orbital Gradient      ...    7.7551e-05  Tolerance :   1.0000e-05
  Last Orbital Rotation      ...    5.6639e-05  Tolerance :   1.0000e-05


----------------
ORBITAL ENERGIES
----------------

  NO   OCC          E(Eh)            E(eV) 
   0   2.0000    -482.000060    -13115.8884 
   1   2.0000    -100.969683     -2747.5248 
   2   2.0000     -62.072605     -1689.0815 
   3   2.0000     -55.852499     -1519.8238 
   4   2.0000     -55.850674     -1519.7741 
   5   2.0000     -55.850674     -1519.7741 
   6   2.0000      -9.926194      -270.1055 
   7   2.0000      -9.126067      -248.3329 
   8   2.0000      -8.404170      -228.6891 
   9   2.0000      -6.868671      -186.9060 
  10   2.0000      -6.863988      -186.7786 
  11   2.0000      -6.863988      -186.7786 
  12   2.0000      -6.206416      -168.8852 
  13   2.0000      -6.200642      -168.7281 
  14   2.0000      -6.200642      -168.7280 
  15   2.0000      -2.305299       -62.7304 
  16   2.0000      -2.303911       -62.6926 
  17   2.0000      -2.303911       -62.6926 
  18   2.0000      -2.299550       -62.5739 
  19   2.0000      -2.299545       -62.5738 
  20   2.0000      -0.560759       -15.2590 
  21   2.0000      -0.514673       -14.0050 
  22   2.0000      -0.461147       -12.5484 
  23   2.0000      -0.256902        -6.9907 
  24   2.0000      -0.256902        -6.9906 
  25   2.0000      -0.150231        -4.0880 
  26   2.0000      -0.074018        -2.0141 
  27   2.0000      -0.074018        -2.0141 
  28   2.0000      -0.063246        -1.7210 
  29   2.0000      -0.063245        -1.7210 
  30   2.0000      -0.055857        -1.5200 
  31   0.0000       0.122113         3.3229 
  32   0.0000       0.249450         6.7879 
  33   0.0000       0.327279         8.9057 
  34   0.0000       0.327281         8.9058 
  35   0.0000       0.360155         9.8003 
  36   0.0000       0.360155         9.8003 
  37   0.0000       0.369309        10.0494 
  38   0.0000       0.411309        11.1923 
  39   0.0000       0.448162        12.1951 
  40   0.0000       0.448164        12.1952 
  41   0.0000       0.503183        13.6923 
*Only the first 10 virtual orbitals were printed.

                    ********************************
                    * MULLIKEN POPULATION ANALYSIS *
                    ********************************

-----------------------
MULLIKEN ATOMIC CHARGES
-----------------------
   0 C :   -0.241257
   1 H :    0.181040
   2 H :    0.181034
   3 H :    0.181034
   4 Br:   -0.648029
   5 Cl:   -0.653822
Sum of atomic charges:   -1.0000000

--------------------------------
MULLIKEN REDUCED ORBITAL CHARGES
--------------------------------
  0 C s       :     3.328089  s :     3.328089
      pz      :     0.688147  p :     2.889442
      px      :     1.100651
      py      :     1.100644
      dz2     :     0.011672  d :     0.023725
      dxz     :     0.001282
      dyz     :     0.001282
      dx2y2   :     0.004745
      dxy     :     0.004745

  1 H s       :     0.798921  s :     0.798921
      pz      :     0.004213  p :     0.020039
      px      :     0.003344
      py      :     0.012482

  2 H s       :     0.798928  s :     0.798928
      pz      :     0.004213  p :     0.020039
      px      :     0.010197
      py      :     0.005629

  3 H s       :     0.798928  s :     0.798928
      pz      :     0.004213  p :     0.020039
      px      :     0.010197
      py      :     0.005629

  4 Brs       :     7.965872  s :     7.965872
      pz      :     5.676949  p :    17.668652
      px      :     5.995852
      py      :     5.995851
      dz2     :     2.008225  d :    10.013505
      dxz     :     2.002613
      dyz     :     2.002613
      dx2y2   :     2.000027
      dxy     :     2.000027

  5 Cls       :     5.960285  s :     5.960285
      pz      :     3.690383  p :    11.678517
      px      :     3.994066
      py      :     3.994068
      dz2     :     0.008362  d :     0.015019
      dxz     :     0.003280
      dyz     :     0.003280
      dx2y2   :     0.000049
      dxy     :     0.000049



                     *******************************
                     * LOEWDIN POPULATION ANALYSIS *
                     *******************************

----------------------
LOEWDIN ATOMIC CHARGES
----------------------
   0 C :   -0.457829
   1 H :    0.156289
   2 H :    0.156289
   3 H :    0.156289
   4 Br:   -0.489288
   5 Cl:   -0.521750

-------------------------------
LOEWDIN REDUCED ORBITAL CHARGES
-------------------------------
  0 C s       :     3.132349  s :     3.132349
      pz      :     0.885825  p :     3.272596
      px      :     1.193387
      py      :     1.193384
      dz2     :     0.022406  d :     0.052884
      dxz     :     0.001871
      dyz     :     0.001871
      dx2y2   :     0.013368
      dxy     :     0.013368

  1 H s       :     0.794959  s :     0.794959
      pz      :     0.008508  p :     0.048752
      px      :     0.007503
      py      :     0.032741

  2 H s       :     0.794959  s :     0.794959
      pz      :     0.008508  p :     0.048752
      px      :     0.026431
      py      :     0.013812

  3 H s       :     0.794959  s :     0.794959
      pz      :     0.008508  p :     0.048752
      px      :     0.026431
      py      :     0.013812

  4 Brs       :     7.863278  s :     7.863278
      pz      :     5.638396  p :    17.607565
      px      :     5.984585
      py      :     5.984584
      dz2     :     2.012585  d :    10.018446
      dxz     :     2.002890
      dyz     :     2.002890
      dx2y2   :     2.000041
      dxy     :     2.000041

  5 Cls       :     5.865639  s :     5.865639
      pz      :     3.653319  p :    11.621295
      px      :     3.983988
      py      :     3.983988
      dz2     :     0.021918  d :     0.034817
      dxz     :     0.006331
      dyz     :     0.006331
      dx2y2   :     0.000119
      dxy     :     0.000119



                      *****************************
                      * MAYER POPULATION ANALYSIS *
                      *****************************

  NA   - Mulliken gross atomic population
  ZA   - Total nuclear charge
  QA   - Mulliken gross atomic charge
  VA   - Mayer's total valence
  BVA  - Mayer's bonded valence
  FA   - Mayer's free valence

  ATOM       NA         ZA         QA         VA         BVA        FA
  0 C      6.2413     6.0000    -0.2413     3.7919     3.7919     0.0000
  1 H      0.8190     1.0000     0.1810     0.9470     0.9470    -0.0000
  2 H      0.8190     1.0000     0.1810     0.9470     0.9470     0.0000
  3 H      0.8190     1.0000     0.1810     0.9470     0.9470    -0.0000
  4 Br    35.6480    35.0000    -0.6480     0.5608     0.5608     0.0000
  5 Cl    17.6538    17.0000    -0.6538     0.5594     0.5594    -0.0000

  Mayer bond orders larger than 0.100000
B(  0-C ,  1-H ) :   0.9581 B(  0-C ,  2-H ) :   0.9581 B(  0-C ,  3-H ) :   0.9581 
B(  0-C ,  4-Br) :   0.4592 B(  0-C ,  5-Cl) :   0.4586 B(  4-Br,  5-Cl) :   0.1218 


-------
TIMINGS
-------

Total SCF time: 0 days 0 hours 0 min 4 sec 

Total time                  ....       4.160 sec
Sum of individual times     ....       3.688 sec  ( 88.7%)

SCF preparation             ....       0.245 sec  (  5.9%)
Fock matrix formation       ....       2.487 sec  ( 59.8%)
  Startup                   ....       0.037 sec  (  1.5% of F)
  Split-RI-J                ....       0.276 sec  ( 11.1% of F)
  XC integration            ....       2.096 sec  ( 84.3% of F)
    Basis function eval.    ....       0.315 sec  ( 15.0% of XC)
    Density eval.           ....       0.367 sec  ( 17.5% of XC)
    XC-Functional eval.     ....       0.227 sec  ( 10.8% of XC)
    XC-Potential eval.      ....       0.410 sec  ( 19.6% of XC)
Diagonalization             ....       0.000 sec  (  0.0%)
Density matrix formation    ....       0.121 sec  (  2.9%)
Total Energy calculation    ....       0.112 sec  (  2.7%)
Population analysis         ....       0.011 sec  (  0.3%)
Orbital Transformation      ....       0.111 sec  (  2.7%)
Orbital Orthonormalization  ....       0.000 sec  (  0.0%)
DIIS solution               ....       0.508 sec  ( 12.2%)
SOSCF solution              ....       0.093 sec  (  2.2%)
Finished LeanSCF after   4.2 sec

Maximum memory used throughout the entire LEANSCF-calculation: 6.6 MB


           ************************************************************
           *        Program running with 8 parallel MPI-processes     *
           *              working on a common directory               *
           ************************************************************

------------------------------------------------------------------------------
                         ORCA PROPERTY INTEGRAL CALCULATIONS
------------------------------------------------------------------------------

GBWName                                   ... ts_optfreq.gbw
Number of atoms                           ...      6
Number of basis functions                 ...     97
Max core memory                           ...   4096 MB

Dipole integrals                          ... YES
Quadrupole integrals                      ...  NO
Linear momentum integrals                 ...  NO
Angular momentum integrals                ...  NO
Higher moments length integrals           ...  NO
Higher moments velocity integrals         ...  NO
Kinetic energy integrals                  ...  NO
GIAO right hand sides                     ...  NO
GIAO dipole derivative integrals          ...  NO
SOC integrals                             ...  NO
EPR diamagnetic integrals (GIAO)          ...  NO
EPR gauge integrals                       ...  NO
Field gradient integrals                  ...  NO (   0 nuclei)
Spin-dipole/Fermi contact integrals       ...  NO (   0 nuclei)
Contact density integrals                 ...  NO (   0 nuclei)
Nucleus-orbit integrals                   ...  NO (   0 nuclei)
Geometric perturbations                   ...  NO (   6 nuclei)

Choice of electric origin   ... Center of mass
Position of electric origin ... ( -0.0000,  0.0000,  1.5880) 
Choice of magnetic origin   ... GIAO
Position of magnetic origin ... (  0.0000,  0.0000,  0.0000) 

Calculating integrals                     ... Electric Dipole (Length)     done (  0.0 sec)

Property integrals calculated in   0.1 sec

Maximum memory used throughout the entire PROPINT-calculation: 7.1 MB


-------------------------------------------------------------------------------
                          DFT DISPERSION CORRECTION                            
                                                                               
                                DFTD4 V3.4.0                                   
-------------------------------------------------------------------------------
The R2SCAN3C composite method is recognized
Using three-body term ABC
Active option DFTDOPT                   ...         5   

-------------------------   ----------------
Dispersion correction           -0.001156267
-------------------------   ----------------

------------------   -----------------
gCP correction             0.004894424
------------------   -----------------

-------------------------   --------------------
FINAL SINGLE POINT ENERGY     -3074.285978923819
-------------------------   --------------------



           ************************************************************
           *        Program running with 8 parallel MPI-processes     *
           *              working on a common directory               *
           ************************************************************
------------------------------------------------------------------------------
                         ORCA SCF GRADIENT CALCULATION
------------------------------------------------------------------------------

Nuc. rep. gradient        (SHARK) ... done (  0.0 sec)
HCore & Overlap gradient  (SHARK) ... done (  0.0 sec)
Split-RIJ-J gradient      (SHARK) ... done (  0.8 sec)
XC gradient                       ... done (  0.4 sec)
Dispersion correction             ... done (  0.2 sec)

-------------------
DISPERSION GRADIENT
-------------------

   1   C   :    0.000000000   -0.000000000   -0.000006543
   2   H   :    0.000000000   -0.000001194    0.000000397
   3   H   :   -0.000001034    0.000000597    0.000000397
   4   H   :    0.000001034    0.000000597    0.000000397
   5   Br  :   -0.000000000   -0.000000000    0.000086351
   6   Cl  :   -0.000000000    0.000000000   -0.000081000

Difference to translation invariance:
           :   -0.0000000000    0.0000000000    0.0000000000

Difference to rotation invariance:
           :   -0.0000000000   -0.0000000000   -0.0000000000

Norm of the Dispersion gradient    ...    0.0001185963
RMS gradient                       ...    0.0000279534
MAX gradient                       ...    0.0000863510
gCP correction                   ... done

------------------
CARTESIAN GRADIENT
------------------

   1   C   :    0.000000000    0.000009118    0.006398599
   2   H   :    0.000000000   -0.004192414   -0.003264775
   3   H   :   -0.003631064    0.002091889   -0.003262223
   4   H   :    0.003631063    0.002091889   -0.003262223
   5   Br  :    0.000000000    0.000000976   -0.014935594
   6   Cl  :   -0.000000000   -0.000001457    0.018326214

Difference to translation invariance:
           :    0.0000000000    0.0000000000   -0.0000000008

Difference to rotation invariance:
           :   -0.0000162215    0.0000000006   -0.0000000003

Norm of the Cartesian gradient     ...    0.0261630424
RMS gradient                       ...    0.0061666882
MAX gradient                       ...    0.0183262140

-------
TIMINGS
-------

Total SCF gradient time     ....        1.480 sec

Densities                   ....       0.000 sec  (  0.0%)
One electron gradient       ....       0.009 sec  (  0.6%)
RI-J Coulomb gradient       ....       0.779 sec  ( 52.6%)
XC gradient                 ....       0.411 sec  ( 27.8%)

Maximum memory used throughout the entire SCFGRAD-calculation: 26.8 MB


           ************************************************************
           *        Program running with 8 parallel MPI-processes     *
           *              working on a common directory               *
           ************************************************************

------------------------------------------------------------------------------
                         ORCA PROPERTY INTEGRAL CALCULATIONS
------------------------------------------------------------------------------

GBWName                                   ... ts_optfreq.gbw
Number of atoms                           ...      6
Number of basis functions                 ...     97
Max core memory                           ...   4096 MB

Dipole integrals                          ...  NO
Quadrupole integrals                      ...  NO
Linear momentum integrals                 ...  NO
Angular momentum integrals                ...  NO
Higher moments length integrals           ...  NO
Higher moments velocity integrals         ...  NO
Kinetic energy integrals                  ...  NO
GIAO right hand sides                     ...  NO
GIAO dipole derivative integrals          ...  NO
SOC integrals                             ...  NO
EPR diamagnetic integrals (GIAO)          ...  NO
EPR gauge integrals                       ...  NO
Field gradient integrals                  ...  NO (   0 nuclei)
Spin-dipole/Fermi contact integrals       ...  NO (   0 nuclei)
Contact density integrals                 ...  NO (   0 nuclei)
Nucleus-orbit integrals                   ...  NO (   0 nuclei)
Geometric perturbations                   ... YES (   6 nuclei)

Choice of electric origin   ... Center of mass
Position of electric origin ... ( -0.0000,  0.0000,  1.5880) 
Choice of magnetic origin   ... GIAO
Position of magnetic origin ... (  0.0000,  0.0000,  0.0000) 

Calculating integrals                     ... Geometrical perturbation right hand sides

-----------------------
GEOMETRIC PERTURBATIONS (6 nuclei)
-----------------------

MaxCore                            ...   4096 MB
Number of batches                  ...      1

BATCH   0: Atoms    0 -    5 ( 18 perturbations)
   => H(core) and overlap derivative integrals     ... done (     0.1 sec)
   => Making and storing internal U-coefficients   ... done (     0.0 sec)
   => RI-J derivative integrals                    ... done (     1.0 sec)
   => RI-J response operators                      ... done (     0.1 sec)
   => XC derivative integrals                      ... done (     5.2 sec)
   => XC response operators                        ... done (     1.1 sec)
   => Completing and storing right hand sides      ... done (     0.0 sec)
   => Total time for right hand sides =   8.1 sec

  geometrical perturbations done (  8.2 sec)

Property integrals calculated in   8.2 sec

Maximum memory used throughout the entire PROPINT-calculation: 17.5 MB


           ************************************************************
           *        Program running with 8 parallel MPI-processes     *
           *              working on a common directory               *
           ************************************************************
------------------------------------------------------------------------------
                            ORCA SCF RESPONSE CALCULATION
------------------------------------------------------------------------------

GBWName                                 ... ts_optfreq.gbw
Number of atoms                         ...      6
Number of basis functions               ...     97
Max core memory                         ...   4096 MB

Electric field perturbation             ...  NO
Quadrupolar field perturbation          ...  NO
Magnetic field perturbation (no GIAO)   ...  NO
Magnetic field perturbation (with GIAO) ...  NO
Linear momentum (velocity) perturbation ...  NO
Spin-orbit coupling perturbation        ...  NO
Choice of electric origin               ... Center of mass
Position of electric origin             ...    -0.000000     0.000000     1.588003
Choice of magnetic origin               ... GIAO
Position of magnetic origin             ...     0.000000     0.000000     0.000000
Nuclear geometric perturbations         ... YES (  18 perturbations)
Nucleus-orbit perturbations             ...  NO (   0 perturbations)
Spin-dipole/Fermi contact perturbations ...  NO (   0 perturbations)

Total number of real perturbations      ...     18
Total number of imaginary perturbations ...      0
Total number of triplet perturbations   ...      0
Total number of SOC perturbations       ...      0

Using XC Grid                  ... (ts_optfreq.grid_cpscf.tmp) 
Recalculating density on grid  ... (ts_optfreq.grho_cpscf0.tmp) done
Calculating the xc-kernel      ... (ts_optfreq.fxc_cpscf0.tmp) done

                                **********************
                                * REAL PERTURBATIONS *
                                **********************



-------------------
SHARK CP-SCF DRIVER
-------------------

Dimension of the orbital basis          ...     97
Dimension of the CPSCF-problem          ...   2046
Number of operators                     ...      1
Max. number of iterations               ...    128
Convergence Tolerance                   ... 1.0e-04
Number of perturbations                 ...     18
Perturbation type                       ... REAL

----------------------------
POPLE LINEAR EQUATION SOLVER
----------------------------

  ITERATION   0:   ||err||_max =   5.8067e-01 (   0.8 sec   0/ 18 done)
  ITERATION   1:   ||err||_max =   3.0122e-02 (   0.3 sec   0/ 18 done)
  ITERATION   2:   ||err||_max =   5.3833e-03 (   0.6 sec   0/ 18 done)
  ITERATION   3:   ||err||_max =   1.8192e-03 (   0.8 sec   5/ 18 done)
  ITERATION   4:   ||err||_max =   7.6839e-04 (   0.7 sec   6/ 18 done)
  ITERATION   5:   ||err||_max =   1.8386e-04 (   0.6 sec  17/ 18 done)
  ITERATION   6:   ||err||_max =   2.5018e-05 (   0.2 sec  18/ 18 done)

CP-SCF equations solved in   4.0 sec
Response densities calculated in   0.0 sec

Maximum memory used throughout the entire SCFRESP-calculation: 10.0 MB


           ************************************************************
           *        Program running with 8 parallel MPI-processes     *
           *              working on a common directory               *
           ************************************************************

------------------------------------------------------------------------------
                              ORCA PROPERTY CALCULATIONS
------------------------------------------------------------------------------

GBWName                                 ... ts_optfreq.gbw
Number of atoms                         ...      6
Number of basis functions               ...     97
Max core memory                         ...   4096 MB

Electric properties:
Dipole moment                           ...  NO
Quadrupole moment                       ...  NO
Static polarizability (Dipole/Dipole)   ...  NO
Static polarizability (Dipole/Quad.)    ...  NO
Static polarizability (Quad./Quad.)     ...  NO
Static polarizability (Velocity)        ...  NO
Static hyperpolarizability              ...  NO

Atomic electric properties:
Dipole moment                           ...  NO
Quadrupole moment                       ...  NO
Static polarizability                   ...  NO

Choice of electric origin               ... Center of mass
Position of electric origin             ...    -0.000000     0.000000     1.588003

General magnetic properties:
Magnetizability                         ...  NO

EPR properties:
g-Tensor (aka g-matrix)                 ...  NO
Zero-Field splitting spin-orbit         ...  NO
Zero-field splitting spin-spin          ...  NO
Hyperfine couplings                     ...  NO (   0 nuclei)
Quadrupole couplings                    ...  NO (   0 nuclei)
Contact density                         ...  NO (   0 nuclei)

NMR properties:
Chemical shifts                         ...  NO (   0 nuclei)
Spin-rotation constants                 ...  NO (   0 nuclei)
Spin-spin couplings                     ...  NO (   0 nuclei,    0 pairs)

Choice of magnetic origin               ... GIAO
Position of magnetic origin             ...     0.000000     0.000000     0.000000

Properties with geometric perturbations:
SCF Hessian                             ... YES
IR spectrum                             ... YES
VCD spectrum                            ...  NO
X-ray spectroscopy properties:
SCF XES/XAS/RIXS spectra                ...  NO

SCF SOC stabilization energy            ...  NO
Diagonal Born-Oppenheimer correction    ...  NO

-----------
SCF HESSIAN
-----------

Occupied/Occupied contributions to the Hessian:
   => Occupied/Occupied contributions              ... done (  0.0 sec)
Perturbed density contributions to the Hessian:
   => Perturbed density contributions              ... done (  0.0 sec)
Explicit contributions to the Hessian:
   => Nuclear repulsion Hessian                    ... done (  0.0 sec)
   => HCore and overlap Hessian                    ... done (  0.2 sec)
   => RI-J Hessian                                 ... done (  1.4 sec)
   => XC-Hessian                                   ... done (  4.3 sec)
   => Van der Waals-Hessian                        ... done (  0.8 sec)
   => GCP-Hessian                                  ... done (  0.0 sec)
   => Explicit contributions done
Dipole derivatives                                 ... done (  0.0 sec)
Mass weighting the Hessian           ... done
Calculating normal modes             ... done
Scaling frequencies                  ... done

-----------------------
VIBRATIONAL FREQUENCIES
-----------------------

Scaling factor for frequencies =  1.000000000  (already applied!)

     0:       0.00 cm**-1
     1:       0.00 cm**-1
     2:       0.00 cm**-1
     3:       0.00 cm**-1
     4:       0.00 cm**-1
     5:       0.00 cm**-1
     6:    -326.12 cm**-1  ***imaginary mode***
     7:     172.34 cm**-1
     8:     172.42 cm**-1
     9:     216.32 cm**-1
    10:     990.01 cm**-1
    11:     990.22 cm**-1
    12:    1048.77 cm**-1
    13:    1379.58 cm**-1
    14:    1379.59 cm**-1
    15:    3227.97 cm**-1
    16:    3435.94 cm**-1
    17:    3436.75 cm**-1


------------
NORMAL MODES
------------

These modes are the Cartesian displacements weighted by the diagonal matrix
M(i,i)=1/sqrt(m[i]) where m[i] is the mass of the displaced atom
Thus, these vectors are normalized but *not* orthogonal

                  0          1          2          3          4          5    
      0       0.000000   0.000000   0.000000   0.000000   0.000000   0.000000
      1       0.000000   0.000000   0.000000   0.000000   0.000000   0.000000
      2       0.000000   0.000000   0.000000   0.000000   0.000000   0.000000
      3       0.000000   0.000000   0.000000   0.000000   0.000000   0.000000
      4       0.000000   0.000000   0.000000   0.000000   0.000000   0.000000
      5       0.000000   0.000000   0.000000   0.000000   0.000000   0.000000
      6       0.000000   0.000000   0.000000   0.000000   0.000000   0.000000
      7       0.000000   0.000000   0.000000   0.000000   0.000000   0.000000
      8       0.000000   0.000000   0.000000   0.000000   0.000000   0.000000
      9       0.000000   0.000000   0.000000   0.000000   0.000000   0.000000
     10       0.000000   0.000000   0.000000   0.000000   0.000000   0.000000
     11       0.000000   0.000000   0.000000   0.000000   0.000000   0.000000
     12       0.000000   0.000000   0.000000   0.000000   0.000000   0.000000
     13       0.000000   0.000000   0.000000   0.000000   0.000000   0.000000
     14       0.000000   0.000000   0.000000   0.000000   0.000000   0.000000
     15       0.000000   0.000000   0.000000   0.000000   0.000000   0.000000
     16       0.000000   0.000000   0.000000   0.000000   0.000000   0.000000
     17       0.000000   0.000000   0.000000   0.000000   0.000000   0.000000
                  6          7          8          9         10         11    
      0      -0.000000   0.487220  -0.000002  -0.000000   0.000000   0.001022
      1       0.000129  -0.000002  -0.487231   0.000394  -0.000983   0.000000
      2      -0.977135   0.000000  -0.000079   0.160607  -0.000071   0.000000
      3      -0.000000   0.501249  -0.000002  -0.000000  -0.000000  -0.026217
      4       0.024486  -0.000002  -0.496572  -0.001853   0.019920  -0.000000
      5       0.068894   0.000000   0.041198   0.263394   0.811797  -0.000006
      6       0.021229   0.497727  -0.002022  -0.001878   0.002418  -0.021591
      7      -0.011971   0.002030  -0.500064   0.001503   0.024444  -0.002670
      8       0.070742  -0.035735  -0.020596   0.263538  -0.411886  -0.706494
      9      -0.021229   0.497727   0.002018   0.001878  -0.002418  -0.021591
     10      -0.011971  -0.002034  -0.500064   0.001503   0.024444   0.002670
     11       0.070742   0.035735  -0.020597   0.263538  -0.411876   0.706500
     12       0.000000  -0.044908   0.000000   0.000000  -0.000000  -0.003219
     13      -0.000018   0.000000   0.044909  -0.000036   0.003220  -0.000000
     14       0.077424  -0.000000  -0.000029  -0.383230   0.000072  -0.000000
     15       0.000000  -0.106409   0.000000   0.000000   0.000000   0.008882
     16      -0.000018   0.000000   0.106412  -0.000085  -0.008880   0.000000
     17       0.150568   0.000000   0.000093   0.786794   0.000201  -0.000000
                 12         13         14         15         16         17    
      0       0.000000   0.094104  -0.000011   0.000000   0.000000  -0.102342
      1       0.000039   0.000011   0.094102   0.000095   0.102341   0.000000
      2       0.006299  -0.000000  -0.000020   0.003413  -0.000001   0.000000
      3       0.000000  -0.808408   0.000092  -0.000000   0.000000  -0.013548
      4      -0.012563   0.000009   0.081321   0.576495  -0.812413  -0.000003
      5      -0.582766   0.000003   0.024612  -0.012241   0.020441   0.000000
      6      -0.010939  -0.141112  -0.385290   0.500183   0.356909   0.605493
      7       0.005900  -0.385356  -0.585923  -0.288808  -0.192499  -0.357403
      8      -0.574067   0.021502  -0.012034  -0.012330  -0.010225  -0.017748
      9       0.010939  -0.141024   0.385322  -0.500183  -0.356914   0.605490
     10       0.005900   0.385223  -0.586011  -0.288808  -0.192502   0.357402
     11      -0.574067  -0.021505  -0.012029  -0.012330  -0.010225   0.017748
     12       0.000000  -0.000176   0.000000  -0.000000  -0.000000   0.000150
     13      -0.000024  -0.000000  -0.000177   0.000000  -0.000151  -0.000000
     14       0.009261  -0.000000  -0.000002  -0.000107   0.000001   0.000000
     15      -0.000000  -0.000479   0.000000  -0.000000  -0.000000   0.000287
     16       0.000062  -0.000000  -0.000473  -0.000001  -0.000287  -0.000000
     17       0.026208  -0.000000  -0.000005   0.000135  -0.000001  -0.000000


-----------
IR SPECTRUM
-----------

 Mode   freq       eps      Int      T**2         TX        TY        TZ
       cm**-1   L/(mol*cm) km/mol    a.u.
----------------------------------------------------------------------------
  7:    172.34   0.001597    8.07  0.002893  ( 0.053782 -0.000000 -0.000000)
  8:    172.42   0.001596    8.06  0.002888  (-0.000000 -0.053743 -0.000112)
  9:    216.32   0.001347    6.81  0.001943  (-0.000000  0.000025 -0.044077)
 10:    990.01   0.000091    0.46  0.000029  (-0.000000  0.005328  0.000437)
 11:    990.22   0.000090    0.45  0.000028  (-0.005322 -0.000000 -0.000000)
 12:   1048.77   0.013210   66.76  0.003931  ( 0.000000 -0.000036  0.062696)
 13:   1379.58   0.001039    5.25  0.000235  (-0.015334 -0.000002 -0.000000)
 14:   1379.59   0.001054    5.33  0.000238  ( 0.000002 -0.015443 -0.000017)
 15:   3227.97   0.000143    0.72  0.000014  ( 0.000000  0.000009 -0.003712)
 16:   3435.94   0.000742    3.75  0.000067  (-0.000000 -0.008211 -0.000046)
 17:   3436.75   0.000742    3.75  0.000067  ( 0.008208 -0.000000 -0.000000)

* The epsilon (eps) is given for a Dirac delta lineshape.
** The dipole moment derivative (T) already includes vibrational overlap.

The first frequency considered to be a vibration is 7
The total number of vibrations considered is 11


--------------------------
THERMOCHEMISTRY AT 298.15K
--------------------------

Temperature         ...   298.15 K
Pressure            ...     1.00 atm
Total Mass          ...   130.39 AMU
Quasi RRHO          ...     True
Cut-Off Frequency   ...     1.00 cm^-1

Throughout the following assumptions are being made:
  (1) The electronic state is orbitally nondegenerate
  (2) There are no thermally accessible electronically excited states
  (3) Hindered rotations indicated by low frequency modes are not
      treated as such but are treated as vibrations and this may
      cause some error
  (4) All equations used are the standard statistical mechanics
      equations for an ideal gas
  (5) All vibrations are strictly harmonic

freq.     172.34  E(vib)   ...       0.38 
freq.     172.42  E(vib)   ...       0.38 
freq.     216.32  E(vib)   ...       0.34 
freq.     990.01  E(vib)   ...       0.02 
freq.     990.22  E(vib)   ...       0.02 
freq.    1048.77  E(vib)   ...       0.02 
freq.    1379.58  E(vib)   ...       0.01 
freq.    1379.59  E(vib)   ...       0.01 
freq.    3227.97  E(vib)   ...       0.00 
freq.    3435.94  E(vib)   ...       0.00 
freq.    3436.75  E(vib)   ...       0.00 

------------
INNER ENERGY
------------

The inner energy is: U= E(el) + E(ZPE) + E(vib) + E(rot) + E(trans)
    E(el)   - is the total energy from the electronic structure calculation
              = E(kin-el) + E(nuc-el) + E(el-el) + E(nuc-nuc)
    E(ZPE)  - the the zero temperature vibrational energy from the frequency calculation
    E(vib)  - the the finite temperature correction to E(ZPE) due to population
              of excited vibrational states
    E(rot)  - is the rotational thermal energy
    E(trans)- is the translational thermal energy

Summary of contributions to the inner energy U:
Electronic energy                ...  -3074.28597892 Eh
Zero point energy                ...      0.03747567 Eh      23.52 kcal/mol
Thermal vibrational correction   ...      0.00186948 Eh       1.17 kcal/mol
Thermal rotational correction    ...      0.00141627 Eh       0.89 kcal/mol
Thermal translational correction ...      0.00141627 Eh       0.89 kcal/mol
-----------------------------------------------------------------------
Total thermal energy                  -3074.24380123 Eh


Summary of corrections to the electronic energy:
(perhaps to be used in another calculation)
Total thermal correction                  0.00470202 Eh       2.95 kcal/mol
Non-thermal (ZPE) correction              0.03747567 Eh      23.52 kcal/mol
-----------------------------------------------------------------------
Total correction                          0.04217770 Eh      26.47 kcal/mol


--------
ENTHALPY
--------

The enthalpy is H = U + kB*T
                kB is Boltzmann's constant
Total thermal energy              ...  -3074.24380123 Eh 
Thermal Enthalpy correction       ...      0.00094421 Eh       0.59 kcal/mol
-----------------------------------------------------------------------
Total Enthalpy                    ...  -3074.24285702 Eh


Note: Rotational entropy computed according to Herzberg 
Infrared and Raman Spectra, Chapter V,1, Van Nostrand Reinhold, 1945 
Point Group:  C3v, Symmetry Number:   3  
Rotational constants in cm-1:     4.889017     0.031268     0.031268 

Vibrational entropy computed according to the QRRHO of S. Grimme
Chem.Eur.J. 2012 18 9955 using a reference frequency of 100.0 cm-1


-------
ENTROPY
-------

The entropy contributions are T*S = T*(S(el)+S(vib)+S(rot)+S(trans))
     S(el)   - electronic entropy
     S(vib)  - vibrational entropy
     S(rot)  - rotational entropy
     S(trans)- translational entropy
The entropies will be listed as multiplied by the temperature to get
units of energy

Electronic entropy                ...      0.00000000 Eh      0.00 kcal/mol
Vibrational entropy               ...      0.00337541 Eh      2.12 kcal/mol
Rotational entropy                ...      0.01099605 Eh      6.90 kcal/mol
Translational entropy             ...      0.01924704 Eh     12.08 kcal/mol
-----------------------------------------------------------------------
Final entropy term                ...      0.03361851 Eh     21.10 kcal/mol

In case the symmetry of your molecule has not been determined correctly
or in case you have a reason to use a different symmetry number we print 
out the resulting rotational entropy values for sn=1,12:

 non-linear molecules -----------------------------------
|  sn= 1 | S(rot)=       0.01203334 Eh      7.55 kcal/mol|
|  sn= 2 | S(rot)=       0.01137889 Eh      7.14 kcal/mol|
|  sn= 3 | S(rot)=       0.01099605 Eh      6.90 kcal/mol|
|  sn= 4 | S(rot)=       0.01072443 Eh      6.73 kcal/mol|
|  sn= 5 | S(rot)=       0.01051374 Eh      6.60 kcal/mol|
|  sn= 6 | S(rot)=       0.01034160 Eh      6.49 kcal/mol|
|  sn= 7 | S(rot)=       0.01019605 Eh      6.40 kcal/mol|
|  sn= 8 | S(rot)=       0.01006997 Eh      6.32 kcal/mol|
|  sn= 9 | S(rot)=       0.00995877 Eh      6.25 kcal/mol|
|  sn=10 | S(rot)=       0.00985929 Eh      6.19 kcal/mol|
|  sn=11 | S(rot)=       0.00976930 Eh      6.13 kcal/mol|
|  sn=12 | S(rot)=       0.00968714 Eh      6.08 kcal/mol|
 linear molecules ---------------------------------------
|  Dinfh | S(rot)=       0.00859754 Eh      5.40 kcal/mol|
|  Cinfv | S(rot)=       0.00925200 Eh      5.81 kcal/mol|
 --------------------------------------------------------


-------------------
GIBBS FREE ENERGY
-------------------

The Gibbs free energy is G = H - T*S

Total enthalpy                    ...  -3074.24285702 Eh 
Total entropy correction          ...     -0.03361851 Eh    -21.10 kcal/mol
-----------------------------------------------------------------------
Final Gibbs free energy         ...  -3074.27647553 Eh

For completeness - the Gibbs free energy minus the electronic energy
G-E(el)                           ...      0.00950340 Eh      5.96 kcal/mol


Maximum memory used throughout the entire PROP-calculation: 31.0 MB
Actual Hessian File stored as ts_optfreq.001.hess
------------------------------------------------------------------------------
                         ORCA GEOMETRY RELAXATION STEP
------------------------------------------------------------------------------

Reading the OPT-File                    .... done
Getting information on internals        .... done
Copying old internal coords+grads       .... done
Making the new internal coordinates     .... (2022 redundants) done
Validating the new internal coordinates .... (2022 redundants) done
Calculating the B-matrix                .... done
Calculating the G,G- and P matrices     .... done
Transforming gradient to internals      .... done
Projecting the internal gradient        .... done
Number of atoms                         ....   6
Number of internal coordinates          ....  14
Current Energy                          .... -3074.285978924 Eh
Current gradient norm                   ....     0.026163042 Eh/bohr
Maximum allowed component of the step   ....  0.300
Current trust radius                    ....  0.300
Evaluating the initial hessian          ....  (read) 
(Reading Exact Hessian)...  
InHessName: ts_optfreq.hess	The file <ts_optfreq.hess> is opened as a .hess file
done
done
Projecting the Hessian                  .... done
Diagonalizing the Hessian               .... done
Dimension of the hessian                ....  14
Lowest eigenvalues of the Hessian:
 -0.013579686  0.074800431  0.074818214  0.087640708  0.087663115
Hessian has   1 negative eigenvalues
Taking P-RFO step
Searching for lambda that maximizes along the lowest mode
TS mode is mode number   0 with eigenvalue  -0.01357969 and components:
   1.   -0.00277119
   2.   -0.00276694
   3.   -0.00276694
   4.    0.57196201
   5.   -0.57996363
   6.    0.02446561
   7.    0.02457303
   8.   -0.23589219
   9.   -0.23631945
  10.   -0.23631944
  11.    0.23600047
  12.    0.23626531
  13.    0.23626530
  14.    0.02446561

Lambda that maximizes along the TS mode:       0.00052648
Searching for lambda that minimizes along all other modes
In cycle   1: lambdaN =  -0.00622423   step =   0.00622423
In cycle   2: lambdaN =  -0.00625045   step =   0.00002622
In cycle   3: lambdaN =  -0.00625045   step =   0.00000000
Lambda that minimizes along all other modes:  -0.00625045
Calculated stepsize too large (   0.3126 >    0.3000). Scaled with    0.9597.
The final length of the internal step   ....       0.3000
Converting the step to Cartesian space:
 Initial RMS(Int)=    0.0801783726
Transforming coordinates:
 Iter   0:  RMS(Cart)=    0.0603594700 RMS(Int)=    0.0801922156
done
Storing new coordinates                 .... done

                                .--------------------.
          ----------------------|Geometry convergence|-------------------------
          Item                value                   Tolerance       Converged
          ---------------------------------------------------------------------
          RMS gradient        0.0069637223            0.0001000000      NO
          MAX gradient        0.0183262141            0.0003000000      NO
          RMS step            0.0801783726            0.0020000000      NO
          MAX step            0.2879021528            0.0040000000      NO
          -------------------------------------------------------------------------
          ........................................................
          Max(Bonds)      0.1524      Max(Angles)    1.65
          Max(Dihed)        0.00      Max(Improp)    0.00
          ---------------------------------------------------------------------

The optimization has not yet converged - more geometry cycles are needed


    ---------------------------------------------------------------------------
                         Redundant Internal Coordinates
                            (Angstroem and degrees)

        Definition                    Value    dE/dq     Step     New-Value  comp.(TS mode)
    ----------------------------------------------------------------------------
     1. B(H   1,C   0)                1.0683 -0.004093  0.0060    1.0743   
     2. B(H   2,C   0)                1.0683 -0.004091  0.0060    1.0742   
     3. B(H   3,C   0)                1.0683 -0.004091  0.0060    1.0742   
     4. B(Br  4,C   0)                2.3727 -0.014936  0.0222    2.3949          0.57
     5. B(Cl  5,C   0)                2.2519 -0.018326  0.1524    2.4043          0.58
     6. A(H   1,C   0,H   3)          119.91 -0.000350   -0.17    119.74   
[...]
                        -----------------------------------------
Magnitude (a.u.)       :      1.808740698
Magnitude (Debye)      :      4.597453490



--------------------
Rotational spectrum 
--------------------
 
Rotational constants in cm-1:             4.834405             0.028257             0.028257 
Rotational constants in MHz :        144931.812732           847.122791           847.122781 

Dipole components along the rotational axes: 
x,y,z [a.u.] :     1.808741    -0.000032    -0.000000 
x,y,z [Debye]:     4.597453    -0.000082    -0.000000 

 

Dipole moment calculation done in   0.0 sec 

-----------
SCF HESSIAN
-----------

Occupied/Occupied contributions to the Hessian:
   => Occupied/Occupied contributions              ... done (  0.0 sec)
Perturbed density contributions to the Hessian:
   => Perturbed density contributions              ... done (  0.1 sec)
Explicit contributions to the Hessian:
   => Nuclear repulsion Hessian                    ... done (  0.0 sec)
   => HCore and overlap Hessian                    ... done (  0.1 sec)
   => RI-J Hessian                                 ... done (  1.7 sec)
   => XC-Hessian                                   ... done (  3.3 sec)
   => Van der Waals-Hessian                        ... done (  0.7 sec)
   => GCP-Hessian                                  ... done (  0.0 sec)
   => Explicit contributions done
Dipole derivatives                                 ... done (  0.0 sec)
Mass weighting the Hessian           ... done
Calculating normal modes             ... done
Scaling frequencies                  ... done

-----------------------
VIBRATIONAL FREQUENCIES
-----------------------

Scaling factor for frequencies =  1.000000000  (already applied!)

     0:       0.00 cm**-1
     1:       0.00 cm**-1
     2:       0.00 cm**-1
     3:       0.00 cm**-1
     4:       0.00 cm**-1
     5:       0.00 cm**-1
     6:    -286.75 cm**-1  ***imaginary mode***
     7:     171.57 cm**-1
     8:     177.74 cm**-1
     9:     177.76 cm**-1
    10:     889.73 cm**-1
    11:     890.23 cm**-1
    12:     995.41 cm**-1
    13:    1400.32 cm**-1
    14:    1400.33 cm**-1
    15:    3177.93 cm**-1
    16:    3381.94 cm**-1
    17:    3382.91 cm**-1


------------
NORMAL MODES
------------

These modes are the Cartesian displacements weighted by the diagonal matrix
M(i,i)=1/sqrt(m[i]) where m[i] is the mass of the displaced atom
Thus, these vectors are normalized but *not* orthogonal

                  0          1          2          3          4          5    
      0       0.000000   0.000000   0.000000   0.000000   0.000000   0.000000
      1       0.000000   0.000000   0.000000   0.000000   0.000000   0.000000
      2       0.000000   0.000000   0.000000   0.000000   0.000000   0.000000
      3       0.000000   0.000000   0.000000   0.000000   0.000000   0.000000
      4       0.000000   0.000000   0.000000   0.000000   0.000000   0.000000
      5       0.000000   0.000000   0.000000   0.000000   0.000000   0.000000
      6       0.000000   0.000000   0.000000   0.000000   0.000000   0.000000
      7       0.000000   0.000000   0.000000   0.000000   0.000000   0.000000
      8       0.000000   0.000000   0.000000   0.000000   0.000000   0.000000
      9       0.000000   0.000000   0.000000   0.000000   0.000000   0.000000
     10       0.000000   0.000000   0.000000   0.000000   0.000000   0.000000
     11       0.000000   0.000000   0.000000   0.000000   0.000000   0.000000
     12       0.000000   0.000000   0.000000   0.000000   0.000000   0.000000
     13       0.000000   0.000000   0.000000   0.000000   0.000000   0.000000
     14       0.000000   0.000000   0.000000   0.000000   0.000000   0.000000
     15       0.000000   0.000000   0.000000   0.000000   0.000000   0.000000
     16       0.000000   0.000000   0.000000   0.000000   0.000000   0.000000
     17       0.000000   0.000000   0.000000   0.000000   0.000000   0.000000
                  6          7          8          9         10         11    
      0      -0.000000  -0.000000   0.000020  -0.489578   0.000000   0.013936
      1      -0.000249   0.000486  -0.489562  -0.000020  -0.013886   0.000000
      2       0.967700   0.192293  -0.000137  -0.000000  -0.000008   0.000000
      3      -0.000000  -0.000000   0.000020  -0.498482  -0.000000  -0.037502
      4      -0.032440  -0.005232  -0.499259  -0.000020   0.021252  -0.000000
      5       0.097449   0.188945  -0.022535  -0.000001   0.814289  -0.000008
      6      -0.027956  -0.004927   0.000398  -0.499015   0.006709  -0.025398
      7       0.015823   0.003307  -0.498631   0.000437   0.033109  -0.006990
      8       0.096551   0.189150   0.011144  -0.019347  -0.408632  -0.706024
      9       0.027956   0.004927  -0.000357  -0.499016  -0.006710  -0.025398
     10       0.015823   0.003307  -0.498631  -0.000478   0.033109   0.006989
     11       0.096551   0.189150   0.011142   0.019348  -0.408617   0.706033
     12       0.000000   0.000000  -0.000002   0.046104  -0.000000  -0.003903
     13       0.000025  -0.000046   0.046103   0.000002   0.003904  -0.000000
     14      -0.077102  -0.405067  -0.000029   0.000000   0.000018  -0.000000
     15      -0.000000   0.000000  -0.000004   0.104507   0.000000   0.006585
     16       0.000050  -0.000101   0.104505   0.000004  -0.006582   0.000000
     17      -0.162341   0.831619   0.000119   0.000000   0.000046  -0.000000
                 12         13         14         15         16         17    
      0      -0.000000   0.000012  -0.092681  -0.000000   0.000000  -0.101914
      1      -0.000062  -0.092702  -0.000012   0.000062  -0.101910  -0.000000
      2      -0.028556   0.000018   0.000000   0.005427   0.000001   0.000000
      3       0.000000  -0.000103   0.807599  -0.000000   0.000000  -0.014193
      4       0.022408  -0.080280  -0.000010   0.576514   0.811744   0.000003
      5       0.577961  -0.047179  -0.000006  -0.021269  -0.034344  -0.000000
      6       0.019559   0.384506   0.141672   0.499820  -0.357207   0.604993
      7      -0.011041   0.585582   0.384577  -0.288613   0.191998  -0.357488
      8       0.575844   0.023361  -0.041197  -0.021391   0.017190  -0.029819
      9      -0.019559  -0.384543   0.141575  -0.499820   0.357202   0.604996
     10      -0.011041   0.585680  -0.384428  -0.288613   0.191995   0.357490
     11       0.575844   0.023350   0.041203  -0.021391   0.017190   0.029819
     12       0.000000  -0.000000   0.000024   0.000000  -0.000000   0.000124
     13       0.000008   0.000027   0.000000   0.000000   0.000124   0.000000
     14      -0.009122   0.000001   0.000000  -0.000102  -0.000001   0.000000
     15      -0.000000  -0.000000   0.000331  -0.000000  -0.000000   0.000250
     16      -0.000007   0.000327   0.000000  -0.000001   0.000249   0.000000
     17      -0.018945   0.000004   0.000000   0.000213   0.000000  -0.000000


-----------
IR SPECTRUM
-----------

 Mode   freq       eps      Int      T**2         TX        TY        TZ
       cm**-1   L/(mol*cm) km/mol    a.u.
----------------------------------------------------------------------------
  7:    171.57   0.000441    2.23  0.000803  (-0.000000  0.000017 -0.028336)
  8:    177.74   0.001638    8.28  0.002877  ( 0.000002 -0.053633 -0.000132)
  9:    177.76   0.001640    8.29  0.002879  (-0.053653 -0.000002 -0.000000)
 10:    889.73   0.000040    0.20  0.000014  (-0.000000  0.003729  0.000142)
 11:    890.23   0.000039    0.20  0.000014  (-0.003714 -0.000000  0.000000)
 12:    995.41   0.019319   97.63  0.006057  ( 0.000000  0.000015 -0.077825)
 13:   1400.32   0.001103    5.57  0.000246  (-0.000002  0.015679  0.000023)
 14:   1400.33   0.001091    5.51  0.000243  ( 0.015592  0.000002  0.000000)
 15:   3177.93   0.000025    0.12  0.000002  ( 0.000000 -0.000001 -0.001558)
 16:   3381.94   0.000784    3.96  0.000072  (-0.000000  0.008505  0.000033)
 17:   3382.91   0.000797    4.03  0.000074  ( 0.008575  0.000000 -0.000000)

* The epsilon (eps) is given for a Dirac delta lineshape.
** The dipole moment derivative (T) already includes vibrational overlap.

The first frequency considered to be a vibration is 7
The total number of vibrations considered is 11


--------------------------
THERMOCHEMISTRY AT 298.15K
--------------------------

Temperature         ...   298.15 K
Pressure            ...     1.00 atm
Total Mass          ...   130.39 AMU
Quasi RRHO          ...     True
Cut-Off Frequency   ...     1.00 cm^-1

Throughout the following assumptions are being made:
  (1) The electronic state is orbitally nondegenerate
  (2) There are no thermally accessible electronically excited states
  (3) Hindered rotations indicated by low frequency modes are not
      treated as such but are treated as vibrations and this may
      cause some error
  (4) All equations used are the standard statistical mechanics
      equations for an ideal gas
  (5) All vibrations are strictly harmonic

freq.     171.57  E(vib)   ...       0.38 
freq.     177.74  E(vib)   ...       0.37 
freq.     177.76  E(vib)   ...       0.37 
freq.     889.73  E(vib)   ...       0.04 
freq.     890.23  E(vib)   ...       0.04 
freq.     995.41  E(vib)   ...       0.02 
freq.    1400.32  E(vib)   ...       0.00 
freq.    1400.33  E(vib)   ...       0.00 
freq.    3177.93  E(vib)   ...       0.00 
freq.    3381.94  E(vib)   ...       0.00 
freq.    3382.91  E(vib)   ...       0.00 

------------
INNER ENERGY
------------

The inner energy is: U= E(el) + E(ZPE) + E(vib) + E(rot) + E(trans)
    E(el)   - is the total energy from the electronic structure calculation
              = E(kin-el) + E(nuc-el) + E(el-el) + E(nuc-nuc)
    E(ZPE)  - the the zero temperature vibrational energy from the frequency calculation
    E(vib)  - the the finite temperature correction to E(ZPE) due to population
              of excited vibrational states
    E(rot)  - is the rotational thermal energy
    E(trans)- is the translational thermal energy

Summary of contributions to the inner energy U:
Electronic energy                ...  -3074.28963490 Eh
Zero point energy                ...      0.03655517 Eh      22.94 kcal/mol
Thermal vibrational correction   ...      0.00196412 Eh       1.23 kcal/mol
Thermal rotational correction    ...      0.00141627 Eh       0.89 kcal/mol
Thermal translational correction ...      0.00141627 Eh       0.89 kcal/mol
-----------------------------------------------------------------------
Total thermal energy                  -3074.24828306 Eh


Summary of corrections to the electronic energy:
(perhaps to be used in another calculation)
Total thermal correction                  0.00479666 Eh       3.01 kcal/mol
Non-thermal (ZPE) correction              0.03655517 Eh      22.94 kcal/mol
-----------------------------------------------------------------------
Total correction                          0.04135184 Eh      25.95 kcal/mol


--------
ENTHALPY
--------

The enthalpy is H = U + kB*T
                kB is Boltzmann's constant
Total thermal energy              ...  -3074.24828306 Eh 
Thermal Enthalpy correction       ...      0.00094421 Eh       0.59 kcal/mol
-----------------------------------------------------------------------
Total Enthalpy                    ...  -3074.24733885 Eh


Note: Rotational entropy computed according to Herzberg 
Infrared and Raman Spectra, Chapter V,1, Van Nostrand Reinhold, 1945 
Point Group:  C3v, Symmetry Number:   3  
Rotational constants in cm-1:     4.834409     0.028257     0.028257 

Vibrational entropy computed according to the QRRHO of S. Grimme
Chem.Eur.J. 2012 18 9955 using a reference frequency of 100.0 cm-1


-------
ENTROPY
-------

The entropy contributions are T*S = T*(S(el)+S(vib)+S(rot)+S(trans))
     S(el)   - electronic entropy
     S(vib)  - vibrational entropy
     S(rot)  - rotational entropy
     S(trans)- translational entropy
The entropies will be listed as multiplied by the temperature to get
units of energy

Electronic entropy                ...      0.00000000 Eh      0.00 kcal/mol
Vibrational entropy               ...      0.00357371 Eh      2.24 kcal/mol
Rotational entropy                ...      0.01109696 Eh      6.96 kcal/mol
Translational entropy             ...      0.01924704 Eh     12.08 kcal/mol
-----------------------------------------------------------------------
Final entropy term                ...      0.03391771 Eh     21.28 kcal/mol

In case the symmetry of your molecule has not been determined correctly
or in case you have a reason to use a different symmetry number we print 
out the resulting rotational entropy values for sn=1,12:

 non-linear molecules -----------------------------------
|  sn= 1 | S(rot)=       0.01213425 Eh      7.61 kcal/mol|
|  sn= 2 | S(rot)=       0.01147979 Eh      7.20 kcal/mol|
|  sn= 3 | S(rot)=       0.01109696 Eh      6.96 kcal/mol|
|  sn= 4 | S(rot)=       0.01082534 Eh      6.79 kcal/mol|
|  sn= 5 | S(rot)=       0.01061465 Eh      6.66 kcal/mol|
|  sn= 6 | S(rot)=       0.01044250 Eh      6.55 kcal/mol|
|  sn= 7 | S(rot)=       0.01029696 Eh      6.46 kcal/mol|
|  sn= 8 | S(rot)=       0.01017088 Eh      6.38 kcal/mol|
|  sn= 9 | S(rot)=       0.01005967 Eh      6.31 kcal/mol|
|  sn=10 | S(rot)=       0.00996019 Eh      6.25 kcal/mol|
|  sn=11 | S(rot)=       0.00987020 Eh      6.19 kcal/mol|
|  sn=12 | S(rot)=       0.00978805 Eh      6.14 kcal/mol|
 linear molecules ---------------------------------------
|  Dinfh | S(rot)=       0.00869315 Eh      5.46 kcal/mol|
|  Cinfv | S(rot)=       0.00934760 Eh      5.87 kcal/mol|
 --------------------------------------------------------


-------------------
GIBBS FREE ENERGY
-------------------

The Gibbs free energy is G = H - T*S

Total enthalpy                    ...  -3074.24733885 Eh 
Total entropy correction          ...     -0.03391771 Eh    -21.28 kcal/mol
-----------------------------------------------------------------------
Final Gibbs free energy         ...  -3074.28125657 Eh

For completeness - the Gibbs free energy minus the electronic energy
G-E(el)                           ...      0.00837833 Eh      5.26 kcal/mol


Maximum memory used throughout the entire PROP-calculation: 31.0 MB

--------------------------------
SUGGESTED CITATIONS FOR THIS RUN
--------------------------------

Below you find a list of papers that are relevant to this ORCA run
We neither can nor want to force you to cite these papers, but we appreciate if you do
You receive ORCA, which is the product of decades of hard work by many enthusiastic individuals, for free
The only thing we kindly ask in return is that you cite our papers,
We deeply appreciate it, if you show your appreciation for ORCA by not just citing the generic ORCA reference.

Please note that relegating all ORCA citations to the supporting information does *not* help us.
SI sections are not indexed - citations you put there will not count into any citation statistics
But we need these citations in order to attract the funding resources that allow us to do what we are doing

Therefore, if you are a happy ORCA user, please consider citing a few of the papers listed below in the main body of your paper

In addition to the list printed below, the program has created the file ts_optfreq.bibtex that contains the list in bibtex format
You can import this file easily into all common literature databanks and citation aid programs


List of essential papers. We consider these as the minimum necessary citations

  1. Grimme, S.; Hansen, A.; Ehlert, S.; Mewes, J.
     r2SCAN-3c: A 'Swiss army knife' composite electronic-structure method
     J. Chem. Phys. 2021 154 , 064103
     doi.org/10.1063/5.0040021
  2. Neese, F.
     Software update: the ORCA program system, version 6.0
     WIRES Comput. Molec. Sci. 2025 15(1), e70019
     doi.org/10.1002/wcms.7019

List of papers to cite with high priority. The work reported in these papers was absolutely
necessary for this run to complete.
Our perspective: the developers of density functionals and basis sets usually get cited in chemistry papers
Good! But without the algorithms to do something with them, the functionals or basis sets would not do anything.
Hence, in our opinion, the algorithm design and method developments papers are equally worthy of getting cited

  1. Neese, F.
     An improvement of the resolution of the identity approximation for the formation of the Coulomb matrix
     J. Comp. Chem. 2003 24(14), 1740-1747
     doi.org/10.1002/jcc.10318
  2. Bykov, D.; Petrenko, T.; Izsak, R.; Kossmann, S.; Becker, U.; Valeev, E.; Neese, F.
     Efficient implementation of the analytic second derivatives of Hartree-Fock and hybrid DFT energies: a detailed analysis of different approximations
     Molec. Phys. 2015 113 , 1961-1977
     doi.org/10.1080/00268976.2015.1025114
  3. Caldeweyher, E.; Bannwarth, C.; Grimme, S.
     Extension of the D3 dispersion coefficient model
     J. Chem. Phys. 2017 147 , 034112
     doi.org/10.1063/1.4993215
  4. Lehtola, S.; Steigemann, C.; Oliveira, M.; Marques, M.
     Recent developments in Libxc - A comprehensive library of functionals for density functional theory
     Software X 2018 7 , 
     doi.org/10.1016/j.softx.2017.11.002
  5. Caldeweyher, E.; Ehlert, S.; Hansen, A.; Neugebauer, H.; Spicher, S.; Bannwarth, C.; Grimme, S.
     A generally applicable atomic-charge dependent London dispersion correction
     J. Chem. Phys. 2019 150 , 154122
     doi.org/10.1063/1.5090222
  6. Caldeweyher, E.; Mewes, J.; Ehlert, S.; Grimme, S.
     Extension and evaluation of the D4 London-dispersion model for periodic systems
     Phys. Chem. Chem. Phys. 2020 22(16), 8499-8512
     doi.org/10.1039/D0CP00502A
  7. Neese, F.
     The SHARK Integral Generation and Digestion System
     J. Comp. Chem. 2022 44(3), 381
     doi.org/10.1002/jcc.26942
  8. Wittmann, L.; Gordiy, I.; Friede, M.; Helmich-Paris, B.; Grimme, S.; Hansen, A.; Bursch, M.
     Extension of the D3 and D4 London Dispersion Corrections to the full Actinides Series
     Phys. Chem. Chem. Phys. 2024 26(32), 21379-21394
     doi.org/10.1039/D4CP01514B

List of suggested additional citations. These are papers that are important in the 'surrounding' of 
of this run, or papers that preceded the highly important papers. If you like your results we are grateful for a citation.

  1. Neese, F.
     The ORCA program system
     WIRES Comput. Molec. Sci. 2012 2(1), 73-78
     doi.org/10.1002/wcms.81
  2. Neese, F.
     Software update: the ORCA program system, version 4.0
     WIRES Comput. Molec. Sci. 2018 8(1), 1-6
     doi.org/10.1002/wcms.1327
  3. Neese, F.; Wennmohs, F.; Becker, U.; Riplinger, C.
     The ORCA quantum chemistry program package
     J. Chem. Phys. 2020 152(22), 224108
     doi.org/10.1063/5.0004608
  4. Neese, F.
     Software update: The ORCA program system—Version 5.0
     WIRES Comput. Molec. Sci. 2022 12(1), e1606
     doi.org/10.1002/wcms.1606

List of optional additional citations

  1. Neese, F.
     Approximate second-order SCF convergence for spin unrestricted wavefunctions
     Chem. Phys. Lett. 2000 325(1-3), 93-98
     doi.org/10.1016/s0009-2614(00)00662-x

Timings for individual modules:

Sum of individual times          ...       63.505 sec (=   1.058 min)
Startup calculation              ...        7.427 sec (=   0.124 min)  11.7 %
SCF iterations                   ...       23.277 sec (=   0.388 min)  36.7 %
Property integrals               ...       12.081 sec (=   0.201 min)  19.0 %
SCF Response                     ...        4.136 sec (=   0.069 min)   6.5 %
Property calculations            ...        6.458 sec (=   0.108 min)  10.2 %
SCF Gradient evaluation          ...       10.056 sec (=   0.168 min)  15.8 %
Geometry relaxation              ...        0.070 sec (=   0.001 min)   0.1 %
                             ****ORCA TERMINATED NORMALLY****
TOTAL RUN TIME: 0 days 0 hours 1 minutes 30 seconds 157 msec
