
                                 *****************
                                 * O   R   C   A *
                                 *****************

                                            #,                                       
                                            ###                                      
                                            ####                                     
                                            #####                                    
                                            ######                                   
                                           ########,                                 
                                     ,,################,,,,,                         
                               ,,#################################,,                 
                          ,,##########################################,,             
                       ,#########################################, ''#####,          
                    ,#############################################,,   '####,        
                  ,##################################################,,,,####,       
                ,###########''''           ''''###############################       
              ,#####''   ,,,,##########,,,,          '''####'''          '####       
            ,##' ,,,,###########################,,,                        '##       
           ' ,,###''''                  '''############,,,                           
         ,,##''                                '''############,,,,        ,,,,,,###''
      ,#''                                            '''#######################'''  
     '                                                          ''''####''''         
             ,#######,   #######,   ,#######,      ##                                
            ,#'     '#,  ##    ##  ,#'     '#,    #''#        ,####,    ,#,          
            ##       ##  ##   ,#'  ##            #'  '#       #'       ,# #          
            ##       ##  #######   ##           ,######,      #####,      #          
            '#,     ,#'  ##    ##  '#,     ,#' ,#      #,     #,   #      #          
             '#######'   ##     ##  '#######'  #'      '#     '####' #    #          



                #########################################################
                #                        -***-                          #
                #          Department of theory and spectroscopy        #
                #                                                       #
                #                      Frank Neese                      #
                #                                                       #
                #     Directorship, Architecture, Infrastructure        #
                #                    SHARK, DRIVERS                     #
                #        Core code/Algorithms in most modules           #
                #                                                       #
                #        Max Planck Institute fuer Kohlenforschung      #
                #                Kaiser Wilhelm Platz 1                 #
                #                 D-45470 Muelheim/Ruhr                 #
                #                      Germany                          #
                #                                                       #
                #                  All rights reserved                  #
                #                        -***-                          #
                #########################################################


                         Program Version 6.1.0  -  RELEASE   -
                                (GIT: $679e74b$)
                          ($2025-06-10 18:02:51 +0200$)


 With contributions from (in alphabetic order):
[Max-Planck-Institut fuer Kohlenforschung]                               
  Daniel Aravena         : Magnetic Suceptibility                        
  Michael Atanasov       : Ab Initio Ligand Field Theory (pilot matlab implementation)
  Alexander A. Auer      : GIAO ZORA, VPT2 properties, NMR spectrum      
  Ute Becker             : All parallelization in ORCA, NUMFREQ, NUMCALC 
  Giovanni Bistoni       : ED, misc. LED, open-shell LED, HFLD           
  Dmytro Bykov           : pre 5.0 version of the SCF Hessian            
  Marcos Casanova-Páez   : Triplet and SCS-CIS(D). UHF-(DLPNO)-IP/EA/STEOM-CCSD. UHF-CVS-IP/STEOM-CCSD   
  Vijay G. Chilkuri      : MRCI spin determinant printing, contributions to CSF-ICE 
  Pauline Colinet        : FMM embedding                                 
  Dipayan Datta          : RHF DLPNO-CCSD density                        
  Achintya Kumar Dutta   : EOM-CC, STEOM-CC                              
  Nicolas Foglia         : Exact transition moments, OPA infrastructure, MCD improvements    
  Dmitry Ganyushin       : Spin-Orbit,Spin-Spin,Magnetic field MRCI      
  Miquel Garcia-Rates    : C-PCM and meta-GGA Hessian, CCSD/C-PCM, Gaussian charge scheme 
  Tiago L. C. Gouveia    : GS-ROHF, GS-ROCIS                             
  Yang Guo               : DLPNO-NEVPT2, F12-NEVPT2, CIM, IAO-localization        
  Andreas Hansen         : Spin unrestricted coupled pair/coupled cluster methods 
  Ingolf Harden          : AUTO-CI MPn and infrastructure                
  Benjamin Helmich-Paris : MC-RPA, TRAH-(SCF,CASSCF), AVAS, COSX integrals, SCF dyn. polar., MC-PDFT, srDFT 
  Lee Huntington         : MR-EOM, pCC                                   
  Robert Izsak           : Overlap fitted RIJCOSX, COSX-SCS-MP3, EOM     
  Riya Kayal             : Wick's Theorem for AUTO-CI, AUTO-CI UHF-CCSDT 
  Emily Kempfer          : AUTO-CI RHF CISDT and CCSDT, approximate NEVPT4
  Christian Kollmar      : KDIIS, OOCD, Brueckner-CCSD(T), CCSD density, CASPT2, CASPT2-K, improved NEVPT2 
  Axel Koslowski         : Symmetry handling                             
  Simone Kossmann        : meta-GGA functionals, TD-DFT gradient, OOMP2, (MP2 Hessian; deprecated post 5.0) 
  Lucas Lang             : DCDCAS, Hyperfine gauge corrections, ICE-SOC+SSC
  Marvin Lechner         : AUTO-CI (C++ implementation), FIC-MRCC        
  Spencer Leger          : CASSCF response                               
  Dagmar Lenk            : GEPOL surface, SMD, ORCA-2-JSON               
  Dimitrios Liakos       : Extrapolation schemes; Compound Job, Property file
  Dimitrios Manganas     : Further ROCIS development; embedding schemes. LFT, Crystal Embedding 
  Dimitrios Pantazis     : SARC Basis sets                               
  Anastasios Papadopoulos: AUTO-CI, single reference methods and gradients 
  Taras Petrenko         : pre 6.0 DFT Hessian and TD-DFT gradient,  ECA, NRVS 
  Petra Pikulova         : Analytic Raman intensities                    
  Peter Pinski           : DLPNO-MP2, DLPNO-MP2 Gradient                 
  Shashank Vittal Rao    : ES-AILFT, MagRelax                            
  Christoph Reimann      : Effective Core Potentials                     
  Marius Retegan         : Local ZFS, SOC                                
  Christoph Riplinger    : Optimizer, TS searches, QM/MM, DLPNO-CCSD(T), (RO)-DLPNO pert. Triples 
  Michael Roemelt        : Original ROCIS implementation, recursive CI coupling coefficients
  Masaaki Saitow         : Open-shell DLPNO-CCSD energy and density      
  Barbara Sandhoefer     : DKH picture change effects                    
  Yorick L. A. Schmerwitz: GMF and freeze-and-release deltaSCF, NEB S-IDPP initial path                    
  Kantharuban Sivalingam : CASSCF convergence/infrastructure, NEVPT2, NEVPT3, NEVPT4(SD), FIC-MRCI and CEPA variants
  Bernardo de Souza      : ESD, SOC TD-DFT                               
  Georgi L. Stoychev     : AutoAux, RI-MP2 NMR, DLPNO-MP2 response, X2C  
  Van Anh Tran           : RI-MP2 g-tensors                              
  Willem Van den Heuvel  : Paramagnetic NMR                              
  Zikuan Wang            : NOTCH, Electric field optimization            
  Frank Wennmohs         : Technical directorship and infrastructure     
  Hang Xu                : AUTO-CI-Response properties                   
                                                                         
[FACCTs GmbH]                                                            
  Markus Bursch, Nicolas Foglia, Miquel Garcia-Rates, Ingolf Harden, Hagen Neugebauer, Anastasios Papadopoulos, 
  Christoph Riplinger, Bernardo de Souza, Georgi L. Stoychev                                                    
                                                                 
  APM, various basis sets, CI-OPT, improved COSX, DLPNO-Multilevel,           
  DOCKER, DRACO, updates on ESD, Fragmentator, GOAT, IRC, LR-CPCM, L-BFGS, MBIS, meta-GGA TD-DFT gradient, ML-optimized integration grids, 
  MM, NACMEs, nearIR, NEB, NEB-TS, NL-DFT gradient (VV10), 2- and 3-layer-ONIOM, interface openCOSMO-RS, QMMM,   
  Crystal-QMMM, RESP, rigid body optimization, SF, symmetry and pop. for TD-DFT, various functionals, SOLVATOR                                   
                                                                         
[Other institutions]                                                     
  V. Asgeirsson          : NEB                                           
  Christoph Bannwarth    : sTDA-DFT, sTD-DFT, PBEh-3c, B97-3c, D3        
  Giovanni Bistoni       : ETS/NOCV, ADLD/ADEX, COVALED                  
  Martin Brehm           : Molecular dynamics                            
  Ronald Cardenas        : ETS/NOCV                                      
  Martina Colucci        : COVALED                                       
  Sebastian Ehlert       : rSCAN, r2SCAN, r2SCAN-3c, D4, dhf basis sets  
  Marvin Friede          : D4 for Fr, Ra, Ac-Lr                          
  Lars Goerigk           : TD-DFT with DH, B97 family of functionals     
  Stefan Grimme          : VdW corrections, initial TS optimization, DFT functionals, gCP, sTDA/sTD-DF 
  Waldemar Hujo          : DFT-NL                                        
  H. Jonsson             : NEB                                           
  Holger Kruse           : gCP                                           
  Marcel Mueller         : wB97X-3c, vDZP basis set                      
  Hagen Neugebauer       : wr2SCAN, Native XTB                           
  Gianluca Regni         : ADLD/ADEX                                     
  Tobias Risthaus        : pre 6.0 range-separated hybrid DFT and stability analysis
  Lukas Wittmann         : regularized MP2, r2SCAN double-hybrids, wr2SCAN        
                                                                         
We gratefully acknowledge several colleagues who have allowed us to      
interface, adapt or use parts of their codes:                            
  Ed Valeev, F. Pavosevic, A. Kumar             : LibInt (2-el integral package), F12 methods 
  Garnet Chan, S. Sharma, J. Yang, R. Olivares  : DMRG                   
  Ulf Ekstrom                                   : XCFun DFT Library      
  Mihaly Kallay                                 : mrcc  (arbitrary order and MRCC methods)
  Frank Weinhold                                : gennbo (NPA and NBO analysis)           
  Simon Mueller                                 : openCOSMO-RS                            
  Christopher J. Cramer and Donald G. Truhlar   : smd solvation model                     
  S Lehtola, MJT Oliveira, MAL Marques          : LibXC Library                           
  Liviu Ungur et al                             : ANISO software                          


 Your calculation uses the libint2 library for the computation of 2-el integrals
 For citations please refer to: http://libint.valeyev.net

 Your ORCA version has been built with support for libXC version: 7.0.0
 For citations please refer to: https://libxc.gitlab.io

 This ORCA versions uses:
   CBLAS   interface :  Fast vector & matrix operations
   LAPACKE interface :  Fast linear algebra routines
   SCALAPACK package :  Parallel linear algebra routines
   Shared memory     :  Shared parallel matrices
   BLAS/LAPACK       :  OpenBLAS 0.3.29  USE64BITINT DYNAMIC_ARCH NO_AFFINITY SkylakeX SINGLE_THREADED
        Core in use  :  SkylakeX
   Copyright (c) 2011-2014, The OpenBLAS Project


  ***********************************
  * Starting time: Mon Mar 16 14:14:48 2026
  * Host name:     midway3-login4.rcc.local
  * Process ID:    57348
  * Working dir.:  /home/rzhu16/evans-polanyi-principle-validation/runs/sn2_f_br/geo_opt_reactant_product
  ***********************************

Your calculation utilizes the semiempirical GFN2-xTB method
Please cite in your paper:
Bannwarth, C.; Ehlert S.; Grimme, S. J. Chem. Theory Comput. 2019, 15, 1652.
   

================================================================================

================================================================================
                                        WARNINGS
                       Please study these warnings very carefully!
================================================================================


WARNING: Analytical Hessian for XTB is limited in the analysis of the data.
       : If you want to obtain extensive IR and deltaG analysis, please use ! XTB NumFreq. 


WARNING: Geometry Optimization
  ===> : Switching off AutoStart
         For restart on a previous wavefunction, please use MOREAD

WARNING: Found dipole moment calculation with XTB calculation
  ===> : Switching off dipole moment calculation


WARNING: Found frequency calculation in combination with XTB calculation
  ===> : Need to redirect dipole moment calculation to properties.out


================================================================================
                                       INPUT FILE
================================================================================
NAME = product_optfreq.inp
|  1> ! XTB2 Opt Freq PAL8
|  2> 
|  3> %geom
|  4>   MaxIter 500
|  5> end
|  6> 
|  7> * xyz -1 1
|  8>   C      -0.108424     -0.060240      0.021290
|  9>   H      -0.069515      1.003776      0.147168
| 10>   H       0.815863     -0.588727      0.147302
| 11>   H      -1.021474     -0.567814      0.203417
| 12>   F      -0.312867     -0.174248      2.077295
| 13>   Br     -0.206718     -0.115106     -2.216211
| 14> *
| 15> 
| 16>                          ****END OF INPUT****
================================================================================

                       *****************************
                       * Geometry Optimization Run *
                       *****************************

Geometry optimization settings:
Update method            Update   .... BFGS
Choice of coordinates    CoordSys .... (2022) Redundant Internals
Initial Hessian          InHess   .... Almloef's Model
Max. no of cycles        MaxIter  .... 500

Convergence Tolerances:
Energy Change            TolE     ....  5.0000e-06 Eh
Max. Gradient            TolMAXG  ....  3.0000e-04 Eh/bohr
RMS Gradient             TolRMSG  ....  1.0000e-04 Eh/bohr
Max. Displacement        TolMAXD  ....  4.0000e-03 bohr
RMS Displacement         TolRMSD  ....  2.0000e-03 bohr
Strict Convergence                .... False

------------------------------------------------------------------------------
                        ORCA OPTIMIZATION COORDINATE SETUP
------------------------------------------------------------------------------

The optimization will be done in redundant internal coordinates (2022)
Making redundant internal coordinates   ...  (2022 redundants) done
Evaluating the initial hessian          ...  (Almloef) done
Evaluating the coordinates              ...  done
Calculating the B-matrix                .... done
Calculating the G-matrix                .... done
The number of degrees of freedom        ....   18

    -----------------------------------------------------------------
                    Redundant Internal Coordinates


    -----------------------------------------------------------------
         Definition                    Initial Value    Approx d2E/dq
    -----------------------------------------------------------------
      1. B(H   1,C   0)                  1.0721         0.384516   
      2. B(H   2,C   0)                  1.0721         0.384519   
      3. B(H   3,C   0)                  1.0604         0.401456   
      4. B(F   4,C   0)                  2.0693         0.042875   
      5. B(F   4,H   3)                  2.0417         0.010000   
      6. B(F   4,H   2)                  2.2739         0.010000   
      7. B(F   4,H   1)                  2.2743         0.010000   
      8. B(Br  5,C   0)                  2.2403         0.092381   
      9. A(H   1,C   0,H   3)          119.0855         0.298962   
     10. A(H   2,C   0,H   3)          119.0889         0.298963   
     11. A(H   1,C   0,Br  5)           98.2305         0.277877   
     12. A(H   2,C   0,Br  5)           98.2294         0.277878   
     13. A(H   3,C   0,Br  5)           97.0096         0.279729   
     14. A(H   1,C   0,F   4)           86.6525         0.233307   
     15. A(H   2,C   0,F   4)           86.6312         0.233308   
     16. A(H   3,C   0,F   4)           73.6150         0.234723   
     17. A(F   4,C   0,Br  5)          170.6245         0.220089   
     18. A(H   1,C   0,H   2)          116.3661         0.296924   
    -----------------------------------------------------------------

Number of atoms                         .... 6
Number of degrees of freedom            .... 18


         *************************************************************
         *                GEOMETRY OPTIMIZATION CYCLE   1            *
         *************************************************************
---------------------------------
CARTESIAN COORDINATES (ANGSTROEM)
---------------------------------
  C    -0.108424   -0.060240    0.021290
  H    -0.069515    1.003776    0.147168
  H     0.815863   -0.588727    0.147302
  H    -1.021474   -0.567814    0.203417
  F    -0.312867   -0.174248    2.077295
  Br   -0.206718   -0.115106   -2.216211

----------------------------
CARTESIAN COORDINATES (A.U.)
----------------------------
  NO LB    ZA    FRAG    MASS        X           Y           Z
   0 C   6.0000    0    12.011   -0.204892   -0.113837    0.040232
   1 H   1.0000    0     1.008   -0.131364    1.896862    0.278107
   2 H   1.0000    0     1.008    1.541758   -1.112533    0.278360
   3 H   1.0000    0     1.008   -1.930306   -1.073013    0.384402
   4 F   9.0000    0    18.998   -0.591233   -0.329281    3.925519
   5 Br 35.0000    0    79.900   -0.390640   -0.217519   -4.188032

      -----------------------------------------------------------      
     |                   =====================                   |     
     |                           x T B                           |     
     |                   =====================                   |     
     |                         S. Grimme                         |     
     |          Mulliken Center for Theoretical Chemistry        |     
     |                    University of Bonn                     |     
      -----------------------------------------------------------      

   * xtb version 6.7.1 (edcfbbe) compiled by 'albert@albert-system' on 2024-07-22

   xtb is free software: you can redistribute it and/or modify it under
   the terms of the GNU Lesser General Public License as published by
   the Free Software Foundation, either version 3 of the License, or
   (at your option) any later version.
   
   xtb is distributed in the hope that it will be useful,
   but WITHOUT ANY WARRANTY; without even the implied warranty of
   MERCHANTABILITY or FITNESS FOR A PARTICULAR PURPOSE.  See the
   GNU Lesser General Public License for more details.
   
   Cite this work as:
   * C. Bannwarth, E. Caldeweyher, S. Ehlert, A. Hansen, P. Pracht,
     J. Seibert, S. Spicher, S. Grimme, WIREs Comput. Mol. Sci., 2020, 11,
     e01493. DOI: 10.1002/wcms.1493
   
   for GFN2-xTB:
   * C. Bannwarth, S. Ehlert and S. Grimme., J. Chem. Theory Comput., 2019,
     15, 1652-1671. DOI: 10.1021/acs.jctc.8b01176
   for GFN1-xTB:
   * S. Grimme, C. Bannwarth, P. Shushkov, J. Chem. Theory Comput., 2017,
     13, 1989-2009. DOI: 10.1021/acs.jctc.7b00118
   for GFN0-xTB:
   * P. Pracht, E. Caldeweyher, S. Ehlert, S. Grimme, ChemRxiv, 2019, preprint.
     DOI: 10.26434/chemrxiv.8326202.v1
   for GFN-FF:
   * S. Spicher and S. Grimme, Angew. Chem. Int. Ed., 2020, 59, 15665-15673.
     DOI: 10.1002/anie.202004239
   
   for ALPB and GBSA implicit solvation:
   * S. Ehlert, M. Stahn, S. Spicher, S. Grimme, J. Chem. Theory Comput.,
     2021, 17, 4250-4261. DOI: 10.1021/acs.jctc.1c00471
   
   for ddCOSMO and CPCM-X implicit solvation:
   * M. Stahn, S. Ehlert, S. Grimme, J. Phys. Chem. A,
     2023, XX, XXXX-XXXX. DOI: 10.1021/acs.jpca.3c04382
   
   for DFT-D4:
   * E. Caldeweyher, C. Bannwarth and S. Grimme, J. Chem. Phys., 2017,
     147, 034112. DOI: 10.1063/1.4993215
   * E. Caldeweyher, S. Ehlert, A. Hansen, H. Neugebauer, S. Spicher,
     C. Bannwarth and S. Grimme, J. Chem. Phys., 2019, 150, 154122.
     DOI: 10.1063/1.5090222
   * E. Caldeweyher, J.-M. Mewes, S. Ehlert and S. Grimme, Phys. Chem. Chem. Phys.
     2020, 22, 8499-8512. DOI: 10.1039/D0CP00502A
   
   for sTDA-xTB:
   * S. Grimme and C. Bannwarth, J. Chem. Phys., 2016, 145, 054103.
     DOI: 10.1063/1.4959605
   
   in the mass-spec context:
   * V. Asgeirsson, C. Bauer and S. Grimme, Chem. Sci., 2017, 8, 4879.
     DOI: 10.1039/c7sc00601b
   * J. Koopman and S. Grimme, ACS Omega 2019, 4, 12, 15120-15133.
     DOI: 10.1021/acsomega.9b02011
   
   for metadynamics refer to:
   * S. Grimme, J. Chem. Theory Comput., 2019, 155, 2847-2862
     DOI: 10.1021/acs.jctc.9b00143
   
   for SPH calculations refer to:
   * S. Spicher and S. Grimme, J. Chem. Theory Comput., 2021, 17, 1701-1714
     DOI: 10.1021/acs.jctc.0c01306
   
   for ONIOM refer to:
   * C. Plett, A. Katbashev, S. Ehlert, S. Grimme, M. Bursch,
     Phys. Chem. Chem. Phys., 2023, 25, 17860-17868. DOI: 10.1039/D3CP02178E
   
   for DIPRO refer to:
   * J. Kohn, N. Gildemeister, S. Grimme, D. Fazzi, A. Hansen,
     J. Chem. Phys., 2023, just accepted.
   
   for PTB refer to:
   * S. Grimme, M. Mueller, A. Hansen, J. Chem. Phys., 2023, 158, 124111.
     DOI: 10.1063/5.0137838
   
   with help from (in alphabetical order)
   P. Atkinson, C. Bannwarth, F. Bohle, G. Brandenburg, E. Caldeweyher
   M. Checinski, S. Dohm, S. Ehlert, S. Ehrlich, I. Gerasimov, C. Hölzer
   A. Katbashev, J. Kohn, J. Koopman, C. Lavigne, S. Lehtola, F. März, M. Müller,
   F. Musil, H. Neugebauer, J. Pisarek, C. Plett, P. Pracht, F. Pultar,
   J. Seibert, P. Shushkov, S. Spicher, M. Stahn, M. Steiner, T. Strunk,
   J. Stückrath, T. Rose, and J. Unsleber
   
 * started run on 2026/03/16 at 14:14:49.674     
   ID    Z sym.   atoms
    1    6 C      1
    2    1 H      2-4
    3    9 F      5
    4   35 Br     6

           -------------------------------------------------
          |                Calculation Setup                |
           -------------------------------------------------

          program call               : /software/orca-6.1.0-el8-x86_64/bin/otool_xtb product_optfreq_XTB.xyz --grad -c -1 -u 0 -P 8 --namespace product_optfreq --input product_optfreq_XTB.input.tmp --acc 0.200000
          hostname                   : midway3-login4.rcc.local
          calculation namespace      : product_optfreq
          coordinate file            : product_optfreq_XTB.xyz
          omp threads                :                     8


molecular fragmentation (1/2 indicates fragments):
111121
# atoms in fragment 1/2:     5     1
 fragment masses (1/2) :       94.94       19.00
CMA distance (Bohr)    :   7.440
constraining FC (au)   :  0.0500

           -------------------------------------------------
          |                 G F N 2 - x T B                 |
           -------------------------------------------------

        Reference                      10.1021/acs.jctc.8b01176
      * Hamiltonian:
        H0-scaling (s, p, d)           1.850000    2.230000    2.230000
        zeta-weighting                 0.500000
      * Dispersion:
        s8                             2.700000
        a1                             0.520000
        a2                             5.000000
        s9                             5.000000
      * Repulsion:
        kExp                           1.500000    1.000000
        rExp                           1.000000
      * Coulomb:
        alpha                          2.000000
        third order                    shell-resolved
        anisotropic                    true
        a3                             3.000000
        a5                             4.000000
        cn-shift                       1.200000
        cn-exp                         4.000000
        max-rad                        5.000000


          ...................................................
          :                      SETUP                      :
          :.................................................:
          :  # basis functions                  21          :
          :  # atomic orbitals                  20          :
          :  # shells                           10          :
          :  # electrons                        22          :
          :  max. iterations                   250          :
          :  Hamiltonian                  GFN2-xTB          :
          :  restarted?                      false          :
          :  GBSA solvation                  false          :
          :  PC potential                    false          :
          :  electronic temp.          300.0000000     K    :
          :  accuracy                    0.2000000          :
          :  -> integral cutoff          0.3198970E+02      :
          :  -> integral neglect         0.2000000E-08      :
          :  -> SCF convergence          0.2000000E-06 Eh   :
          :  -> wf. convergence          0.2000000E-04 e    :
          :  Broyden damping             0.4000000          :
          :  net charge                         -1          :
          :  unpaired electrons                  0          :
          ...................................................

 iter      E             dE          RMSdq      gap      omega  full diag
   1    -12.7083708 -0.127084E+02  0.638E+00    4.49       0.0  T
   2    -12.7469120 -0.385412E-01  0.383E+00    2.56       1.0  T
   3    -12.7520812 -0.516920E-02  0.195E+00    3.06       1.0  T
   4    -12.7561240 -0.404282E-02  0.917E-01    2.78       1.0  T
   5    -12.7562945 -0.170490E-03  0.501E-01    3.00       1.0  T
   6    -12.7562911  0.343315E-05  0.507E-01    2.67       1.0  T
   7    -12.7563131 -0.220082E-04  0.339E-01    2.64       1.0  T
   8    -12.7569240 -0.610943E-03  0.228E-02    2.82       1.8  T
   9    -12.7569232  0.869573E-06  0.183E-02    2.82       2.2  T
  10    -12.7569251 -0.191009E-05  0.189E-03    2.81      21.6  T
  11    -12.7569251 -0.964409E-08  0.870E-04    2.81      46.9  T
  12    -12.7569251 -0.829775E-09  0.437E-04    2.81      93.4  T
  13    -12.7569251 -0.845917E-09  0.895E-05    2.81     455.9  T
  14    -12.7569251 -0.442846E-11  0.486E-05    2.81     839.6  T

   *** convergence criteria satisfied after 14 iterations ***

         #    Occupation            Energy/Eh            Energy/eV
      -------------------------------------------------------------
         1        2.0000           -0.6521671             -17.7464
       ...           ...                  ...                  ...
         5        2.0000           -0.3296790              -8.9710
         6        2.0000           -0.2736533              -7.4465
         7        2.0000           -0.2227456              -6.0612
         8        2.0000           -0.2226115              -6.0576
         9        2.0000           -0.1780261              -4.8443
        10        2.0000           -0.1745715              -4.7503
        11        2.0000           -0.1740087              -4.7350 (HOMO)
        12                         -0.0706734              -1.9231 (LUMO)
        13                          0.2431547               6.6166
        14                          0.2436233               6.6293
        15                          0.2495469               6.7905
        16                          0.2495576               6.7908
       ...                                ...                  ...
        20                          0.4597245              12.5097
      -------------------------------------------------------------
                  HL-Gap            0.1033353 Eh            2.8119 eV
             Fermi-level           -0.1223411 Eh           -3.3291 eV

 SCC (total)                   0 d,  0 h,  0 min,  0.279 sec
 SCC setup                      ...        0 min,  0.000 sec (  0.073%)
 Dispersion                     ...        0 min,  0.000 sec (  0.024%)
 classical contributions        ...        0 min,  0.000 sec (  0.012%)
 integral evaluation            ...        0 min,  0.202 sec ( 72.538%)
 iterations                     ...        0 min,  0.075 sec ( 26.939%)
 molecular gradient             ...        0 min,  0.001 sec (  0.329%)
 printout                       ...        0 min,  0.000 sec (  0.077%)

         :::::::::::::::::::::::::::::::::::::::::::::::::::::
         ::                     SUMMARY                     ::
         :::::::::::::::::::::::::::::::::::::::::::::::::::::
         :: total energy             -12.696712102624 Eh    ::
         :: gradient norm              0.016185020939 Eh/a0 ::
         :: HOMO-LUMO gap              2.811895660333 eV    ::
         ::.................................................::
         :: SCC energy               -12.756925216337 Eh    ::
         :: -> isotropic ES            0.190515156029 Eh    ::
         :: -> anisotropic ES         -0.004236177940 Eh    ::
         :: -> anisotropic XC         -0.002232560892 Eh    ::
         :: -> dispersion             -0.002216351810 Eh    ::
         :: repulsion energy           0.060213113714 Eh    ::
         :: add. restraining           0.000000000000 Eh    ::
         :: total charge              -1.000000000000 e     ::
         :::::::::::::::::::::::::::::::::::::::::::::::::::::


Property printout bound to 'properties.out'

           -------------------------------------------------
          | TOTAL ENERGY              -12.696712102624 Eh   |
          | GRADIENT NORM               0.016185020939 Eh/α |
          | HOMO-LUMO GAP               2.811895660333 eV   |
           -------------------------------------------------

------------------------------------------------------------------------
 * finished run on 2026/03/16 at 14:14:50.052     
------------------------------------------------------------------------
 total:
 * wall-time:     0 d,  0 h,  0 min,  0.378 sec
 *  cpu-time:     0 d,  0 h,  0 min,  0.465 sec
 * ratio c/w:     1.232 speedup
 SCF:
 * wall-time:     0 d,  0 h,  0 min,  0.279 sec
 *  cpu-time:     0 d,  0 h,  0 min,  0.402 sec
 * ratio c/w:     1.438 speedup


-------------------------   --------------------
FINAL SINGLE POINT ENERGY       -12.696712102620
-------------------------   --------------------


-------------
DIPOLE MOMENT
-------------
                                X             Y             Z
Total Dipole Moment    :      0.56900       0.31700       0.33000
                        -----------------------------------------
Magnitude (a.u.)       :      0.73017
Magnitude (Debye)      :      1.85595


------------------
CARTESIAN GRADIENT
------------------

   1   C   :   -0.001139046   -0.000625081   -0.010620801
   2   H   :    0.001786559    0.000660021   -0.001309256
   3   H   :    0.001505829    0.001170571   -0.001301668
   4   H   :    0.004695765    0.002612888    0.003184469
   5   F   :   -0.005237828   -0.002920178    0.007015418
   6   Br  :   -0.001611279   -0.000898221    0.003031839

Difference to translation invariance:
           :   -0.0000000000   -0.0000000000    0.0000000000

Difference to rotation invariance:
           :   -0.0000000052    0.0000000096   -0.0000000000

Norm of the Cartesian gradient     ...    0.0161850209
RMS gradient                       ...    0.0038148460
MAX gradient                       ...    0.0106208013
------------------------------------------------------------------------------
                         ORCA GEOMETRY RELAXATION STEP
------------------------------------------------------------------------------

Reading the OPT-File                    .... done
Getting information on internals        .... done
Copying old internal coords+grads       .... done
Making the new internal coordinates     .... (2022 redundants) done
Validating the new internal coordinates .... (2022 redundants) done
Calculating the B-matrix                .... done
Calculating the G,G- and P matrices     .... done
Transforming gradient to internals      .... done
Projecting the internal gradient        .... done
Number of atoms                         ....   6
Number of internal coordinates          ....  18
Current Energy                          ....   -12.696712103 Eh
Current gradient norm                   ....     0.016185021 Eh/bohr
Maximum allowed component of the step   ....  0.300
Current trust radius                    ....  0.300
Evaluating the initial hessian          ....  (Almloef) done
Projecting the Hessian                  .... done
Forming the augmented Hessian           .... done
Diagonalizing the augmented Hessian     .... done
Last element of RFO vector              ....  0.978321744
Lowest eigenvalues of augmented Hessian:
 -0.001661846  0.020199220  0.059839286  0.071855631  0.092476141
Length of the computed step             ....  0.211679559
The final length of the internal step   ....  0.211679559
Converting the step to Cartesian space:
 Initial RMS(Int)=    0.0498933506
Transforming coordinates:
 Iter   0:  RMS(Cart)=    0.0307890471 RMS(Int)=    0.0496160995
done
Storing new coordinates                 .... done

                                .--------------------.
          ----------------------|Geometry convergence|-------------------------
          Item                value                   Tolerance       Converged
          ---------------------------------------------------------------------
          RMS gradient        0.0027162468            0.0001000000      NO
          MAX gradient        0.0045967455            0.0003000000      NO
          RMS step            0.0498933506            0.0020000000      NO
          MAX step            0.1183099230            0.0040000000      NO
          -------------------------------------------------------------------------
          ........................................................
          Max(Bonds)      0.0626      Max(Angles)    1.99
          Max(Dihed)        0.00      Max(Improp)    0.00
          ---------------------------------------------------------------------

The optimization has not yet converged - more geometry cycles are needed


    ---------------------------------------------------------------------------
                         Redundant Internal Coordinates
                            (Angstroem and degrees)

        Definition                    Value    dE/dq     Step     New-Value
    ----------------------------------------------------------------------------
     1. B(H   1,C   0)                1.0721 -0.000825  0.0000    1.0722   
     2. B(H   2,C   0)                1.0721 -0.000818  0.0000    1.0722   
     3. B(H   3,C   0)                1.0604 -0.003991  0.0063    1.0667   
     4. B(F   4,C   0)                2.0693  0.004597 -0.0589    2.0104   
     5. B(F   4,H   3)                2.0417 -0.003239 -0.0137    2.0280   
     6. B(F   4,H   2)                2.2739  0.003317 -0.0625    2.2114   
     7. B(F   4,H   1)                2.2743  0.003325 -0.0626    2.2117   
     8. B(Br  5,C   0)                2.2403 -0.002935  0.0165    2.2568   
     9. A(H   1,C   0,H   3)          119.09  0.000359   -0.06    119.03   
    10. A(H   2,C   0,H   3)          119.09  0.000366   -0.06    119.03   
    11. A(H   1,C   0,Br  5)           98.23  0.002680   -0.38     97.85   
    12. A(H   2,C   0,Br  5)           98.23  0.002676   -0.38     97.85   
    13. A(H   3,C   0,Br  5)           97.01 -0.001235   -0.13     96.88   
    14. A(H   1,C   0,F   4)           86.65 -0.000210   -0.63     86.02   
    15. A(H   2,C   0,F   4)           86.63 -0.000216   -0.62     86.01   
    16. A(H   3,C   0,F   4)           73.61 -0.003229    1.99     75.61   
    17. A(F   4,C   0,Br  5)          170.62 -0.004464    1.86    172.48   
    18. A(H   1,C   0,H   2)          116.37 -0.002580    0.53    116.89   
    ----------------------------------------------------------------------------

Geometry step timings:
Preparation and reading OPT file:      0.000 s ( 2.989 %)
Internal coordinates            :      0.000 s ( 3.444 %)
B/P matrices and projection     :      0.000 s (11.111 %)
Hessian update/contruction      :      0.001 s (34.893 %)
Making the step                 :      0.000 s (10.591 %)
Converting the step to Cartesian:      0.000 s ( 3.704 %)
Storing new data                :      0.000 s ( 7.277 %)
Checking convergence            :      0.000 s ( 5.848 %)
Final printing                  :      0.000 s (19.948 %)
Total time                      :      0.002 s

Time for energy+gradient        :      0.388 s
Time for complete geometry iter :      0.392 s

         *************************************************************
         *                GEOMETRY OPTIMIZATION CYCLE   2            *
         *************************************************************
---------------------------------
CARTESIAN COORDINATES (ANGSTROEM)
---------------------------------
  C    -0.116665   -0.064835    0.035707
  H    -0.082778    0.999308    0.161894
  H     0.805072   -0.597664    0.162002
  H    -1.037456   -0.576723    0.203047
  F    -0.280961   -0.156461    2.037173
  Br   -0.190347   -0.105983   -2.219562

----------------------------
CARTESIAN COORDINATES (A.U.)
----------------------------
  NO LB    ZA    FRAG    MASS        X           Y           Z
   0 C   6.0000    0    12.011   -0.220465   -0.122521    0.067477
   1 H   1.0000    0     1.008   -0.156428    1.888418    0.305936
   2 H   1.0000    0     1.008    1.521366   -1.129422    0.306139
   3 H   1.0000    0     1.008   -1.960508   -1.089849    0.383703
   4 F   9.0000    0    18.998   -0.530939   -0.295668    3.849699
   5 Br 35.0000    0    79.900   -0.359704   -0.200279   -4.194365

      -----------------------------------------------------------      
     |                   =====================                   |     
     |                           x T B                           |     
     |                   =====================                   |     
     |                         S. Grimme                         |     
     |          Mulliken Center for Theoretical Chemistry        |     
     |                    University of Bonn                     |     
      -----------------------------------------------------------      

   * xtb version 6.7.1 (edcfbbe) compiled by 'albert@albert-system' on 2024-07-22

   xtb is free software: you can redistribute it and/or modify it under
   the terms of the GNU Lesser General Public License as published by
   the Free Software Foundation, either version 3 of the License, or
   (at your option) any later version.
   
   xtb is distributed in the hope that it will be useful,
   but WITHOUT ANY WARRANTY; without even the implied warranty of
   MERCHANTABILITY or FITNESS FOR A PARTICULAR PURPOSE.  See the
   GNU Lesser General Public License for more details.
   
   Cite this work as:
   * C. Bannwarth, E. Caldeweyher, S. Ehlert, A. Hansen, P. Pracht,
     J. Seibert, S. Spicher, S. Grimme, WIREs Comput. Mol. Sci., 2020, 11,
     e01493. DOI: 10.1002/wcms.1493
   
   for GFN2-xTB:
   * C. Bannwarth, S. Ehlert and S. Grimme., J. Chem. Theory Comput., 2019,
     15, 1652-1671. DOI: 10.1021/acs.jctc.8b01176
   for GFN1-xTB:
   * S. Grimme, C. Bannwarth, P. Shushkov, J. Chem. Theory Comput., 2017,
     13, 1989-2009. DOI: 10.1021/acs.jctc.7b00118
   for GFN0-xTB:
   * P. Pracht, E. Caldeweyher, S. Ehlert, S. Grimme, ChemRxiv, 2019, preprint.
     DOI: 10.26434/chemrxiv.8326202.v1
   for GFN-FF:
   * S. Spicher and S. Grimme, Angew. Chem. Int. Ed., 2020, 59, 15665-15673.
     DOI: 10.1002/anie.202004239
   
   for ALPB and GBSA implicit solvation:
   * S. Ehlert, M. Stahn, S. Spicher, S. Grimme, J. Chem. Theory Comput.,
     2021, 17, 4250-4261. DOI: 10.1021/acs.jctc.1c00471
   
   for ddCOSMO and CPCM-X implicit solvation:
   * M. Stahn, S. Ehlert, S. Grimme, J. Phys. Chem. A,
     2023, XX, XXXX-XXXX. DOI: 10.1021/acs.jpca.3c04382
   
   for DFT-D4:
   * E. Caldeweyher, C. Bannwarth and S. Grimme, J. Chem. Phys., 2017,
     147, 034112. DOI: 10.1063/1.4993215
   * E. Caldeweyher, S. Ehlert, A. Hansen, H. Neugebauer, S. Spicher,
     C. Bannwarth and S. Grimme, J. Chem. Phys., 2019, 150, 154122.
     DOI: 10.1063/1.5090222
   * E. Caldeweyher, J.-M. Mewes, S. Ehlert and S. Grimme, Phys. Chem. Chem. Phys.
     2020, 22, 8499-8512. DOI: 10.1039/D0CP00502A
   
   for sTDA-xTB:
   * S. Grimme and C. Bannwarth, J. Chem. Phys., 2016, 145, 054103.
     DOI: 10.1063/1.4959605
   
   in the mass-spec context:
   * V. Asgeirsson, C. Bauer and S. Grimme, Chem. Sci., 2017, 8, 4879.
     DOI: 10.1039/c7sc00601b
   * J. Koopman and S. Grimme, ACS Omega 2019, 4, 12, 15120-15133.
     DOI: 10.1021/acsomega.9b02011
   
   for metadynamics refer to:
   * S. Grimme, J. Chem. Theory Comput., 2019, 155, 2847-2862
     DOI: 10.1021/acs.jctc.9b00143
   
   for SPH calculations refer to:
   * S. Spicher and S. Grimme, J. Chem. Theory Comput., 2021, 17, 1701-1714
     DOI: 10.1021/acs.jctc.0c01306
   
   for ONIOM refer to:
   * C. Plett, A. Katbashev, S. Ehlert, S. Grimme, M. Bursch,
     Phys. Chem. Chem. Phys., 2023, 25, 17860-17868. DOI: 10.1039/D3CP02178E
   
   for DIPRO refer to:
   * J. Kohn, N. Gildemeister, S. Grimme, D. Fazzi, A. Hansen,
     J. Chem. Phys., 2023, just accepted.
   
   for PTB refer to:
   * S. Grimme, M. Mueller, A. Hansen, J. Chem. Phys., 2023, 158, 124111.
     DOI: 10.1063/5.0137838
   
   with help from (in alphabetical order)
   P. Atkinson, C. Bannwarth, F. Bohle, G. Brandenburg, E. Caldeweyher
   M. Checinski, S. Dohm, S. Ehlert, S. Ehrlich, I. Gerasimov, C. Hölzer
   A. Katbashev, J. Kohn, J. Koopman, C. Lavigne, S. Lehtola, F. März, M. Müller,
   F. Musil, H. Neugebauer, J. Pisarek, C. Plett, P. Pracht, F. Pultar,
   J. Seibert, P. Shushkov, S. Spicher, M. Stahn, M. Steiner, T. Strunk,
   J. Stückrath, T. Rose, and J. Unsleber
   
 * started run on 2026/03/16 at 14:14:50.066     
   ID    Z sym.   atoms
    1    6 C      1
    2    1 H      2-4
    3    9 F      5
    4   35 Br     6

           -------------------------------------------------
          |                Calculation Setup                |
           -------------------------------------------------

          program call               : /software/orca-6.1.0-el8-x86_64/bin/otool_xtb product_optfreq_XTB.xyz --grad -c -1 -u 0 -P 8 --namespace product_optfreq --input product_optfreq_XTB.input.tmp --acc 0.200000
          hostname                   : midway3-login4.rcc.local
          calculation namespace      : product_optfreq
          coordinate file            : product_optfreq_XTB.xyz
          omp threads                :                     8


molecular fragmentation (1/2 indicates fragments):
111121
# atoms in fragment 1/2:     5     1
 fragment masses (1/2) :       94.94       19.00
CMA distance (Bohr)    :   7.364
constraining FC (au)   :  0.0500

           -------------------------------------------------
          |                 G F N 2 - x T B                 |
           -------------------------------------------------

        Reference                      10.1021/acs.jctc.8b01176
      * Hamiltonian:
        H0-scaling (s, p, d)           1.850000    2.230000    2.230000
        zeta-weighting                 0.500000
      * Dispersion:
        s8                             2.700000
        a1                             0.520000
        a2                             5.000000
        s9                             5.000000
      * Repulsion:
        kExp                           1.500000    1.000000
        rExp                           1.000000
      * Coulomb:
        alpha                          2.000000
        third order                    shell-resolved
        anisotropic                    true
        a3                             3.000000
        a5                             4.000000
        cn-shift                       1.200000
        cn-exp                         4.000000
        max-rad                        5.000000

q/qsh data taken from xtbrestart
CAMM data taken from xtbrestart

          ...................................................
          :                      SETUP                      :
          :.................................................:
          :  # basis functions                  21          :
          :  # atomic orbitals                  20          :
          :  # shells                           10          :
          :  # electrons                        22          :
          :  max. iterations                   250          :
          :  Hamiltonian                  GFN2-xTB          :
          :  restarted?                       true          :
          :  GBSA solvation                  false          :
          :  PC potential                    false          :
          :  electronic temp.          300.0000000     K    :
          :  accuracy                    0.2000000          :
          :  -> integral cutoff          0.3198970E+02      :
          :  -> integral neglect         0.2000000E-08      :
          :  -> SCF convergence          0.2000000E-06 Eh   :
          :  -> wf. convergence          0.2000000E-04 e    :
          :  Broyden damping             0.4000000          :
          :  net charge                         -1          :
          :  unpaired electrons                  0          :
          ...................................................

 iter      E             dE          RMSdq      gap      omega  full diag
   1    -12.7566307 -0.127566E+02  0.467E-01    2.97       0.0  T
   2    -12.7573708 -0.740158E-03  0.145E-01    3.20       1.0  T
   3    -12.7573989 -0.280948E-04  0.671E-02    3.15       1.0  T
   4    -12.7573980  0.987376E-06  0.406E-02    3.16       1.0  T
   5    -12.7574006 -0.261719E-05  0.173E-02    3.16       2.4  T
   6    -12.7574008 -0.200649E-06  0.825E-03    3.16       4.9  T
   7    -12.7574008 -0.450236E-07  0.404E-03    3.16      10.1  T
   8    -12.7574009 -0.567656E-07  0.677E-04    3.16      60.3  T
   9    -12.7574009 -0.377414E-09  0.136E-04    3.16     299.1  T
  10    -12.7574009 -0.400213E-11  0.934E-05    3.16     437.2  T

   *** convergence criteria satisfied after 10 iterations ***

         #    Occupation            Energy/Eh            Energy/eV
      -------------------------------------------------------------
         1        2.0000           -0.6469374             -17.6041
       ...           ...                  ...                  ...
         5        2.0000           -0.3285241              -8.9396
         6        2.0000           -0.2705395              -7.3618
         7        2.0000           -0.2180154              -5.9325
         8        2.0000           -0.2178836              -5.9289
         9        2.0000           -0.1848517              -5.0301
        10        2.0000           -0.1828184              -4.9747
        11        2.0000           -0.1819788              -4.9519 (HOMO)
        12                         -0.0659055              -1.7934 (LUMO)
        13                          0.2494897               6.7890
        14                          0.2498173               6.7979
        15                          0.2552839               6.9466
        16                          0.2552992               6.9470
       ...                                ...                  ...
        20                          0.4505717              12.2607
      -------------------------------------------------------------
                  HL-Gap            0.1160734 Eh            3.1585 eV
             Fermi-level           -0.1239421 Eh           -3.3726 eV

 SCC (total)                   0 d,  0 h,  0 min,  0.015 sec
 SCC setup                      ...        0 min,  0.000 sec (  1.396%)
 Dispersion                     ...        0 min,  0.000 sec (  0.393%)
 classical contributions        ...        0 min,  0.000 sec (  0.206%)
 integral evaluation            ...        0 min,  0.013 sec ( 85.273%)
 iterations                     ...        0 min,  0.001 sec (  8.673%)
 molecular gradient             ...        0 min,  0.000 sec (  3.023%)
 printout                       ...        0 min,  0.000 sec (  0.930%)

         :::::::::::::::::::::::::::::::::::::::::::::::::::::
         ::                     SUMMARY                     ::
         :::::::::::::::::::::::::::::::::::::::::::::::::::::
         :: total energy             -12.698231550998 Eh    ::
         :: gradient norm              0.018593835068 Eh/a0 ::
         :: HOMO-LUMO gap              3.158517839926 eV    ::
         ::.................................................::
         :: SCC energy               -12.757400990705 Eh    ::
         :: -> isotropic ES            0.187218665204 Eh    ::
         :: -> anisotropic ES         -0.004204198422 Eh    ::
         :: -> anisotropic XC         -0.001983558666 Eh    ::
         :: -> dispersion             -0.002217953482 Eh    ::
         :: repulsion energy           0.059169439707 Eh    ::
         :: add. restraining           0.000000000000 Eh    ::
         :: total charge              -1.000000000000 e     ::
         :::::::::::::::::::::::::::::::::::::::::::::::::::::


Property printout bound to 'properties.out'

           -------------------------------------------------
          | TOTAL ENERGY              -12.698231550998 Eh   |
          | GRADIENT NORM               0.018593835068 Eh/α |
          | HOMO-LUMO GAP               3.158517839926 eV   |
           -------------------------------------------------

------------------------------------------------------------------------
 * finished run on 2026/03/16 at 14:14:50.093     
------------------------------------------------------------------------
 total:
 * wall-time:     0 d,  0 h,  0 min,  0.027 sec
 *  cpu-time:     0 d,  0 h,  0 min,  0.180 sec
 * ratio c/w:     6.667 speedup
 SCF:
 * wall-time:     0 d,  0 h,  0 min,  0.015 sec
 *  cpu-time:     0 d,  0 h,  0 min,  0.111 sec
 * ratio c/w:     7.242 speedup


-------------------------   --------------------
FINAL SINGLE POINT ENERGY       -12.698231551000
-------------------------   --------------------


-------------
DIPOLE MOMENT
-------------
                                X             Y             Z
Total Dipole Moment    :      0.50400       0.28100       0.52800
                        -----------------------------------------
Magnitude (a.u.)       :      0.78215
Magnitude (Debye)      :      1.98807


------------------
CARTESIAN GRADIENT
------------------

   1   C   :    0.001808030    0.001010572   -0.015225247
   2   H   :    0.001468719    0.000855614    0.000529334
   3   H   :    0.001500485    0.000798400    0.000537231
   4   H   :    0.001318182    0.000734257    0.005866013
   5   F   :   -0.004756279   -0.002652120    0.004468475
   6   Br  :   -0.001339136   -0.000746724    0.003824194

Difference to translation invariance:
           :   -0.0000000000    0.0000000000    0.0000000000

Difference to rotation invariance:
           :   -0.0000001897    0.0000003409   -0.0000000000

Norm of the Cartesian gradient     ...    0.0185938351
RMS gradient                       ...    0.0043826090
MAX gradient                       ...    0.0152252473
------------------------------------------------------------------------------
                         ORCA GEOMETRY RELAXATION STEP
------------------------------------------------------------------------------

Reading the OPT-File                    .... done
Getting information on internals        .... done
Copying old internal coords+grads       .... done
Making the new internal coordinates     .... (2022 redundants) done
Validating the new internal coordinates .... (2022 redundants) done
Calculating the B-matrix                .... done
Calculating the G,G- and P matrices     .... done
Transforming gradient to internals      .... done
Projecting the internal gradient        .... done
Number of atoms                         ....   6
Number of internal coordinates          ....  18
Current Energy                          ....   -12.698231551 Eh
Current gradient norm                   ....     0.018593835 Eh/bohr
Maximum allowed component of the step   ....  0.300
Current trust radius                    ....  0.300
Updating the Hessian (BFGS)             .... done
Forming the augmented Hessian           .... done
Diagonalizing the augmented Hessian     .... done
Last element of RFO vector              ....  0.829729721
Lowest eigenvalues of augmented Hessian:
 -0.005462451  0.009689602  0.047944134  0.059839301  0.092229776
Length of the computed step             ....  0.672707467
Warning: the length of the step is outside the trust region - taking restricted step instead
The input lambda is                     ....     0.004109
   iter:   5  x=   -0.002312  g=  782.267589 f(x)=     1.883981
   iter:  10  x=   -0.019290  g=    8.020822 f(x)=     0.008909
The output lambda is                    ....    -0.019374 (14 iterations)
The final length of the internal step   ....  0.300000000
Converting the step to Cartesian space:
 Initial RMS(Int)=    0.0707106781
Transforming coordinates:
 Iter   0:  RMS(Cart)=    0.0529082535 RMS(Int)=    0.0699715098
done
Storing new coordinates                 .... done
The predicted energy change is          ....    -0.002212378
Previously predicted energy change      ....    -0.000868155
Actually observed energy change         ....    -0.001519448
Ratio of predicted to observed change   ....     1.750204107
New trust radius                        ....     0.200000000

                                .--------------------.
          ----------------------|Geometry convergence|-------------------------
          Item                value                   Tolerance       Converged
          ---------------------------------------------------------------------
          Energy change      -0.0015194484            0.0000050000      NO
          RMS gradient        0.0026398756            0.0001000000      NO
          MAX gradient        0.0046222186            0.0003000000      NO
          RMS step            0.0707106781            0.0020000000      NO
          MAX step            0.1491095205            0.0040000000      NO
          -------------------------------------------------------------------------
          ........................................................
          Max(Bonds)      0.0789      Max(Angles)    4.93
          Max(Dihed)        0.00      Max(Improp)    0.00
          ---------------------------------------------------------------------

The optimization has not yet converged - more geometry cycles are needed


    ---------------------------------------------------------------------------
                         Redundant Internal Coordinates
                            (Angstroem and degrees)

        Definition                    Value    dE/dq     Step     New-Value
    ----------------------------------------------------------------------------
     1. B(H   1,C   0)                1.0721  0.000046 -0.0003    1.0718   
     2. B(H   2,C   0)                1.0721  0.000049 -0.0003    1.0718   
     3. B(H   3,C   0)                1.0667  0.000548  0.0069    1.0736   
     4. B(F   4,C   0)                2.0103  0.004622 -0.0769    1.9333   
     5. B(F   4,H   3)                2.0280 -0.003999  0.0241    2.0521   
     6. B(F   4,H   2)                2.2114  0.002153 -0.0788    2.1327   
     7. B(F   4,H   1)                2.2117  0.002162 -0.0789    2.1328   
     8. B(Br  5,C   0)                2.2568 -0.003764  0.0445    2.3013   
     9. A(H   1,C   0,H   3)          119.02 -0.000097    0.14    119.16   
    10. A(H   2,C   0,H   3)          119.02 -0.000092    0.14    119.16   
    11. A(H   1,C   0,Br  5)           97.86  0.003229   -1.55     96.31   
    12. A(H   2,C   0,Br  5)           97.86  0.003225   -1.55     96.31   
    13. A(H   3,C   0,Br  5)           96.88  0.000173   -0.83     96.05   
    14. A(H   1,C   0,F   4)           86.02 -0.001036   -0.66     85.36   
    15. A(H   2,C   0,F   4)           86.00 -0.001041   -0.65     85.35   
    16. A(H   3,C   0,F   4)           75.61 -0.004200    4.93     80.54   
    17. A(F   4,C   0,Br  5)          172.49 -0.004027    4.10    176.59   
    18. A(H   1,C   0,H   2)          116.89 -0.002723    1.51    118.39   
    ----------------------------------------------------------------------------

Geometry step timings:
Preparation and reading OPT file:      0.000 s ( 0.081 %)
Internal coordinates            :      0.000 s ( 0.100 %)
B/P matrices and projection     :      0.000 s ( 0.356 %)
Hessian update/contruction      :      0.000 s ( 0.822 %)
Making the step                 :      0.000 s ( 0.414 %)
Converting the step to Cartesian:      0.000 s ( 0.098 %)
Storing new data                :      0.000 s ( 0.202 %)
Checking convergence            :      0.000 s ( 0.198 %)
Final printing                  :      0.047 s (97.728 %)
Total time                      :      0.048 s

Time for energy+gradient        :      0.037 s
Time for complete geometry iter :      0.087 s

         *************************************************************
         *                GEOMETRY OPTIMIZATION CYCLE   3            *
         *************************************************************
---------------------------------
CARTESIAN COORDINATES (ANGSTROEM)
---------------------------------
  C    -0.134714   -0.074899    0.066863
  H    -0.111981    0.990561    0.179832
  H     0.782246   -0.617917    0.179886
  H    -1.066827   -0.593102    0.190490
  F    -0.217057   -0.120831    1.997513
  Br   -0.154803   -0.086171   -2.234323

----------------------------
CARTESIAN COORDINATES (A.U.)
----------------------------
  NO LB    ZA    FRAG    MASS        X           Y           Z
   0 C   6.0000    0    12.011   -0.254572   -0.141538    0.126354
   1 H   1.0000    0     1.008   -0.211613    1.871889    0.339832
   2 H   1.0000    0     1.008    1.478232   -1.167695    0.339935
   3 H   1.0000    0     1.008   -2.016011   -1.120801    0.359974
   4 F   9.0000    0    18.998   -0.410178   -0.228337    3.774753
   5 Br 35.0000    0    79.900   -0.292536   -0.162839   -4.222259

      -----------------------------------------------------------      
     |                   =====================                   |     
     |                           x T B                           |     
     |                   =====================                   |     
     |                         S. Grimme                         |     
     |          Mulliken Center for Theoretical Chemistry        |     
     |                    University of Bonn                     |     
      -----------------------------------------------------------      

   * xtb version 6.7.1 (edcfbbe) compiled by 'albert@albert-system' on 2024-07-22

   xtb is free software: you can redistribute it and/or modify it under
   the terms of the GNU Lesser General Public License as published by
   the Free Software Foundation, either version 3 of the License, or
   (at your option) any later version.
   
   xtb is distributed in the hope that it will be useful,
   but WITHOUT ANY WARRANTY; without even the implied warranty of
   MERCHANTABILITY or FITNESS FOR A PARTICULAR PURPOSE.  See the
   GNU Lesser General Public License for more details.
   
   Cite this work as:
   * C. Bannwarth, E. Caldeweyher, S. Ehlert, A. Hansen, P. Pracht,
     J. Seibert, S. Spicher, S. Grimme, WIREs Comput. Mol. Sci., 2020, 11,
     e01493. DOI: 10.1002/wcms.1493
   
   for GFN2-xTB:
   * C. Bannwarth, S. Ehlert and S. Grimme., J. Chem. Theory Comput., 2019,
     15, 1652-1671. DOI: 10.1021/acs.jctc.8b01176
   for GFN1-xTB:
   * S. Grimme, C. Bannwarth, P. Shushkov, J. Chem. Theory Comput., 2017,
     13, 1989-2009. DOI: 10.1021/acs.jctc.7b00118
   for GFN0-xTB:
   * P. Pracht, E. Caldeweyher, S. Ehlert, S. Grimme, ChemRxiv, 2019, preprint.
     DOI: 10.26434/chemrxiv.8326202.v1
   for GFN-FF:
   * S. Spicher and S. Grimme, Angew. Chem. Int. Ed., 2020, 59, 15665-15673.
     DOI: 10.1002/anie.202004239
   
   for ALPB and GBSA implicit solvation:
   * S. Ehlert, M. Stahn, S. Spicher, S. Grimme, J. Chem. Theory Comput.,
     2021, 17, 4250-4261. DOI: 10.1021/acs.jctc.1c00471
   
   for ddCOSMO and CPCM-X implicit solvation:
   * M. Stahn, S. Ehlert, S. Grimme, J. Phys. Chem. A,
     2023, XX, XXXX-XXXX. DOI: 10.1021/acs.jpca.3c04382
   
   for DFT-D4:
   * E. Caldeweyher, C. Bannwarth and S. Grimme, J. Chem. Phys., 2017,
     147, 034112. DOI: 10.1063/1.4993215
   * E. Caldeweyher, S. Ehlert, A. Hansen, H. Neugebauer, S. Spicher,
     C. Bannwarth and S. Grimme, J. Chem. Phys., 2019, 150, 154122.
     DOI: 10.1063/1.5090222
   * E. Caldeweyher, J.-M. Mewes, S. Ehlert and S. Grimme, Phys. Chem. Chem. Phys.
     2020, 22, 8499-8512. DOI: 10.1039/D0CP00502A
   
   for sTDA-xTB:
   * S. Grimme and C. Bannwarth, J. Chem. Phys., 2016, 145, 054103.
     DOI: 10.1063/1.4959605
   
   in the mass-spec context:
   * V. Asgeirsson, C. Bauer and S. Grimme, Chem. Sci., 2017, 8, 4879.
     DOI: 10.1039/c7sc00601b
   * J. Koopman and S. Grimme, ACS Omega 2019, 4, 12, 15120-15133.
     DOI: 10.1021/acsomega.9b02011
   
   for metadynamics refer to:
   * S. Grimme, J. Chem. Theory Comput., 2019, 155, 2847-2862
     DOI: 10.1021/acs.jctc.9b00143
   
   for SPH calculations refer to:
   * S. Spicher and S. Grimme, J. Chem. Theory Comput., 2021, 17, 1701-1714
     DOI: 10.1021/acs.jctc.0c01306
   
   for ONIOM refer to:
   * C. Plett, A. Katbashev, S. Ehlert, S. Grimme, M. Bursch,
     Phys. Chem. Chem. Phys., 2023, 25, 17860-17868. DOI: 10.1039/D3CP02178E
   
   for DIPRO refer to:
   * J. Kohn, N. Gildemeister, S. Grimme, D. Fazzi, A. Hansen,
     J. Chem. Phys., 2023, just accepted.
   
   for PTB refer to:
   * S. Grimme, M. Mueller, A. Hansen, J. Chem. Phys., 2023, 158, 124111.
     DOI: 10.1063/5.0137838
   
   with help from (in alphabetical order)
   P. Atkinson, C. Bannwarth, F. Bohle, G. Brandenburg, E. Caldeweyher
   M. Checinski, S. Dohm, S. Ehlert, S. Ehrlich, I. Gerasimov, C. Hölzer
   A. Katbashev, J. Kohn, J. Koopman, C. Lavigne, S. Lehtola, F. März, M. Müller,
   F. Musil, H. Neugebauer, J. Pisarek, C. Plett, P. Pracht, F. Pultar,
   J. Seibert, P. Shushkov, S. Spicher, M. Stahn, M. Steiner, T. Strunk,
   J. Stückrath, T. Rose, and J. Unsleber
   
 * started run on 2026/03/16 at 14:14:50.153     
   ID    Z sym.   atoms
    1    6 C      1
    2    1 H      2-4
    3    9 F      5
    4   35 Br     6

           -------------------------------------------------
          |                Calculation Setup                |
           -------------------------------------------------

          program call               : /software/orca-6.1.0-el8-x86_64/bin/otool_xtb product_optfreq_XTB.xyz --grad -c -1 -u 0 -P 8 --namespace product_optfreq --input product_optfreq_XTB.input.tmp --acc 0.200000
          hostname                   : midway3-login4.rcc.local
          calculation namespace      : product_optfreq
          coordinate file            : product_optfreq_XTB.xyz
          omp threads                :                     8


molecular fragmentation (1/2 indicates fragments):
111121
# atoms in fragment 1/2:     5     1
 fragment masses (1/2) :       94.94       19.00
CMA distance (Bohr)    :   7.303
constraining FC (au)   :  0.0500

           -------------------------------------------------
          |                 G F N 2 - x T B                 |
           -------------------------------------------------

        Reference                      10.1021/acs.jctc.8b01176
      * Hamiltonian:
        H0-scaling (s, p, d)           1.850000    2.230000    2.230000
        zeta-weighting                 0.500000
      * Dispersion:
        s8                             2.700000
        a1                             0.520000
        a2                             5.000000
        s9                             5.000000
      * Repulsion:
        kExp                           1.500000    1.000000
        rExp                           1.000000
      * Coulomb:
        alpha                          2.000000
        third order                    shell-resolved
        anisotropic                    true
        a3                             3.000000
        a5                             4.000000
        cn-shift                       1.200000
        cn-exp                         4.000000
        max-rad                        5.000000

q/qsh data taken from xtbrestart
CAMM data taken from xtbrestart

          ...................................................
          :                      SETUP                      :
          :.................................................:
          :  # basis functions                  21          :
          :  # atomic orbitals                  20          :
          :  # shells                           10          :
          :  # electrons                        22          :
          :  max. iterations                   250          :
          :  Hamiltonian                  GFN2-xTB          :
          :  restarted?                       true          :
          :  GBSA solvation                  false          :
          :  PC potential                    false          :
          :  electronic temp.          300.0000000     K    :
          :  accuracy                    0.2000000          :
          :  -> integral cutoff          0.3198970E+02      :
          :  -> integral neglect         0.2000000E-08      :
          :  -> SCF convergence          0.2000000E-06 Eh   :
          :  -> wf. convergence          0.2000000E-04 e    :
          :  Broyden damping             0.4000000          :
          :  net charge                         -1          :
          :  unpaired electrons                  0          :
          ...................................................

 iter      E             dE          RMSdq      gap      omega  full diag
   1    -12.7565156 -0.127565E+02  0.824E-01    3.35       0.0  T
   2    -12.7587442 -0.222862E-02  0.227E-01    3.64       1.0  T
   3    -12.7587923 -0.481130E-04  0.128E-01    3.60       1.0  T
   4    -12.7587915  0.768714E-06  0.881E-02    3.62       1.0  T
   5    -12.7588008 -0.929729E-05  0.446E-02    3.61       1.0  T
   6    -12.7588026 -0.174097E-05  0.141E-02    3.62       2.9  T
   7    -12.7588027 -0.156098E-06  0.700E-03    3.61       5.8  T
   8    -12.7588029 -0.147750E-06  0.885E-04    3.61      46.1  T
   9    -12.7588029 -0.571685E-09  0.205E-04    3.61     199.5  T
  10    -12.7588029 -0.171880E-10  0.125E-04    3.61     327.9  T
  11    -12.7588029 -0.859934E-11  0.532E-05    3.61     766.9  T

   *** convergence criteria satisfied after 11 iterations ***

         #    Occupation            Energy/Eh            Energy/eV
      -------------------------------------------------------------
         1        2.0000           -0.6377001             -17.3527
       ...           ...                  ...                  ...
         5        2.0000           -0.3287257              -8.9451
         6        2.0000           -0.2672870              -7.2733
         7        2.0000           -0.2101030              -5.7172
         8        2.0000           -0.2100195              -5.7149
         9        2.0000           -0.1975569              -5.3758
        10        2.0000           -0.1974447              -5.3727
        11        2.0000           -0.1941218              -5.2823 (HOMO)
        12                         -0.0613218              -1.6686 (LUMO)
        13                          0.2608917               7.0992
        14                          0.2609354               7.1004
        15                          0.2643372               7.1930
        16                          0.2651111               7.2140
       ...                                ...                  ...
        20                          0.4392369              11.9522
      -------------------------------------------------------------
                  HL-Gap            0.1328000 Eh            3.6137 eV
             Fermi-level           -0.1277218 Eh           -3.4755 eV

 SCC (total)                   0 d,  0 h,  0 min,  0.070 sec
 SCC setup                      ...        0 min,  0.000 sec (  0.296%)
 Dispersion                     ...        0 min,  0.000 sec (  0.087%)
 classical contributions        ...        0 min,  0.000 sec (  0.043%)
 integral evaluation            ...        0 min,  0.029 sec ( 41.694%)
 iterations                     ...        0 min,  0.039 sec ( 56.054%)
 molecular gradient             ...        0 min,  0.001 sec (  1.451%)
 printout                       ...        0 min,  0.000 sec (  0.343%)

         :::::::::::::::::::::::::::::::::::::::::::::::::::::
         ::                     SUMMARY                     ::
         :::::::::::::::::::::::::::::::::::::::::::::::::::::
         :: total energy             -12.700648995514 Eh    ::
         :: gradient norm              0.023755733884 Eh/a0 ::
         :: HOMO-LUMO gap              3.613672953352 eV    ::
         ::.................................................::
         :: SCC energy               -12.758802957913 Eh    ::
         :: -> isotropic ES            0.181821406361 Eh    ::
         :: -> anisotropic ES         -0.003720086375 Eh    ::
         :: -> anisotropic XC         -0.001143556352 Eh    ::
         :: -> dispersion             -0.002208182825 Eh    ::
         :: repulsion energy           0.058153962399 Eh    ::
         :: add. restraining           0.000000000000 Eh    ::
         :: total charge              -1.000000000000 e     ::
         :::::::::::::::::::::::::::::::::::::::::::::::::::::


Property printout bound to 'properties.out'

           -------------------------------------------------
          | TOTAL ENERGY              -12.700648995514 Eh   |
          | GRADIENT NORM               0.023755733884 Eh/α |
          | HOMO-LUMO GAP               3.613672953352 eV   |
           -------------------------------------------------

------------------------------------------------------------------------
 * finished run on 2026/03/16 at 14:14:50.252     
------------------------------------------------------------------------
 total:
 * wall-time:     0 d,  0 h,  0 min,  0.099 sec
 *  cpu-time:     0 d,  0 h,  0 min,  0.314 sec
 * ratio c/w:     3.181 speedup
 SCF:
 * wall-time:     0 d,  0 h,  0 min,  0.071 sec
 *  cpu-time:     0 d,  0 h,  0 min,  0.252 sec
 * ratio c/w:     3.570 speedup


-------------------------   --------------------
FINAL SINGLE POINT ENERGY       -12.700648995510
-------------------------   --------------------


-------------
DIPOLE MOMENT
-------------
                                X             Y             Z
Total Dipole Moment    :      0.37100       0.20700       0.83800
                        -----------------------------------------
Magnitude (a.u.)       :      0.93954
Magnitude (Debye)      :      2.38812


------------------
CARTESIAN GRADIENT
------------------

   1   C   :    0.003692535    0.002052832   -0.020768486
   2   H   :    0.000565915    0.001043039    0.003271403
   3   H   :    0.001177948   -0.000066271    0.003277045
   4   H   :   -0.002279162   -0.001267454    0.006904805
   5   F   :   -0.002570751   -0.001434720    0.003127200
   6   Br  :   -0.000586485   -0.000327426    0.004188033

Difference to translation invariance:
           :    0.0000000000   -0.0000000000   -0.0000000000

Difference to rotation invariance:
           :   -0.0000001130    0.0000002029   -0.0000000000

Norm of the Cartesian gradient     ...    0.0237557339
RMS gradient                       ...    0.0055992802
MAX gradient                       ...    0.0207684859
------------------------------------------------------------------------------
                         ORCA GEOMETRY RELAXATION STEP
------------------------------------------------------------------------------

Reading the OPT-File                    .... done
Getting information on internals        .... done
Copying old internal coords+grads       .... done
Making the new internal coordinates     .... (2022 redundants) done
Validating the new internal coordinates .... (2022 redundants) done
Calculating the B-matrix                .... done
Calculating the G,G- and P matrices     .... done
Transforming gradient to internals      .... done
Projecting the internal gradient        .... done
Number of atoms                         ....   6
Number of internal coordinates          ....  18
Current Energy                          ....   -12.700648996 Eh
Current gradient norm                   ....     0.023755734 Eh/bohr
Maximum allowed component of the step   ....  0.300
Current trust radius                    ....  0.200
Updating the Hessian (BFGS)             .... done
Forming the augmented Hessian           .... done
Diagonalizing the augmented Hessian     .... done
Last element of RFO vector              ....  0.829718104
Lowest eigenvalues of augmented Hessian:
 -0.005619458  0.009800879  0.030029741  0.059839296  0.092031508
Length of the computed step             ....  0.672737698
Warning: the length of the step is outside the trust region - taking restricted step instead
The input lambda is                     ....     0.004228
   iter:   5  x=   -0.002329  g=  793.971056 f(x)=     1.987370
   iter:  10  x=   -0.031502  g=    3.687477 f(x)=     0.021158
   iter:  15  x=   -0.033707  g=    1.903933 f(x)=    -0.000000
The output lambda is                    ....    -0.033707 (15 iterations)
The final length of the internal step   ....  0.200000000
Converting the step to Cartesian space:
 Initial RMS(Int)=    0.0471404521
Transforming coordinates:
 Iter   0:  RMS(Cart)=    0.0370453935 RMS(Int)=    0.0468677751
done
Storing new coordinates                 .... done
The predicted energy change is          ....    -0.001636153
Previously predicted energy change      ....    -0.002212378
Actually observed energy change         ....    -0.002417445
Ratio of predicted to observed change   ....     1.092690465
New trust radius                        ....     0.300000000

                                .--------------------.
          ----------------------|Geometry convergence|-------------------------
          Item                value                   Tolerance       Converged
          ---------------------------------------------------------------------
          Energy change      -0.0024174445            0.0000050000      NO
          RMS gradient        0.0029703268            0.0001000000      NO
          MAX gradient        0.0052667698            0.0003000000      NO
          RMS step            0.0471404521            0.0020000000      NO
          MAX step            0.0932200184            0.0040000000      NO
          -------------------------------------------------------------------------
          ........................................................
          Max(Bonds)      0.0493      Max(Angles)    4.23
          Max(Dihed)        0.00      Max(Improp)    0.00
          ---------------------------------------------------------------------

The optimization has not yet converged - more geometry cycles are needed


    ---------------------------------------------------------------------------
                         Redundant Internal Coordinates
                            (Angstroem and degrees)

        Definition                    Value    dE/dq     Step     New-Value
    ----------------------------------------------------------------------------
     1. B(H   1,C   0)                1.0717  0.001273 -0.0008    1.0709   
     2. B(H   2,C   0)                1.0717  0.001269 -0.0008    1.0709   
     3. B(H   3,C   0)                1.0736  0.004456  0.0016    1.0752   
     4. B(F   4,C   0)                1.9330  0.005267 -0.0493    1.8836   
     5. B(F   4,H   3)                2.0519 -0.002898  0.0332    2.0851   
     6. B(F   4,H   2)                2.1329  0.000275 -0.0352    2.0977   
     7. B(F   4,H   1)                2.1331  0.000282 -0.0353    2.0978   
     8. B(Br  5,C   0)                2.3013 -0.004181  0.0421    2.3434   
     9. A(H   1,C   0,H   3)          119.09 -0.000860    0.35    119.44   
    10. A(H   2,C   0,H   3)          119.09 -0.000860    0.35    119.44   
    11. A(H   1,C   0,Br  5)           96.34  0.003718   -2.05     94.29   
    12. A(H   2,C   0,Br  5)           96.34  0.003715   -2.05     94.29   
    13. A(H   3,C   0,Br  5)           96.04  0.002721   -1.16     94.88   
    14. A(H   1,C   0,F   4)           85.37 -0.002637    0.45     85.82   
    15. A(H   2,C   0,F   4)           85.36 -0.002640    0.46     85.81   
    16. A(H   3,C   0,F   4)           80.59 -0.004802    4.23     84.82   
    17. A(F   4,C   0,Br  5)          176.63 -0.002081    3.08    179.71   
    18. A(H   1,C   0,H   2)          118.33 -0.002035    1.49    119.82   
    ----------------------------------------------------------------------------

Geometry step timings:
Preparation and reading OPT file:      0.000 s ( 2.780 %)
Internal coordinates            :      0.000 s ( 4.000 %)
B/P matrices and projection     :      0.000 s (10.373 %)
Hessian update/contruction      :      0.000 s (28.881 %)
Making the step                 :      0.000 s (13.085 %)
Converting the step to Cartesian:      0.000 s ( 2.644 %)
Storing new data                :      0.000 s ( 6.712 %)
Checking convergence            :      0.000 s ( 7.932 %)
Final printing                  :      0.000 s (23.593 %)
Total time                      :      0.001 s

Time for energy+gradient        :      0.109 s
Time for complete geometry iter :      0.112 s

         *************************************************************
         *                GEOMETRY OPTIMIZATION CYCLE   4            *
         *************************************************************
---------------------------------
CARTESIAN COORDINATES (ANGSTROEM)
---------------------------------
  C    -0.148614   -0.082651    0.098224
  H    -0.134016    0.984625    0.183743
  H     0.765590   -0.633551    0.183765
  H    -1.085941   -0.603767    0.177883
  F    -0.172476   -0.095968    1.981657
  Br   -0.127679   -0.071047   -2.245011

----------------------------
CARTESIAN COORDINATES (A.U.)
----------------------------
[...]
                  HL-Gap            0.3264160 Eh            8.8822 eV
             Fermi-level            0.0179727 Eh            0.4891 eV

 SCC (total)                   0 d,  0 h,  0 min,  0.154 sec
 SCC setup                      ...        0 min,  0.000 sec (  0.182%)
 Dispersion                     ...        0 min,  0.000 sec (  0.036%)
 classical contributions        ...        0 min,  0.000 sec (  0.025%)
 integral evaluation            ...        0 min,  0.152 sec ( 98.258%)
 iterations                     ...        0 min,  0.001 sec (  0.770%)
 molecular gradient             ...        0 min,  0.001 sec (  0.581%)
 printout                       ...        0 min,  0.000 sec (  0.132%)

         :::::::::::::::::::::::::::::::::::::::::::::::::::::
         ::                     SUMMARY                     ::
         :::::::::::::::::::::::::::::::::::::::::::::::::::::
         :: total energy             -12.738789776845 Eh    ::
         :: gradient norm              0.000058557443 Eh/a0 ::
         :: HOMO-LUMO gap              8.882230718117 eV    ::
         ::.................................................::
         :: SCC energy               -12.798191484940 Eh    ::
         :: -> isotropic ES            0.181189294344 Eh    ::
         :: -> anisotropic ES         -0.001008211094 Eh    ::
         :: -> anisotropic XC         -0.001484271605 Eh    ::
         :: -> dispersion             -0.001908932237 Eh    ::
         :: repulsion energy           0.059401708095 Eh    ::
         :: add. restraining           0.000000000000 Eh    ::
         :: total charge              -1.000000000000 e     ::
         :::::::::::::::::::::::::::::::::::::::::::::::::::::

           ------------------------------------------------- 
          |                Numerical Hessian                |
           ------------------------------------------------- 
step length          :   0.00500
SCC accuracy         :   0.30000
Hessian scale factor :   1.00000
frozen atoms in %    :   0.00000    0
RMS gradient         :   0.00006
estimated CPU  time      0.00 min
estimated wall time      0.00 min

writing file <hessian>.

 projected vibrational frequencies (cm⁻¹)
eigval :       -0.00    -0.00    -0.00     0.00     0.00     0.00
eigval :       90.63    90.79    93.71  1001.12  1102.70  1102.77
eigval :     1386.73  1450.97  1451.09  3038.90  3045.48  3045.56

Property printout bound to 'properties.out'
Refinement of some symmetry elements was terminated before convergence was reached.
Some symmetry elements may remain unidentified.
Molecule has the following symmetry elements: (C3) 3*(sigma) 
It seems to be the C3v point group

           -------------------------------------------------
          | TOTAL ENERGY              -12.738789776845 Eh   |
          | TOTAL ENTHALPY            -12.694153047321 Eh   |
          | TOTAL FREE ENERGY         -12.729087788533 Eh   |
          | GRADIENT NORM               0.000058555593 Eh/α |
          | HOMO-LUMO GAP               8.882231236431 eV   |
           -------------------------------------------------

------------------------------------------------------------------------
 * finished run on 2026/03/16 at 14:14:54.368     
------------------------------------------------------------------------
 total:
 * wall-time:     0 d,  0 h,  0 min,  0.200 sec
 *  cpu-time:     0 d,  0 h,  0 min,  0.400 sec
 * ratio c/w:     1.997 speedup
 SCF:
 * wall-time:     0 d,  0 h,  0 min,  0.155 sec
 *  cpu-time:     0 d,  0 h,  0 min,  0.230 sec
 * ratio c/w:     1.490 speedup
 analytical hessian:
 * wall-time:     0 d,  0 h,  0 min,  0.013 sec
 *  cpu-time:     0 d,  0 h,  0 min,  0.099 sec
 * ratio c/w:     7.787 speedup


-------------------------   --------------------
FINAL SINGLE POINT ENERGY       -12.738789776840
-------------------------   --------------------


-------------
DIPOLE MOMENT
-------------
                                X             Y             Z
Total Dipole Moment    :      0.20300       0.11300       4.05600
                        -----------------------------------------
Magnitude (a.u.)       :      4.06265
Magnitude (Debye)      :     10.32643


-----------------------
VIBRATIONAL FREQUENCIES
-----------------------

Scaling factor for frequencies =  1.000000000  (already applied!)

     0:       0.00 cm**-1
     1:       0.00 cm**-1
     2:       0.00 cm**-1
     3:       0.00 cm**-1
     4:       0.00 cm**-1
     5:       0.00 cm**-1
     6:      90.63 cm**-1
     7:      90.79 cm**-1
     8:      93.71 cm**-1
     9:    1001.12 cm**-1
    10:    1102.67 cm**-1
    11:    1102.74 cm**-1
    12:    1386.70 cm**-1
    13:    1450.93 cm**-1
    14:    1451.05 cm**-1
    15:    3038.82 cm**-1
    16:    3045.39 cm**-1
    17:    3045.47 cm**-1


------------
NORMAL MODES
------------

These modes are the Cartesian displacements weighted by the diagonal matrix
M(i,i)=1/sqrt(m[i]) where m[i] is the mass of the displaced atom
Thus, these vectors are normalized but *not* orthogonal

                  0          1          2          3          4          5    
      0       0.000000   0.000000   0.000000   0.000000   0.000000   0.000000
      1       0.000000   0.000000   0.000000   0.000000   0.000000   0.000000
      2       0.000000   0.000000   0.000000   0.000000   0.000000   0.000000
      3       0.000000   0.000000   0.000000   0.000000   0.000000   0.000000
      4       0.000000   0.000000   0.000000   0.000000   0.000000   0.000000
      5       0.000000   0.000000   0.000000   0.000000   0.000000   0.000000
      6       0.000000   0.000000   0.000000   0.000000   0.000000   0.000000
      7       0.000000   0.000000   0.000000   0.000000   0.000000   0.000000
      8       0.000000   0.000000   0.000000   0.000000   0.000000   0.000000
      9       0.000000   0.000000   0.000000   0.000000   0.000000   0.000000
     10       0.000000   0.000000   0.000000   0.000000   0.000000   0.000000
     11       0.000000   0.000000   0.000000   0.000000   0.000000   0.000000
     12       0.000000   0.000000   0.000000   0.000000   0.000000   0.000000
     13       0.000000   0.000000   0.000000   0.000000   0.000000   0.000000
     14       0.000000   0.000000   0.000000   0.000000   0.000000   0.000000
     15       0.000000   0.000000   0.000000   0.000000   0.000000   0.000000
     16       0.000000   0.000000   0.000000   0.000000   0.000000   0.000000
     17       0.000000   0.000000   0.000000   0.000000   0.000000   0.000000
                  6          7          8          9         10         11    
      0      -0.294798   0.149085   0.008211  -0.010828  -0.109979   0.079509
      1      -0.149092  -0.294877  -0.005048  -0.005825  -0.079498  -0.109983
      2      -0.005353   0.003229  -0.443808   0.556294  -0.002956   0.000421
      3      -0.402136   0.211773   0.008138  -0.008098   0.207522  -0.170428
      4      -0.206821  -0.408899  -0.008468  -0.015363   0.078891   0.112809
      5      -0.188633  -0.339856  -0.448079   0.413740   0.452849   0.597085
      6      -0.405141   0.204388   0.008310  -0.017569   0.170202  -0.047135
      7      -0.200700  -0.412643  -0.009160   0.000757   0.178822   0.166929
      8      -0.214943   0.330805  -0.431016   0.414490   0.299960  -0.686517
      9      -0.419959   0.204547   0.007257   0.001786   0.125485  -0.146248
     10      -0.213106  -0.405872  -0.009153   0.000401   0.106055   0.223530
     11       0.378814   0.018137  -0.430482   0.414488  -0.739264   0.088123
     12       0.165276  -0.083718   0.008836   0.008131   0.042774  -0.030925
     13       0.083583   0.165316   0.010313   0.004457   0.030920   0.042780
     14       0.006049   0.003624  -0.441607  -0.418214   0.001149  -0.000195
     15       0.020500  -0.010336  -0.003634  -0.000004   0.000014  -0.000009
     16       0.010368   0.020505  -0.001355  -0.000005   0.000009   0.000012
     17      -0.000321  -0.001462   0.188239   0.000137   0.000000  -0.000000
                 12         13         14         15         16         17    
      0      -0.002231   0.054702   0.033307  -0.002249  -0.053223   0.072172
      1      -0.001185   0.033306  -0.054720  -0.001088   0.072234   0.053202
      2       0.114501   0.001395   0.000180   0.037976  -0.000413   0.002719
      3       0.007519  -0.624726  -0.389277   0.011533  -0.041222   0.025538
      4      -0.192157   0.076063  -0.098202   0.558927  -0.615199  -0.457337
      5      -0.540026   0.162165  -0.283810  -0.166150   0.201690   0.151122
      6      -0.159729  -0.287068   0.266868   0.482649   0.619778  -0.225453
      7       0.107426  -0.591004   0.233069  -0.286234  -0.345810   0.181447
      8      -0.540612   0.139332   0.294954  -0.166852  -0.232791   0.095320
      9       0.183867   0.131410  -0.352757  -0.465963   0.065115  -0.672919
     10       0.101551   0.039801   0.645725  -0.259011   0.087418  -0.367522
     11      -0.533562  -0.321731  -0.013110  -0.177417   0.036304  -0.280310
     12      -0.000249   0.006618   0.004030  -0.000072  -0.000563   0.000763
     13      -0.000131   0.004028  -0.006617  -0.000037   0.000765   0.000563
     14       0.012279   0.000185  -0.000008   0.002833  -0.000014   0.000076
     15      -0.000005   0.000049   0.000029  -0.000001   0.000014  -0.000019
     16      -0.000003   0.000030  -0.000049  -0.000000  -0.000019  -0.000014
     17       0.000232   0.000002  -0.000000   0.000057  -0.000000   0.000001


The first frequency considered to be a vibration is 6
The total number of vibrations considered is 12


--------------------------
THERMOCHEMISTRY AT 298.15K
--------------------------

Temperature         ...   298.15 K
Pressure            ...     1.00 atm
Total Mass          ...   113.93 AMU
Quasi RRHO          ...     True
Cut-Off Frequency   ...     1.00 cm^-1

Throughout the following assumptions are being made:
  (1) The electronic state is orbitally nondegenerate
  (2) There are no thermally accessible electronically excited states
  (3) Hindered rotations indicated by low frequency modes are not
      treated as such but are treated as vibrations and this may
      cause some error
  (4) All equations used are the standard statistical mechanics
      equations for an ideal gas
  (5) All vibrations are strictly harmonic

freq.      90.63  E(vib)   ...       0.47 
freq.      90.79  E(vib)   ...       0.47 
freq.      93.71  E(vib)   ...       0.47 
freq.    1001.12  E(vib)   ...       0.02 
freq.    1102.67  E(vib)   ...       0.02 
freq.    1102.74  E(vib)   ...       0.02 
freq.    1386.70  E(vib)   ...       0.00 
freq.    1450.93  E(vib)   ...       0.00 
freq.    1451.05  E(vib)   ...       0.00 
freq.    3038.82  E(vib)   ...       0.00 
freq.    3045.39  E(vib)   ...       0.00 
freq.    3045.47  E(vib)   ...       0.00 

------------
INNER ENERGY
------------

The inner energy is: U= E(el) + E(ZPE) + E(vib) + E(rot) + E(trans)
    E(el)   - is the total energy from the electronic structure calculation
              = E(kin-el) + E(nuc-el) + E(el-el) + E(nuc-nuc)
    E(ZPE)  - the the zero temperature vibrational energy from the frequency calculation
    E(vib)  - the the finite temperature correction to E(ZPE) due to population
              of excited vibrational states
    E(rot)  - is the rotational thermal energy
    E(trans)- is the translational thermal energy

Summary of contributions to the inner energy U:
Electronic energy                ...    -12.73878978 Eh
Zero point energy                ...      0.03850104 Eh      24.16 kcal/mol
Thermal vibrational correction   ...      0.00235788 Eh       1.48 kcal/mol
Thermal rotational correction    ...      0.00141627 Eh       0.89 kcal/mol
Thermal translational correction ...      0.00141627 Eh       0.89 kcal/mol
-----------------------------------------------------------------------
Total thermal energy                    -12.69509831 Eh


Summary of corrections to the electronic energy:
(perhaps to be used in another calculation)
Total thermal correction                  0.00519042 Eh       3.26 kcal/mol
Non-thermal (ZPE) correction              0.03850104 Eh      24.16 kcal/mol
-----------------------------------------------------------------------
Total correction                          0.04369147 Eh      27.42 kcal/mol


--------
ENTHALPY
--------

The enthalpy is H = U + kB*T
                kB is Boltzmann's constant
Total thermal energy              ...    -12.69509831 Eh 
Thermal Enthalpy correction       ...      0.00094421 Eh       0.59 kcal/mol
-----------------------------------------------------------------------
Total Enthalpy                    ...    -12.69415410 Eh


WARNING (ORCA/SYM): The number of Z matrix atoms does not agree with
the number of centers in the basis set. The point group will therefore
be determined without considering basis set information.


Note: Rotational entropy computed according to Herzberg 
Infrared and Raman Spectra, Chapter V,1, Van Nostrand Reinhold, 1945 
Point Group:  Cs, Symmetry Number:   1  
Rotational constants in cm-1:     5.248442     0.042374     0.042374 

Vibrational entropy computed according to the QRRHO of S. Grimme
Chem.Eur.J. 2012 18 9955 using a reference frequency of 100.0 cm-1


-------
ENTROPY
-------

The entropy contributions are T*S = T*(S(el)+S(vib)+S(rot)+S(trans))
     S(el)   - electronic entropy
     S(vib)  - vibrational entropy
     S(rot)  - rotational entropy
     S(trans)- translational entropy
The entropies will be listed as multiplied by the temperature to get
units of energy

Electronic entropy                ...      0.00000000 Eh      0.00 kcal/mol
Vibrational entropy               ...      0.00472020 Eh      2.96 kcal/mol
Rotational entropy                ...      0.01171288 Eh      7.35 kcal/mol
Translational entropy             ...      0.01905598 Eh     11.96 kcal/mol
-----------------------------------------------------------------------
Final entropy term                ...      0.03548905 Eh     22.27 kcal/mol

In case the symmetry of your molecule has not been determined correctly
or in case you have a reason to use a different symmetry number we print 
out the resulting rotational entropy values for sn=1,12:

 non-linear molecules -----------------------------------
|  sn= 1 | S(rot)=       0.01171288 Eh      7.35 kcal/mol|
|  sn= 2 | S(rot)=       0.01105842 Eh      6.94 kcal/mol|
|  sn= 3 | S(rot)=       0.01067559 Eh      6.70 kcal/mol|
|  sn= 4 | S(rot)=       0.01040396 Eh      6.53 kcal/mol|
|  sn= 5 | S(rot)=       0.01019327 Eh      6.40 kcal/mol|
|  sn= 6 | S(rot)=       0.01002113 Eh      6.29 kcal/mol|
|  sn= 7 | S(rot)=       0.00987558 Eh      6.20 kcal/mol|
|  sn= 8 | S(rot)=       0.00974951 Eh      6.12 kcal/mol|
|  sn= 9 | S(rot)=       0.00963830 Eh      6.05 kcal/mol|
|  sn=10 | S(rot)=       0.00953882 Eh      5.99 kcal/mol|
|  sn=11 | S(rot)=       0.00944883 Eh      5.93 kcal/mol|
|  sn=12 | S(rot)=       0.00936667 Eh      5.88 kcal/mol|
 linear molecules ---------------------------------------
|  Dinfh | S(rot)=       0.00831057 Eh      5.21 kcal/mol|
|  Cinfv | S(rot)=       0.00896502 Eh      5.63 kcal/mol|
 --------------------------------------------------------


-------------------
GIBBS FREE ENERGY
-------------------

The Gibbs free energy is G = H - T*S

Total enthalpy                    ...    -12.69415410 Eh 
Total entropy correction          ...     -0.03548905 Eh    -22.27 kcal/mol
-----------------------------------------------------------------------
Final Gibbs free energy         ...    -12.72964316 Eh

For completeness - the Gibbs free energy minus the electronic energy
G-E(el)                           ...      0.00914662 Eh      5.74 kcal/mol


--------------------------------
SUGGESTED CITATIONS FOR THIS RUN
--------------------------------

Below you find a list of papers that are relevant to this ORCA run
We neither can nor want to force you to cite these papers, but we appreciate if you do
You receive ORCA, which is the product of decades of hard work by many enthusiastic individuals, for free
The only thing we kindly ask in return is that you cite our papers,
We deeply appreciate it, if you show your appreciation for ORCA by not just citing the generic ORCA reference.

Please note that relegating all ORCA citations to the supporting information does *not* help us.
SI sections are not indexed - citations you put there will not count into any citation statistics
But we need these citations in order to attract the funding resources that allow us to do what we are doing

Therefore, if you are a happy ORCA user, please consider citing a few of the papers listed below in the main body of your paper

In addition to the list printed below, the program has created the file product_optfreq.bibtex that contains the list in bibtex format
You can import this file easily into all common literature databanks and citation aid programs


List of essential papers. We consider these as the minimum necessary citations

  1. Bannwarth, C.; Ehlert, S.; Grimme, S.
     GFN2-xTB—An Accurate and Broadly Parametrized Self-Consistent Tight-Binding Quantum Chemical Method with Multipole Electrostatics and Density-Dependent Dispersion Contributions
     J. Chem. Theory Comput. 2019 15(3), 1652-1671
     doi.org/10.1021/acs.jctc.8b01176
  2. Neese, F.
     Software update: the ORCA program system, version 6.0
     WIRES Comput. Molec. Sci. 2025 15(1), e70019
     doi.org/10.1002/wcms.7019

List of papers to cite with high priority. The work reported in these papers was absolutely
necessary for this run to complete.
Our perspective: the developers of density functionals and basis sets usually get cited in chemistry papers
Good! But without the algorithms to do something with them, the functionals or basis sets would not do anything.
Hence, in our opinion, the algorithm design and method developments papers are equally worthy of getting cited

  1. Bykov, D.; Petrenko, T.; Izsak, R.; Kossmann, S.; Becker, U.; Valeev, E.; Neese, F.
     Efficient implementation of the analytic second derivatives of Hartree-Fock and hybrid DFT energies: a detailed analysis of different approximations
     Molec. Phys. 2015 113 , 1961-1977
     doi.org/10.1080/00268976.2015.1025114
  2. Bannwarth, C.; Caldeweyher, E.; Ehlert, S.; Hansen, A.; Pracht, P.; Seibert, J.; Spicher, S.; Grimme, S.
     Extended tight-binding quantum chemistry methods
     WIRES Comput. Molec. Sci. 2020 11(2), e1493
     doi.org/10.1002/wcms.1493

List of suggested additional citations. These are papers that are important in the 'surrounding' of 
of this run, or papers that preceded the highly important papers. If you like your results we are grateful for a citation.

  1. Neese, F.
     The ORCA program system
     WIRES Comput. Molec. Sci. 2012 2(1), 73-78
     doi.org/10.1002/wcms.81
  2. Neese, F.
     Software update: the ORCA program system, version 4.0
     WIRES Comput. Molec. Sci. 2018 8(1), 1-6
     doi.org/10.1002/wcms.1327
  3. Neese, F.; Wennmohs, F.; Becker, U.; Riplinger, C.
     The ORCA quantum chemistry program package
     J. Chem. Phys. 2020 152(22), 224108
     doi.org/10.1063/5.0004608
  4. Neese, F.
     Software update: The ORCA program system—Version 5.0
     WIRES Comput. Molec. Sci. 2022 12(1), e1606
     doi.org/10.1002/wcms.1606

List of optional additional citations

  1. Neese, F.
     Approximate second-order SCF convergence for spin unrestricted wavefunctions
     Chem. Phys. Lett. 2000 325(1-3), 93-98
     doi.org/10.1016/s0009-2614(00)00662-x

Timings for individual modules:

Sum of individual times          ...        4.555 sec (=   0.076 min)
Geometry relaxation              ...        0.174 sec (=   0.003 min)   3.8 %
XTB module                       ...        4.381 sec (=   0.073 min)  96.2 %
                             ****ORCA TERMINATED NORMALLY****
TOTAL RUN TIME: 0 days 0 hours 0 minutes 5 seconds 430 msec
