
                                 *****************
                                 * O   R   C   A *
                                 *****************

                                            #,                                       
                                            ###                                      
                                            ####                                     
                                            #####                                    
                                            ######                                   
                                           ########,                                 
                                     ,,################,,,,,                         
                               ,,#################################,,                 
                          ,,##########################################,,             
                       ,#########################################, ''#####,          
                    ,#############################################,,   '####,        
                  ,##################################################,,,,####,       
                ,###########''''           ''''###############################       
              ,#####''   ,,,,##########,,,,          '''####'''          '####       
            ,##' ,,,,###########################,,,                        '##       
           ' ,,###''''                  '''############,,,                           
         ,,##''                                '''############,,,,        ,,,,,,###''
      ,#''                                            '''#######################'''  
     '                                                          ''''####''''         
             ,#######,   #######,   ,#######,      ##                                
            ,#'     '#,  ##    ##  ,#'     '#,    #''#        ,####,    ,#,          
            ##       ##  ##   ,#'  ##            #'  '#       #'       ,# #          
            ##       ##  #######   ##           ,######,      #####,      #          
            '#,     ,#'  ##    ##  '#,     ,#' ,#      #,     #,   #      #          
             '#######'   ##     ##  '#######'  #'      '#     '####' #    #          



                #########################################################
                #                        -***-                          #
                #          Department of theory and spectroscopy        #
                #                                                       #
                #                      Frank Neese                      #
                #                                                       #
                #     Directorship, Architecture, Infrastructure        #
                #                    SHARK, DRIVERS                     #
                #        Core code/Algorithms in most modules           #
                #                                                       #
                #        Max Planck Institute fuer Kohlenforschung      #
                #                Kaiser Wilhelm Platz 1                 #
                #                 D-45470 Muelheim/Ruhr                 #
                #                      Germany                          #
                #                                                       #
                #                  All rights reserved                  #
                #                        -***-                          #
                #########################################################


                         Program Version 6.1.0  -  RELEASE   -
                                (GIT: $679e74b$)
                          ($2025-06-10 18:02:51 +0200$)


 With contributions from (in alphabetic order):
[Max-Planck-Institut fuer Kohlenforschung]                               
  Daniel Aravena         : Magnetic Suceptibility                        
  Michael Atanasov       : Ab Initio Ligand Field Theory (pilot matlab implementation)
  Alexander A. Auer      : GIAO ZORA, VPT2 properties, NMR spectrum      
  Ute Becker             : All parallelization in ORCA, NUMFREQ, NUMCALC 
  Giovanni Bistoni       : ED, misc. LED, open-shell LED, HFLD           
  Dmytro Bykov           : pre 5.0 version of the SCF Hessian            
  Marcos Casanova-Páez   : Triplet and SCS-CIS(D). UHF-(DLPNO)-IP/EA/STEOM-CCSD. UHF-CVS-IP/STEOM-CCSD   
  Vijay G. Chilkuri      : MRCI spin determinant printing, contributions to CSF-ICE 
  Pauline Colinet        : FMM embedding                                 
  Dipayan Datta          : RHF DLPNO-CCSD density                        
  Achintya Kumar Dutta   : EOM-CC, STEOM-CC                              
  Nicolas Foglia         : Exact transition moments, OPA infrastructure, MCD improvements    
  Dmitry Ganyushin       : Spin-Orbit,Spin-Spin,Magnetic field MRCI      
  Miquel Garcia-Rates    : C-PCM and meta-GGA Hessian, CCSD/C-PCM, Gaussian charge scheme 
  Tiago L. C. Gouveia    : GS-ROHF, GS-ROCIS                             
  Yang Guo               : DLPNO-NEVPT2, F12-NEVPT2, CIM, IAO-localization        
  Andreas Hansen         : Spin unrestricted coupled pair/coupled cluster methods 
  Ingolf Harden          : AUTO-CI MPn and infrastructure                
  Benjamin Helmich-Paris : MC-RPA, TRAH-(SCF,CASSCF), AVAS, COSX integrals, SCF dyn. polar., MC-PDFT, srDFT 
  Lee Huntington         : MR-EOM, pCC                                   
  Robert Izsak           : Overlap fitted RIJCOSX, COSX-SCS-MP3, EOM     
  Riya Kayal             : Wick's Theorem for AUTO-CI, AUTO-CI UHF-CCSDT 
  Emily Kempfer          : AUTO-CI RHF CISDT and CCSDT, approximate NEVPT4
  Christian Kollmar      : KDIIS, OOCD, Brueckner-CCSD(T), CCSD density, CASPT2, CASPT2-K, improved NEVPT2 
  Axel Koslowski         : Symmetry handling                             
  Simone Kossmann        : meta-GGA functionals, TD-DFT gradient, OOMP2, (MP2 Hessian; deprecated post 5.0) 
  Lucas Lang             : DCDCAS, Hyperfine gauge corrections, ICE-SOC+SSC
  Marvin Lechner         : AUTO-CI (C++ implementation), FIC-MRCC        
  Spencer Leger          : CASSCF response                               
  Dagmar Lenk            : GEPOL surface, SMD, ORCA-2-JSON               
  Dimitrios Liakos       : Extrapolation schemes; Compound Job, Property file
  Dimitrios Manganas     : Further ROCIS development; embedding schemes. LFT, Crystal Embedding 
  Dimitrios Pantazis     : SARC Basis sets                               
  Anastasios Papadopoulos: AUTO-CI, single reference methods and gradients 
  Taras Petrenko         : pre 6.0 DFT Hessian and TD-DFT gradient,  ECA, NRVS 
  Petra Pikulova         : Analytic Raman intensities                    
  Peter Pinski           : DLPNO-MP2, DLPNO-MP2 Gradient                 
  Shashank Vittal Rao    : ES-AILFT, MagRelax                            
  Christoph Reimann      : Effective Core Potentials                     
  Marius Retegan         : Local ZFS, SOC                                
  Christoph Riplinger    : Optimizer, TS searches, QM/MM, DLPNO-CCSD(T), (RO)-DLPNO pert. Triples 
  Michael Roemelt        : Original ROCIS implementation, recursive CI coupling coefficients
  Masaaki Saitow         : Open-shell DLPNO-CCSD energy and density      
  Barbara Sandhoefer     : DKH picture change effects                    
  Yorick L. A. Schmerwitz: GMF and freeze-and-release deltaSCF, NEB S-IDPP initial path                    
  Kantharuban Sivalingam : CASSCF convergence/infrastructure, NEVPT2, NEVPT3, NEVPT4(SD), FIC-MRCI and CEPA variants
  Bernardo de Souza      : ESD, SOC TD-DFT                               
  Georgi L. Stoychev     : AutoAux, RI-MP2 NMR, DLPNO-MP2 response, X2C  
  Van Anh Tran           : RI-MP2 g-tensors                              
  Willem Van den Heuvel  : Paramagnetic NMR                              
  Zikuan Wang            : NOTCH, Electric field optimization            
  Frank Wennmohs         : Technical directorship and infrastructure     
  Hang Xu                : AUTO-CI-Response properties                   
                                                                         
[FACCTs GmbH]                                                            
  Markus Bursch, Nicolas Foglia, Miquel Garcia-Rates, Ingolf Harden, Hagen Neugebauer, Anastasios Papadopoulos, 
  Christoph Riplinger, Bernardo de Souza, Georgi L. Stoychev                                                    
                                                                 
  APM, various basis sets, CI-OPT, improved COSX, DLPNO-Multilevel,           
  DOCKER, DRACO, updates on ESD, Fragmentator, GOAT, IRC, LR-CPCM, L-BFGS, MBIS, meta-GGA TD-DFT gradient, ML-optimized integration grids, 
  MM, NACMEs, nearIR, NEB, NEB-TS, NL-DFT gradient (VV10), 2- and 3-layer-ONIOM, interface openCOSMO-RS, QMMM,   
  Crystal-QMMM, RESP, rigid body optimization, SF, symmetry and pop. for TD-DFT, various functionals, SOLVATOR                                   
                                                                         
[Other institutions]                                                     
  V. Asgeirsson          : NEB                                           
  Christoph Bannwarth    : sTDA-DFT, sTD-DFT, PBEh-3c, B97-3c, D3        
  Giovanni Bistoni       : ETS/NOCV, ADLD/ADEX, COVALED                  
  Martin Brehm           : Molecular dynamics                            
  Ronald Cardenas        : ETS/NOCV                                      
  Martina Colucci        : COVALED                                       
  Sebastian Ehlert       : rSCAN, r2SCAN, r2SCAN-3c, D4, dhf basis sets  
  Marvin Friede          : D4 for Fr, Ra, Ac-Lr                          
  Lars Goerigk           : TD-DFT with DH, B97 family of functionals     
  Stefan Grimme          : VdW corrections, initial TS optimization, DFT functionals, gCP, sTDA/sTD-DF 
  Waldemar Hujo          : DFT-NL                                        
  H. Jonsson             : NEB                                           
  Holger Kruse           : gCP                                           
  Marcel Mueller         : wB97X-3c, vDZP basis set                      
  Hagen Neugebauer       : wr2SCAN, Native XTB                           
  Gianluca Regni         : ADLD/ADEX                                     
  Tobias Risthaus        : pre 6.0 range-separated hybrid DFT and stability analysis
  Lukas Wittmann         : regularized MP2, r2SCAN double-hybrids, wr2SCAN        
                                                                         
We gratefully acknowledge several colleagues who have allowed us to      
interface, adapt or use parts of their codes:                            
  Ed Valeev, F. Pavosevic, A. Kumar             : LibInt (2-el integral package), F12 methods 
  Garnet Chan, S. Sharma, J. Yang, R. Olivares  : DMRG                   
  Ulf Ekstrom                                   : XCFun DFT Library      
  Mihaly Kallay                                 : mrcc  (arbitrary order and MRCC methods)
  Frank Weinhold                                : gennbo (NPA and NBO analysis)           
  Simon Mueller                                 : openCOSMO-RS                            
  Christopher J. Cramer and Donald G. Truhlar   : smd solvation model                     
  S Lehtola, MJT Oliveira, MAL Marques          : LibXC Library                           
  Liviu Ungur et al                             : ANISO software                          


 Your calculation uses the libint2 library for the computation of 2-el integrals
 For citations please refer to: http://libint.valeyev.net

 Your ORCA version has been built with support for libXC version: 7.0.0
 For citations please refer to: https://libxc.gitlab.io

 This ORCA versions uses:
   CBLAS   interface :  Fast vector & matrix operations
   LAPACKE interface :  Fast linear algebra routines
   SCALAPACK package :  Parallel linear algebra routines
   Shared memory     :  Shared parallel matrices
   BLAS/LAPACK       :  OpenBLAS 0.3.29  USE64BITINT DYNAMIC_ARCH NO_AFFINITY SkylakeX SINGLE_THREADED
        Core in use  :  SkylakeX
   Copyright (c) 2011-2014, The OpenBLAS Project


  ***********************************
  * Starting time: Thu Mar 12 12:46:05 2026
  * Host name:     midway3-login4.rcc.local
  * Process ID:    2784424
  * Working dir.:  /home/rzhu16/orca_TS_search/sn2_f_br/geo_opt_reactant_product
  ***********************************

Your calculation utilizes the semiempirical GFN2-xTB method
Please cite in your paper:
Bannwarth, C.; Ehlert S.; Grimme, S. J. Chem. Theory Comput. 2019, 15, 1652.
   

================================================================================

================================================================================
                                        WARNINGS
                       Please study these warnings very carefully!
================================================================================


WARNING: Analytical Hessian for XTB is limited in the analysis of the data.
       : If you want to obtain extensive IR and deltaG analysis, please use ! XTB NumFreq. 


WARNING: Geometry Optimization
  ===> : Switching off AutoStart
         For restart on a previous wavefunction, please use MOREAD

WARNING: Found dipole moment calculation with XTB calculation
  ===> : Switching off dipole moment calculation


WARNING: Found frequency calculation in combination with XTB calculation
  ===> : Need to redirect dipole moment calculation to properties.out


================================================================================
                                       INPUT FILE
================================================================================
NAME = product_optfreq.inp
|  1> ! XTB2 Opt Freq PAL8
|  2> 
|  3> * xyz -1 1
|  4>   C       0.344201      0.197788     -0.304970
|  5>   H       0.436049      1.279724     -0.254690
|  6>   H       1.328645     -0.260395     -0.256450
|  7>   H      -0.287491     -0.168792      0.539137
|  8>   F      -0.608068     -0.351381      2.158991
|  9>   Br     -0.346324     -0.200355     -2.089318
| 10> *
| 11> 
| 12>                          ****END OF INPUT****
================================================================================

                       *****************************
                       * Geometry Optimization Run *
                       *****************************

Geometry optimization settings:
Update method            Update   .... BFGS
Choice of coordinates    CoordSys .... (2022) Redundant Internals
Initial Hessian          InHess   .... Almloef's Model
Max. no of cycles        MaxIter  .... 50

Convergence Tolerances:
Energy Change            TolE     ....  5.0000e-06 Eh
Max. Gradient            TolMAXG  ....  3.0000e-04 Eh/bohr
RMS Gradient             TolRMSG  ....  1.0000e-04 Eh/bohr
Max. Displacement        TolMAXD  ....  4.0000e-03 bohr
RMS Displacement         TolRMSD  ....  2.0000e-03 bohr
Strict Convergence                .... False

------------------------------------------------------------------------------
                        ORCA OPTIMIZATION COORDINATE SETUP
------------------------------------------------------------------------------

The optimization will be done in redundant internal coordinates (2022)
Making redundant internal coordinates   ...  (2022 redundants) done
Evaluating the initial hessian          ...  (Almloef) done
Evaluating the coordinates              ...  done
Calculating the B-matrix                .... done
Calculating the G-matrix                .... done
The number of degrees of freedom        ....   15

    -----------------------------------------------------------------
                    Redundant Internal Coordinates


    -----------------------------------------------------------------
         Definition                    Initial Value    Approx d2E/dq
    -----------------------------------------------------------------
      1. B(H   1,C   0)                  1.0870         0.364102   
      2. B(H   2,C   0)                  1.0869         0.364185   
      3. B(H   3,C   0)                  1.1162         0.327040   
      4. B(F   4,H   3)                  1.6613         0.036739   
      5. B(Br  5,C   0)                  1.9543         0.264209   
      6. A(H   1,C   0,H   3)          109.8602         0.286982   
      7. A(H   1,C   0,H   2)          109.9368         0.291862   
      8. A(H   1,C   0,Br  5)          105.9543         0.325652   
      9. A(H   2,C   0,Br  5)          105.9561         0.325664   
     10. A(H   3,C   0,Br  5)          115.0617         0.319971   
     11. A(H   2,C   0,H   3)          109.8992         0.286993   
     12. A(C   0,H   3,F   4)          151.9623         0.204507   
     13. D(F   4,H   3,C   0,H   2)     60.8180         0.096227   
     14. D(F   4,H   3,C   0,Br  5)   -179.7091         0.096227   
     15. D(F   4,H   3,C   0,H   1)    -60.2675         0.096227   
    -----------------------------------------------------------------

Number of atoms                         .... 6
Number of degrees of freedom            .... 15


         *************************************************************
         *                GEOMETRY OPTIMIZATION CYCLE   1            *
         *************************************************************
---------------------------------
CARTESIAN COORDINATES (ANGSTROEM)
---------------------------------
  C     0.344201    0.197788   -0.304970
  H     0.436049    1.279724   -0.254690
  H     1.328645   -0.260395   -0.256450
  H    -0.287491   -0.168792    0.539137
  F    -0.608068   -0.351381    2.158991
  Br   -0.346324   -0.200355   -2.089318

----------------------------
CARTESIAN COORDINATES (A.U.)
----------------------------
  NO LB    ZA    FRAG    MASS        X           Y           Z
   0 C   6.0000    0    12.011    0.650446    0.373765   -0.576310
   1 H   1.0000    0     1.008    0.824013    2.418328   -0.481294
   2 H   1.0000    0     1.008    2.510775   -0.492075   -0.484620
   3 H   1.0000    0     1.008   -0.543279   -0.318971    1.018821
   4 F   9.0000    0    18.998   -1.149082   -0.664014    4.079902
   5 Br 35.0000    0    79.900   -0.654458   -0.378616   -3.948239

      -----------------------------------------------------------      
     |                   =====================                   |     
     |                           x T B                           |     
     |                   =====================                   |     
     |                         S. Grimme                         |     
     |          Mulliken Center for Theoretical Chemistry        |     
     |                    University of Bonn                     |     
      -----------------------------------------------------------      

   * xtb version 6.7.1 (edcfbbe) compiled by 'albert@albert-system' on 2024-07-22

   xtb is free software: you can redistribute it and/or modify it under
   the terms of the GNU Lesser General Public License as published by
   the Free Software Foundation, either version 3 of the License, or
   (at your option) any later version.
   
   xtb is distributed in the hope that it will be useful,
   but WITHOUT ANY WARRANTY; without even the implied warranty of
   MERCHANTABILITY or FITNESS FOR A PARTICULAR PURPOSE.  See the
   GNU Lesser General Public License for more details.
   
   Cite this work as:
   * C. Bannwarth, E. Caldeweyher, S. Ehlert, A. Hansen, P. Pracht,
     J. Seibert, S. Spicher, S. Grimme, WIREs Comput. Mol. Sci., 2020, 11,
     e01493. DOI: 10.1002/wcms.1493
   
   for GFN2-xTB:
   * C. Bannwarth, S. Ehlert and S. Grimme., J. Chem. Theory Comput., 2019,
     15, 1652-1671. DOI: 10.1021/acs.jctc.8b01176
   for GFN1-xTB:
   * S. Grimme, C. Bannwarth, P. Shushkov, J. Chem. Theory Comput., 2017,
     13, 1989-2009. DOI: 10.1021/acs.jctc.7b00118
   for GFN0-xTB:
   * P. Pracht, E. Caldeweyher, S. Ehlert, S. Grimme, ChemRxiv, 2019, preprint.
     DOI: 10.26434/chemrxiv.8326202.v1
   for GFN-FF:
   * S. Spicher and S. Grimme, Angew. Chem. Int. Ed., 2020, 59, 15665-15673.
     DOI: 10.1002/anie.202004239
   
   for ALPB and GBSA implicit solvation:
   * S. Ehlert, M. Stahn, S. Spicher, S. Grimme, J. Chem. Theory Comput.,
     2021, 17, 4250-4261. DOI: 10.1021/acs.jctc.1c00471
   
   for ddCOSMO and CPCM-X implicit solvation:
   * M. Stahn, S. Ehlert, S. Grimme, J. Phys. Chem. A,
     2023, XX, XXXX-XXXX. DOI: 10.1021/acs.jpca.3c04382
   
   for DFT-D4:
   * E. Caldeweyher, C. Bannwarth and S. Grimme, J. Chem. Phys., 2017,
     147, 034112. DOI: 10.1063/1.4993215
   * E. Caldeweyher, S. Ehlert, A. Hansen, H. Neugebauer, S. Spicher,
     C. Bannwarth and S. Grimme, J. Chem. Phys., 2019, 150, 154122.
     DOI: 10.1063/1.5090222
   * E. Caldeweyher, J.-M. Mewes, S. Ehlert and S. Grimme, Phys. Chem. Chem. Phys.
     2020, 22, 8499-8512. DOI: 10.1039/D0CP00502A
   
   for sTDA-xTB:
   * S. Grimme and C. Bannwarth, J. Chem. Phys., 2016, 145, 054103.
     DOI: 10.1063/1.4959605
   
   in the mass-spec context:
   * V. Asgeirsson, C. Bauer and S. Grimme, Chem. Sci., 2017, 8, 4879.
     DOI: 10.1039/c7sc00601b
   * J. Koopman and S. Grimme, ACS Omega 2019, 4, 12, 15120-15133.
     DOI: 10.1021/acsomega.9b02011
   
   for metadynamics refer to:
   * S. Grimme, J. Chem. Theory Comput., 2019, 155, 2847-2862
     DOI: 10.1021/acs.jctc.9b00143
   
   for SPH calculations refer to:
   * S. Spicher and S. Grimme, J. Chem. Theory Comput., 2021, 17, 1701-1714
     DOI: 10.1021/acs.jctc.0c01306
   
   for ONIOM refer to:
   * C. Plett, A. Katbashev, S. Ehlert, S. Grimme, M. Bursch,
     Phys. Chem. Chem. Phys., 2023, 25, 17860-17868. DOI: 10.1039/D3CP02178E
   
   for DIPRO refer to:
   * J. Kohn, N. Gildemeister, S. Grimme, D. Fazzi, A. Hansen,
     J. Chem. Phys., 2023, just accepted.
   
   for PTB refer to:
   * S. Grimme, M. Mueller, A. Hansen, J. Chem. Phys., 2023, 158, 124111.
     DOI: 10.1063/5.0137838
   
   with help from (in alphabetical order)
   P. Atkinson, C. Bannwarth, F. Bohle, G. Brandenburg, E. Caldeweyher
   M. Checinski, S. Dohm, S. Ehlert, S. Ehrlich, I. Gerasimov, C. Hölzer
   A. Katbashev, J. Kohn, J. Koopman, C. Lavigne, S. Lehtola, F. März, M. Müller,
   F. Musil, H. Neugebauer, J. Pisarek, C. Plett, P. Pracht, F. Pultar,
   J. Seibert, P. Shushkov, S. Spicher, M. Stahn, M. Steiner, T. Strunk,
   J. Stückrath, T. Rose, and J. Unsleber
   
 * started run on 2026/03/12 at 12:46:05.783     
   ID    Z sym.   atoms
    1    6 C      1
    2    1 H      2-4
    3    9 F      5
    4   35 Br     6

           -------------------------------------------------
          |                Calculation Setup                |
           -------------------------------------------------

          program call               : /software/orca-6.1.0-el8-x86_64/bin/otool_xtb product_optfreq_XTB.xyz --grad -c -1 -u 0 -P 8 --namespace product_optfreq --input product_optfreq_XTB.input.tmp --acc 0.200000
          hostname                   : midway3-login4.rcc.local
          calculation namespace      : product_optfreq
          coordinate file            : product_optfreq_XTB.xyz
          omp threads                :                     8


molecular fragmentation (1/2 indicates fragments):
111121
# atoms in fragment 1/2:     5     1
 fragment masses (1/2) :       94.94       19.00
CMA distance (Bohr)    :   7.520
constraining FC (au)   :  0.0500

           -------------------------------------------------
          |                 G F N 2 - x T B                 |
           -------------------------------------------------

        Reference                      10.1021/acs.jctc.8b01176
      * Hamiltonian:
        H0-scaling (s, p, d)           1.850000    2.230000    2.230000
        zeta-weighting                 0.500000
      * Dispersion:
        s8                             2.700000
        a1                             0.520000
        a2                             5.000000
        s9                             5.000000
      * Repulsion:
        kExp                           1.500000    1.000000
        rExp                           1.000000
      * Coulomb:
        alpha                          2.000000
        third order                    shell-resolved
        anisotropic                    true
        a3                             3.000000
        a5                             4.000000
        cn-shift                       1.200000
        cn-exp                         4.000000
        max-rad                        5.000000


          ...................................................
          :                      SETUP                      :
          :.................................................:
          :  # basis functions                  21          :
          :  # atomic orbitals                  20          :
          :  # shells                           10          :
          :  # electrons                        22          :
          :  max. iterations                   250          :
          :  Hamiltonian                  GFN2-xTB          :
          :  restarted?                      false          :
          :  GBSA solvation                  false          :
          :  PC potential                    false          :
          :  electronic temp.          300.0000000     K    :
          :  accuracy                    0.2000000          :
          :  -> integral cutoff          0.3198970E+02      :
          :  -> integral neglect         0.2000000E-08      :
          :  -> SCF convergence          0.2000000E-06 Eh   :
          :  -> wf. convergence          0.2000000E-04 e    :
          :  Broyden damping             0.4000000          :
          :  net charge                         -1          :
          :  unpaired electrons                  0          :
          ...................................................

 iter      E             dE          RMSdq      gap      omega  full diag
   1    -12.7097747 -0.127098E+02  0.616E+00    5.03       0.0  T
   2    -12.7350578 -0.252831E-01  0.375E+00    2.71       1.0  T
   3    -12.7388417 -0.378391E-02  0.184E+00    1.42       1.0  T
   4    -12.7406424 -0.180062E-02  0.123E+00    1.41       1.0  T
   5    -12.7415148 -0.872426E-03  0.626E-01    1.54       1.0  T
   6    -12.7416968 -0.181993E-03  0.395E-01    1.24       1.0  T
   7    -12.7420006 -0.303791E-03  0.606E-02    1.39       1.0  T
   8    -12.7420020 -0.141364E-05  0.289E-02    1.40       1.4  T
   9    -12.7420023 -0.332820E-06  0.111E-02    1.39       3.7  T
  10    -12.7420024 -0.786637E-07  0.490E-03    1.40       8.3  T
  11    -12.7420024 -0.310628E-07  0.119E-03    1.39      34.3  T
  12    -12.7420024  0.690521E-09  0.743E-04    1.39      55.0  T
  13    -12.7420024 -0.238192E-08  0.954E-05    1.39     427.8  T
  14    -12.7420024 -0.454072E-10  0.236E-05    1.39    1732.7  T

   *** convergence criteria satisfied after 14 iterations ***

         #    Occupation            Energy/Eh            Energy/eV
      -------------------------------------------------------------
         1        2.0000           -0.6952433             -18.9185
       ...           ...                  ...                  ...
         5        2.0000           -0.3327220              -9.0538
         6        2.0000           -0.3200895              -8.7101
         7        2.0000           -0.2614554              -7.1146
         8        2.0000           -0.2583017              -7.0287
         9        2.0000           -0.1131540              -3.0791
        10        2.0000           -0.1104465              -3.0054
        11        2.0000           -0.1104005              -3.0042 (HOMO)
        12                         -0.0592014              -1.6110 (LUMO)
        13                          0.1878590               5.1119
        14                          0.1883822               5.1261
        15                          0.2065075               5.6194
        16                          0.2065983               5.6218
       ...                                ...                  ...
        20                          0.5309481              14.4478
      -------------------------------------------------------------
                  HL-Gap            0.0511991 Eh            1.3932 eV
             Fermi-level           -0.0844826 Eh           -2.2989 eV

 SCC (total)                   0 d,  0 h,  0 min,  0.066 sec
 SCC setup                      ...        0 min,  0.000 sec (  0.284%)
 Dispersion                     ...        0 min,  0.000 sec (  0.105%)
 classical contributions        ...        0 min,  0.000 sec (  0.062%)
 integral evaluation            ...        0 min,  0.063 sec ( 96.022%)
 iterations                     ...        0 min,  0.002 sec (  2.562%)
 molecular gradient             ...        0 min,  0.001 sec (  0.776%)
 printout                       ...        0 min,  0.000 sec (  0.167%)

         :::::::::::::::::::::::::::::::::::::::::::::::::::::
         ::                     SUMMARY                     ::
         :::::::::::::::::::::::::::::::::::::::::::::::::::::
         :: total energy             -12.689071889876 Eh    ::
         :: gradient norm              0.001607841212 Eh/a0 ::
         :: HOMO-LUMO gap              1.393197616062 eV    ::
         ::.................................................::
         :: SCC energy               -12.742002249658 Eh    ::
         :: -> isotropic ES            0.227259437461 Eh    ::
         :: -> anisotropic ES         -0.007143447507 Eh    ::
         :: -> anisotropic XC         -0.009085093394 Eh    ::
         :: -> dispersion             -0.002268935639 Eh    ::
         :: repulsion energy           0.052930359782 Eh    ::
         :: add. restraining           0.000000000000 Eh    ::
         :: total charge              -0.999999999996 e     ::
         :::::::::::::::::::::::::::::::::::::::::::::::::::::


Property printout bound to 'properties.out'

           -------------------------------------------------
          | TOTAL ENERGY              -12.689071889876 Eh   |
          | GRADIENT NORM               0.001607841212 Eh/α |
          | HOMO-LUMO GAP               1.393197616062 eV   |
           -------------------------------------------------

------------------------------------------------------------------------
 * finished run on 2026/03/12 at 12:46:05.863     
------------------------------------------------------------------------
 total:
 * wall-time:     0 d,  0 h,  0 min,  0.079 sec
 *  cpu-time:     0 d,  0 h,  0 min,  0.469 sec
 * ratio c/w:     5.905 speedup
 SCF:
 * wall-time:     0 d,  0 h,  0 min,  0.066 sec
 *  cpu-time:     0 d,  0 h,  0 min,  0.413 sec
 * ratio c/w:     6.249 speedup


-------------------------   --------------------
FINAL SINGLE POINT ENERGY       -12.689071889880
-------------------------   --------------------


-------------
DIPOLE MOMENT
-------------
                                X             Y             Z
Total Dipole Moment    :      1.50900       0.87100      -1.23700
                        -----------------------------------------
Magnitude (a.u.)       :      2.13679
Magnitude (Debye)      :      5.43130


------------------
CARTESIAN GRADIENT
------------------

   1   C   :   -0.000124185   -0.000126062   -0.000008787
   2   H   :   -0.000283780   -0.000191741   -0.000059102
   3   H   :   -0.000332088   -0.000122438   -0.000079337
   4   H   :   -0.000214996   -0.000143229   -0.000177749
   5   F   :    0.000341995    0.000219254    0.001021775
   6   Br  :    0.000613053    0.000364217   -0.000696799

Difference to translation invariance:
           :    0.0000000000    0.0000000000    0.0000000000

Difference to rotation invariance:
           :    0.0000000027   -0.0000000045   -0.0000000000

Norm of the Cartesian gradient     ...    0.0016078412
RMS gradient                       ...    0.0003789718
MAX gradient                       ...    0.0010217748
------------------------------------------------------------------------------
                         ORCA GEOMETRY RELAXATION STEP
------------------------------------------------------------------------------

Reading the OPT-File                    .... done
Getting information on internals        .... done
Copying old internal coords+grads       .... done
Making the new internal coordinates     .... (2022 redundants) done
Validating the new internal coordinates .... (2022 redundants) done
Calculating the B-matrix                .... done
Calculating the G,G- and P matrices     .... done
Transforming gradient to internals      .... done
Projecting the internal gradient        .... done
Number of atoms                         ....   6
Number of internal coordinates          ....  15
Current Energy                          ....   -12.689071890 Eh
Current gradient norm                   ....     0.001607841 Eh/bohr
Maximum allowed component of the step   ....  0.300
Current trust radius                    ....  0.300
Evaluating the initial hessian          ....  (Almloef) done
Projecting the Hessian                  .... done
Forming the augmented Hessian           .... done
Diagonalizing the augmented Hessian     .... done
Last element of RFO vector              ....  0.999602634
Lowest eigenvalues of augmented Hessian:
 -0.000071331  0.036760862  0.096227403  0.204525194  0.220280733
Length of the computed step             ....  0.028199392
The final length of the internal step   ....  0.028199392
Converting the step to Cartesian space:
 Initial RMS(Int)=    0.0072810518
Transforming coordinates:
 Iter   0:  RMS(Cart)=    0.0106184008 RMS(Int)=    0.0072551846
done
Storing new coordinates                 .... done

                                .--------------------.
          ----------------------|Geometry convergence|-------------------------
          Item                value                   Tolerance       Converged
          ---------------------------------------------------------------------
          RMS gradient        0.0009705789            0.0001000000      NO
          MAX gradient        0.0026019953            0.0003000000      NO
          RMS step            0.0072810518            0.0020000000      NO
          MAX step            0.0246176442            0.0040000000      NO
          -------------------------------------------------------------------------
          ........................................................
          Max(Bonds)      0.0130      Max(Angles)    0.55
          Max(Dihed)        0.07      Max(Improp)    0.00
          ---------------------------------------------------------------------

The optimization has not yet converged - more geometry cycles are needed


    ---------------------------------------------------------------------------
                         Redundant Internal Coordinates
                            (Angstroem and degrees)

        Definition                    Value    dE/dq     Step     New-Value
    ----------------------------------------------------------------------------
     1. B(H   1,C   0)                1.0870 -0.000218  0.0003    1.0873   
     2. B(H   2,C   0)                1.0869 -0.000253  0.0004    1.0873   
     3. B(H   3,C   0)                1.1162  0.000541 -0.0009    1.1153   
     4. B(F   4,H   3)                1.6613  0.000906 -0.0130    1.6483   
     5. B(Br  5,C   0)                1.9543  0.000345 -0.0007    1.9536   
     6. A(H   1,C   0,H   3)          109.86 -0.000614    0.13    109.99   
     7. A(H   1,C   0,H   2)          109.94  0.000158   -0.01    109.93   
     8. A(H   1,C   0,Br  5)          105.95 -0.000814    0.13    106.08   
     9. A(H   2,C   0,Br  5)          105.96 -0.000811    0.13    106.08   
    10. A(H   3,C   0,Br  5)          115.06  0.002602   -0.48    114.58   
    11. A(H   2,C   0,H   3)          109.90 -0.000562    0.11    110.01   
    12. A(C   0,H   3,F   4)          151.96 -0.001955    0.55    152.51   
    13. D(F   4,H   3,C   0,H   2)     60.82 -0.000279    0.07     60.89   
    14. D(F   4,H   3,C   0,Br  5)   -179.71  0.000022   -0.01   -179.72   
    15. D(F   4,H   3,C   0,H   1)    -60.27  0.000278   -0.07    -60.34   
    ----------------------------------------------------------------------------

Geometry step timings:
Preparation and reading OPT file:      0.000 s ( 3.145 %)
Internal coordinates            :      0.000 s ( 3.548 %)
B/P matrices and projection     :      0.000 s (11.613 %)
Hessian update/contruction      :      0.000 s (35.887 %)
Making the step                 :      0.000 s (10.645 %)
Converting the step to Cartesian:      0.000 s ( 4.274 %)
Storing new data                :      0.000 s ( 6.694 %)
Checking convergence            :      0.000 s ( 5.000 %)
Final printing                  :      0.000 s (18.790 %)
Total time                      :      0.001 s

Time for energy+gradient        :      0.088 s
Time for complete geometry iter :      0.090 s

         *************************************************************
         *                GEOMETRY OPTIMIZATION CYCLE   2            *
         *************************************************************
---------------------------------
CARTESIAN COORDINATES (ANGSTROEM)
---------------------------------
  C     0.347738    0.199917   -0.302451
  H     0.439967    1.282263   -0.254923
  H     1.332684   -0.258329   -0.256564
  H    -0.283324   -0.166305    0.541125
  F    -0.614341   -0.355125    2.144776
  Br   -0.355711   -0.205832   -2.079264

----------------------------
CARTESIAN COORDINATES (A.U.)
----------------------------
  NO LB    ZA    FRAG    MASS        X           Y           Z
   0 C   6.0000    0    12.011    0.657129    0.377789   -0.571549
   1 H   1.0000    0     1.008    0.831417    2.423126   -0.481735
   2 H   1.0000    0     1.008    2.518407   -0.488172   -0.484836
   3 H   1.0000    0     1.008   -0.535404   -0.314270    1.022579
   4 F   9.0000    0    18.998   -1.160937   -0.671090    4.053039
   5 Br 35.0000    0    79.900   -0.672197   -0.388966   -3.929239

      -----------------------------------------------------------      
     |                   =====================                   |     
     |                           x T B                           |     
     |                   =====================                   |     
     |                         S. Grimme                         |     
     |          Mulliken Center for Theoretical Chemistry        |     
     |                    University of Bonn                     |     
      -----------------------------------------------------------      

   * xtb version 6.7.1 (edcfbbe) compiled by 'albert@albert-system' on 2024-07-22

   xtb is free software: you can redistribute it and/or modify it under
   the terms of the GNU Lesser General Public License as published by
   the Free Software Foundation, either version 3 of the License, or
   (at your option) any later version.
   
   xtb is distributed in the hope that it will be useful,
   but WITHOUT ANY WARRANTY; without even the implied warranty of
   MERCHANTABILITY or FITNESS FOR A PARTICULAR PURPOSE.  See the
   GNU Lesser General Public License for more details.
   
   Cite this work as:
   * C. Bannwarth, E. Caldeweyher, S. Ehlert, A. Hansen, P. Pracht,
     J. Seibert, S. Spicher, S. Grimme, WIREs Comput. Mol. Sci., 2020, 11,
     e01493. DOI: 10.1002/wcms.1493
   
   for GFN2-xTB:
   * C. Bannwarth, S. Ehlert and S. Grimme., J. Chem. Theory Comput., 2019,
     15, 1652-1671. DOI: 10.1021/acs.jctc.8b01176
   for GFN1-xTB:
   * S. Grimme, C. Bannwarth, P. Shushkov, J. Chem. Theory Comput., 2017,
     13, 1989-2009. DOI: 10.1021/acs.jctc.7b00118
   for GFN0-xTB:
   * P. Pracht, E. Caldeweyher, S. Ehlert, S. Grimme, ChemRxiv, 2019, preprint.
     DOI: 10.26434/chemrxiv.8326202.v1
   for GFN-FF:
   * S. Spicher and S. Grimme, Angew. Chem. Int. Ed., 2020, 59, 15665-15673.
     DOI: 10.1002/anie.202004239
   
   for ALPB and GBSA implicit solvation:
   * S. Ehlert, M. Stahn, S. Spicher, S. Grimme, J. Chem. Theory Comput.,
     2021, 17, 4250-4261. DOI: 10.1021/acs.jctc.1c00471
   
   for ddCOSMO and CPCM-X implicit solvation:
   * M. Stahn, S. Ehlert, S. Grimme, J. Phys. Chem. A,
     2023, XX, XXXX-XXXX. DOI: 10.1021/acs.jpca.3c04382
   
   for DFT-D4:
   * E. Caldeweyher, C. Bannwarth and S. Grimme, J. Chem. Phys., 2017,
     147, 034112. DOI: 10.1063/1.4993215
   * E. Caldeweyher, S. Ehlert, A. Hansen, H. Neugebauer, S. Spicher,
     C. Bannwarth and S. Grimme, J. Chem. Phys., 2019, 150, 154122.
     DOI: 10.1063/1.5090222
   * E. Caldeweyher, J.-M. Mewes, S. Ehlert and S. Grimme, Phys. Chem. Chem. Phys.
     2020, 22, 8499-8512. DOI: 10.1039/D0CP00502A
   
   for sTDA-xTB:
   * S. Grimme and C. Bannwarth, J. Chem. Phys., 2016, 145, 054103.
     DOI: 10.1063/1.4959605
   
   in the mass-spec context:
   * V. Asgeirsson, C. Bauer and S. Grimme, Chem. Sci., 2017, 8, 4879.
     DOI: 10.1039/c7sc00601b
   * J. Koopman and S. Grimme, ACS Omega 2019, 4, 12, 15120-15133.
     DOI: 10.1021/acsomega.9b02011
   
   for metadynamics refer to:
   * S. Grimme, J. Chem. Theory Comput., 2019, 155, 2847-2862
     DOI: 10.1021/acs.jctc.9b00143
   
   for SPH calculations refer to:
   * S. Spicher and S. Grimme, J. Chem. Theory Comput., 2021, 17, 1701-1714
     DOI: 10.1021/acs.jctc.0c01306
   
   for ONIOM refer to:
   * C. Plett, A. Katbashev, S. Ehlert, S. Grimme, M. Bursch,
     Phys. Chem. Chem. Phys., 2023, 25, 17860-17868. DOI: 10.1039/D3CP02178E
   
   for DIPRO refer to:
   * J. Kohn, N. Gildemeister, S. Grimme, D. Fazzi, A. Hansen,
     J. Chem. Phys., 2023, just accepted.
   
   for PTB refer to:
   * S. Grimme, M. Mueller, A. Hansen, J. Chem. Phys., 2023, 158, 124111.
     DOI: 10.1063/5.0137838
   
   with help from (in alphabetical order)
   P. Atkinson, C. Bannwarth, F. Bohle, G. Brandenburg, E. Caldeweyher
   M. Checinski, S. Dohm, S. Ehlert, S. Ehrlich, I. Gerasimov, C. Hölzer
   A. Katbashev, J. Kohn, J. Koopman, C. Lavigne, S. Lehtola, F. März, M. Müller,
   F. Musil, H. Neugebauer, J. Pisarek, C. Plett, P. Pracht, F. Pultar,
   J. Seibert, P. Shushkov, S. Spicher, M. Stahn, M. Steiner, T. Strunk,
   J. Stückrath, T. Rose, and J. Unsleber
   
 * started run on 2026/03/12 at 12:46:05.874     
   ID    Z sym.   atoms
    1    6 C      1
    2    1 H      2-4
    3    9 F      5
    4   35 Br     6

           -------------------------------------------------
          |                Calculation Setup                |
           -------------------------------------------------

          program call               : /software/orca-6.1.0-el8-x86_64/bin/otool_xtb product_optfreq_XTB.xyz --grad -c -1 -u 0 -P 8 --namespace product_optfreq --input product_optfreq_XTB.input.tmp --acc 0.200000
          hostname                   : midway3-login4.rcc.local
          calculation namespace      : product_optfreq
          coordinate file            : product_optfreq_XTB.xyz
          omp threads                :                     8


molecular fragmentation (1/2 indicates fragments):
111121
# atoms in fragment 1/2:     5     1
 fragment masses (1/2) :       94.94       19.00
CMA distance (Bohr)    :   7.477
constraining FC (au)   :  0.0500

           -------------------------------------------------
          |                 G F N 2 - x T B                 |
           -------------------------------------------------

        Reference                      10.1021/acs.jctc.8b01176
      * Hamiltonian:
        H0-scaling (s, p, d)           1.850000    2.230000    2.230000
        zeta-weighting                 0.500000
      * Dispersion:
        s8                             2.700000
        a1                             0.520000
        a2                             5.000000
        s9                             5.000000
      * Repulsion:
        kExp                           1.500000    1.000000
        rExp                           1.000000
      * Coulomb:
        alpha                          2.000000
        third order                    shell-resolved
        anisotropic                    true
        a3                             3.000000
        a5                             4.000000
        cn-shift                       1.200000
        cn-exp                         4.000000
        max-rad                        5.000000

q/qsh data taken from xtbrestart
CAMM data taken from xtbrestart

          ...................................................
          :                      SETUP                      :
          :.................................................:
          :  # basis functions                  21          :
          :  # atomic orbitals                  20          :
          :  # shells                           10          :
          :  # electrons                        22          :
          :  max. iterations                   250          :
          :  Hamiltonian                  GFN2-xTB          :
          :  restarted?                       true          :
          :  GBSA solvation                  false          :
          :  PC potential                    false          :
          :  electronic temp.          300.0000000     K    :
          :  accuracy                    0.2000000          :
          :  -> integral cutoff          0.3198970E+02      :
          :  -> integral neglect         0.2000000E-08      :
          :  -> SCF convergence          0.2000000E-06 Eh   :
          :  -> wf. convergence          0.2000000E-04 e    :
          :  Broyden damping             0.4000000          :
          :  net charge                         -1          :
          :  unpaired electrons                  0          :
          ...................................................

 iter      E             dE          RMSdq      gap      omega  full diag
   1    -12.7420823 -0.127421E+02  0.512E-02    1.42       0.0  T
   2    -12.7420827 -0.359248E-06  0.279E-02    1.43       1.5  T
   3    -12.7420827 -0.495075E-07  0.757E-03    1.43       5.4  T
   4    -12.7420828 -0.496086E-07  0.524E-03    1.43       7.8  T
   5    -12.7420828 -0.134497E-07  0.275E-03    1.43      14.9  T
   6    -12.7420828 -0.498245E-08  0.132E-03    1.43      31.0  T
   7    -12.7420828 -0.810463E-09  0.143E-04    1.43     286.0  T
   8    -12.7420828 -0.108962E-10  0.857E-05    1.43     476.1  T

   *** convergence criteria satisfied after 8 iterations ***

         #    Occupation            Energy/Eh            Energy/eV
      -------------------------------------------------------------
         1        2.0000           -0.6947728             -18.9057
       ...           ...                  ...                  ...
         5        2.0000           -0.3323494              -9.0437
         6        2.0000           -0.3192535              -8.6873
         7        2.0000           -0.2609912              -7.1019
         8        2.0000           -0.2577027              -7.0124
         9        2.0000           -0.1133905              -3.0855
        10        2.0000           -0.1107726              -3.0143
        11        2.0000           -0.1107289              -3.0131 (HOMO)
        12                         -0.0583296              -1.5872 (LUMO)
        13                          0.1883354               5.1249
        14                          0.1889351               5.1412
        15                          0.2069480               5.6313
        16                          0.2073680               5.6428
       ...                                ...                  ...
        20                          0.5319390              14.4748
      -------------------------------------------------------------
                  HL-Gap            0.0523993 Eh            1.4259 eV
             Fermi-level           -0.0842095 Eh           -2.2915 eV

 SCC (total)                   0 d,  0 h,  0 min,  0.089 sec
 SCC setup                      ...        0 min,  0.000 sec (  0.194%)
 Dispersion                     ...        0 min,  0.000 sec (  0.059%)
 classical contributions        ...        0 min,  0.000 sec (  0.030%)
 integral evaluation            ...        0 min,  0.087 sec ( 97.819%)
 iterations                     ...        0 min,  0.001 sec (  1.252%)
 molecular gradient             ...        0 min,  0.000 sec (  0.505%)
 printout                       ...        0 min,  0.000 sec (  0.122%)

         :::::::::::::::::::::::::::::::::::::::::::::::::::::
         ::                     SUMMARY                     ::
         :::::::::::::::::::::::::::::::::::::::::::::::::::::
         :: total energy             -12.689126551900 Eh    ::
         :: gradient norm              0.001772830684 Eh/a0 ::
         :: HOMO-LUMO gap              1.425857254577 eV    ::
         ::.................................................::
         :: SCC energy               -12.742082591537 Eh    ::
         :: -> isotropic ES            0.227012003001 Eh    ::
         :: -> anisotropic ES         -0.007153811679 Eh    ::
         :: -> anisotropic XC         -0.009136189954 Eh    ::
         :: -> dispersion             -0.002276549365 Eh    ::
         :: repulsion energy           0.052956039638 Eh    ::
         :: add. restraining           0.000000000000 Eh    ::
         :: total charge              -0.999999999998 e     ::
         :::::::::::::::::::::::::::::::::::::::::::::::::::::


Property printout bound to 'properties.out'

           -------------------------------------------------
          | TOTAL ENERGY              -12.689126551900 Eh   |
          | GRADIENT NORM               0.001772830684 Eh/α |
          | HOMO-LUMO GAP               1.425857254577 eV   |
           -------------------------------------------------

------------------------------------------------------------------------
 * finished run on 2026/03/12 at 12:46:05.977     
------------------------------------------------------------------------
 total:
 * wall-time:     0 d,  0 h,  0 min,  0.102 sec
 *  cpu-time:     0 d,  0 h,  0 min,  0.460 sec
 * ratio c/w:     4.496 speedup
 SCF:
 * wall-time:     0 d,  0 h,  0 min,  0.090 sec
 *  cpu-time:     0 d,  0 h,  0 min,  0.406 sec
 * ratio c/w:     4.536 speedup


-------------------------   --------------------
FINAL SINGLE POINT ENERGY       -12.689126551900
-------------------------   --------------------


-------------
DIPOLE MOMENT
-------------
                                X             Y             Z
Total Dipole Moment    :      1.52800       0.88300      -1.21900
                        -----------------------------------------
Magnitude (a.u.)       :      2.14486
Magnitude (Debye)      :      5.45181


------------------
CARTESIAN GRADIENT
------------------

   1   C   :   -0.000477864   -0.000291779    0.001058267
   2   H   :   -0.000204079   -0.000004311    0.000058212
   3   H   :   -0.000109160   -0.000163362    0.000043202
   4   H   :   -0.000056548   -0.000058052   -0.000888284
   5   F   :    0.000546985    0.000336564    0.000222026
   6   Br  :    0.000300666    0.000180940   -0.000493423

Difference to translation invariance:
           :   -0.0000000000   -0.0000000000   -0.0000000000

Difference to rotation invariance:
           :    0.0000000181   -0.0000000298   -0.0000000002

Norm of the Cartesian gradient     ...    0.0017728307
RMS gradient                       ...    0.0004178602
MAX gradient                       ...    0.0010582671
------------------------------------------------------------------------------
                         ORCA GEOMETRY RELAXATION STEP
------------------------------------------------------------------------------

Reading the OPT-File                    .... done
Getting information on internals        .... done
Copying old internal coords+grads       .... done
Making the new internal coordinates     .... (2022 redundants) done
Validating the new internal coordinates .... (2022 redundants) done
Calculating the B-matrix                .... done
Calculating the G,G- and P matrices     .... done
Transforming gradient to internals      .... done
Projecting the internal gradient        .... done
Number of atoms                         ....   6
Number of internal coordinates          ....  15
Current Energy                          ....   -12.689126552 Eh
Current gradient norm                   ....     0.001772831 Eh/bohr
Maximum allowed component of the step   ....  0.300
Current trust radius                    ....  0.300
Updating the Hessian (BFGS)             .... done
Forming the augmented Hessian           .... done
Diagonalizing the augmented Hessian     .... done
Last element of RFO vector              ....  0.998939016
Lowest eigenvalues of augmented Hessian:
 -0.000108374  0.031092426  0.096204746  0.105459837  0.220281049
Length of the computed step             ....  0.046101517
The final length of the internal step   ....  0.046101517
Converting the step to Cartesian space:
 Initial RMS(Int)=    0.0119033604
Transforming coordinates:
 Iter   0:  RMS(Cart)=    0.0242784911 RMS(Int)=    0.0117580797
done
Storing new coordinates                 .... done
The predicted energy change is          ....    -0.000054302
Previously predicted energy change      ....    -0.000035694
Actually observed energy change         ....    -0.000054662
Ratio of predicted to observed change   ....     1.531417580
New trust radius                        ....     0.200000000

                                .--------------------.
          ----------------------|Geometry convergence|-------------------------
          Item                value                   Tolerance       Converged
          ---------------------------------------------------------------------
          Energy change      -0.0000546620            0.0000050000      NO
          RMS gradient        0.0007498538            0.0001000000      NO
          MAX gradient        0.0021056857            0.0003000000      NO
          RMS step            0.0119033604            0.0020000000      NO
          MAX step            0.0306641688            0.0040000000      NO
          -------------------------------------------------------------------------
          ........................................................
          Max(Bonds)      0.0141      Max(Angles)    1.76
          Max(Dihed)        0.17      Max(Improp)    0.00
          ---------------------------------------------------------------------

The optimization has not yet converged - more geometry cycles are needed


    ---------------------------------------------------------------------------
                         Redundant Internal Coordinates
                            (Angstroem and degrees)

        Definition                    Value    dE/dq     Step     New-Value
    ----------------------------------------------------------------------------
     1. B(H   1,C   0)                1.0873 -0.000019  0.0004    1.0877   
     2. B(H   2,C   0)                1.0873 -0.000028  0.0004    1.0877   
     3. B(H   3,C   0)                1.1153 -0.000873  0.0022    1.1175   
     4. B(F   4,H   3)                1.6483  0.000068 -0.0141    1.6342   
     5. B(Br  5,C   0)                1.9536  0.000303 -0.0019    1.9517   
     6. A(H   1,C   0,H   3)          109.99 -0.000472    0.32    110.31   
     7. A(H   1,C   0,H   2)          109.93  0.000172   -0.05    109.88   
     8. A(H   1,C   0,Br  5)          106.08 -0.000396    0.25    106.33   
     9. A(H   2,C   0,Br  5)          106.08 -0.000394    0.24    106.33   
    10. A(H   3,C   0,Br  5)          114.58  0.001522   -1.05    113.53   
    11. A(H   2,C   0,H   3)          110.01 -0.000436    0.29    110.31   
    12. A(C   0,H   3,F   4)          152.51 -0.002106    1.76    154.27   
    13. D(F   4,H   3,C   0,H   2)     60.89 -0.000185    0.16     61.05   
    14. D(F   4,H   3,C   0,Br  5)   -179.72  0.000017   -0.02   -179.74   
    15. D(F   4,H   3,C   0,H   1)    -60.34  0.000188   -0.17    -60.52   
    ----------------------------------------------------------------------------

Geometry step timings:
Preparation and reading OPT file:      0.000 s ( 3.052 %)
Internal coordinates            :      0.000 s ( 3.680 %)
B/P matrices and projection     :      0.000 s (12.029 %)
Hessian update/contruction      :      0.000 s (31.329 %)
Making the step                 :      0.000 s ( 8.887 %)
Converting the step to Cartesian:      0.000 s ( 3.142 %)
Storing new data                :      0.000 s ( 7.181 %)
Checking convergence            :      0.000 s ( 7.810 %)
Final printing                  :      0.000 s (22.711 %)
Total time                      :      0.001 s

Time for energy+gradient        :      0.110 s
Time for complete geometry iter :      0.113 s

         *************************************************************
         *                GEOMETRY OPTIMIZATION CYCLE   3            *
         *************************************************************
---------------------------------
CARTESIAN COORDINATES (ANGSTROEM)
---------------------------------
  C     0.358118    0.206118   -0.300096
  H     0.451579    1.289053   -0.261132
  H     1.344034   -0.251810   -0.262462
  H    -0.271879   -0.159489    0.547417
  F    -0.637620   -0.368886    2.126363
  Br   -0.377220   -0.218397   -2.057390

----------------------------
CARTESIAN COORDINATES (A.U.)
----------------------------
  NO LB    ZA    FRAG    MASS        X           Y           Z
   0 C   6.0000    0    12.011    0.676745    0.389506   -0.567100
   1 H   1.0000    0     1.008    0.853360    2.435957   -0.493468
   2 H   1.0000    0     1.008    2.539856   -0.475852   -0.495982
   3 H   1.0000    0     1.008   -0.513776   -0.301390    1.034468
   4 F   9.0000    0    18.998   -1.204928   -0.697093    4.018244
   5 Br 35.0000    0    79.900   -0.712842   -0.412711   -3.887903

      -----------------------------------------------------------      
     |                   =====================                   |     
     |                           x T B                           |     
     |                   =====================                   |     
     |                         S. Grimme                         |     
     |          Mulliken Center for Theoretical Chemistry        |     
     |                    University of Bonn                     |     
      -----------------------------------------------------------      

   * xtb version 6.7.1 (edcfbbe) compiled by 'albert@albert-system' on 2024-07-22

   xtb is free software: you can redistribute it and/or modify it under
   the terms of the GNU Lesser General Public License as published by
   the Free Software Foundation, either version 3 of the License, or
   (at your option) any later version.
   
   xtb is distributed in the hope that it will be useful,
   but WITHOUT ANY WARRANTY; without even the implied warranty of
   MERCHANTABILITY or FITNESS FOR A PARTICULAR PURPOSE.  See the
   GNU Lesser General Public License for more details.
   
   Cite this work as:
   * C. Bannwarth, E. Caldeweyher, S. Ehlert, A. Hansen, P. Pracht,
     J. Seibert, S. Spicher, S. Grimme, WIREs Comput. Mol. Sci., 2020, 11,
     e01493. DOI: 10.1002/wcms.1493
   
   for GFN2-xTB:
   * C. Bannwarth, S. Ehlert and S. Grimme., J. Chem. Theory Comput., 2019,
     15, 1652-1671. DOI: 10.1021/acs.jctc.8b01176
   for GFN1-xTB:
   * S. Grimme, C. Bannwarth, P. Shushkov, J. Chem. Theory Comput., 2017,
     13, 1989-2009. DOI: 10.1021/acs.jctc.7b00118
   for GFN0-xTB:
   * P. Pracht, E. Caldeweyher, S. Ehlert, S. Grimme, ChemRxiv, 2019, preprint.
     DOI: 10.26434/chemrxiv.8326202.v1
   for GFN-FF:
   * S. Spicher and S. Grimme, Angew. Chem. Int. Ed., 2020, 59, 15665-15673.
     DOI: 10.1002/anie.202004239
   
   for ALPB and GBSA implicit solvation:
   * S. Ehlert, M. Stahn, S. Spicher, S. Grimme, J. Chem. Theory Comput.,
     2021, 17, 4250-4261. DOI: 10.1021/acs.jctc.1c00471
   
   for ddCOSMO and CPCM-X implicit solvation:
   * M. Stahn, S. Ehlert, S. Grimme, J. Phys. Chem. A,
     2023, XX, XXXX-XXXX. DOI: 10.1021/acs.jpca.3c04382
   
   for DFT-D4:
   * E. Caldeweyher, C. Bannwarth and S. Grimme, J. Chem. Phys., 2017,
     147, 034112. DOI: 10.1063/1.4993215
   * E. Caldeweyher, S. Ehlert, A. Hansen, H. Neugebauer, S. Spicher,
     C. Bannwarth and S. Grimme, J. Chem. Phys., 2019, 150, 154122.
     DOI: 10.1063/1.5090222
   * E. Caldeweyher, J.-M. Mewes, S. Ehlert and S. Grimme, Phys. Chem. Chem. Phys.
     2020, 22, 8499-8512. DOI: 10.1039/D0CP00502A
   
   for sTDA-xTB:
   * S. Grimme and C. Bannwarth, J. Chem. Phys., 2016, 145, 054103.
     DOI: 10.1063/1.4959605
   
   in the mass-spec context:
   * V. Asgeirsson, C. Bauer and S. Grimme, Chem. Sci., 2017, 8, 4879.
     DOI: 10.1039/c7sc00601b
   * J. Koopman and S. Grimme, ACS Omega 2019, 4, 12, 15120-15133.
     DOI: 10.1021/acsomega.9b02011
   
   for metadynamics refer to:
   * S. Grimme, J. Chem. Theory Comput., 2019, 155, 2847-2862
     DOI: 10.1021/acs.jctc.9b00143
   
   for SPH calculations refer to:
   * S. Spicher and S. Grimme, J. Chem. Theory Comput., 2021, 17, 1701-1714
     DOI: 10.1021/acs.jctc.0c01306
   
   for ONIOM refer to:
   * C. Plett, A. Katbashev, S. Ehlert, S. Grimme, M. Bursch,
     Phys. Chem. Chem. Phys., 2023, 25, 17860-17868. DOI: 10.1039/D3CP02178E
   
   for DIPRO refer to:
   * J. Kohn, N. Gildemeister, S. Grimme, D. Fazzi, A. Hansen,
     J. Chem. Phys., 2023, just accepted.
   
   for PTB refer to:
   * S. Grimme, M. Mueller, A. Hansen, J. Chem. Phys., 2023, 158, 124111.
     DOI: 10.1063/5.0137838
   
   with help from (in alphabetical order)
   P. Atkinson, C. Bannwarth, F. Bohle, G. Brandenburg, E. Caldeweyher
   M. Checinski, S. Dohm, S. Ehlert, S. Ehrlich, I. Gerasimov, C. Hölzer
   A. Katbashev, J. Kohn, J. Koopman, C. Lavigne, S. Lehtola, F. März, M. Müller,
   F. Musil, H. Neugebauer, J. Pisarek, C. Plett, P. Pracht, F. Pultar,
   J. Seibert, P. Shushkov, S. Spicher, M. Stahn, M. Steiner, T. Strunk,
   J. Stückrath, T. Rose, and J. Unsleber
   
 * started run on 2026/03/12 at 12:46:05.987     
   ID    Z sym.   atoms
    1    6 C      1
    2    1 H      2-4
    3    9 F      5
    4   35 Br     6

           -------------------------------------------------
          |                Calculation Setup                |
           -------------------------------------------------

          program call               : /software/orca-6.1.0-el8-x86_64/bin/otool_xtb product_optfreq_XTB.xyz --grad -c -1 -u 0 -P 8 --namespace product_optfreq --input product_optfreq_XTB.input.tmp --acc 0.200000
          hostname                   : midway3-login4.rcc.local
          calculation namespace      : product_optfreq
          coordinate file            : product_optfreq_XTB.xyz
          omp threads                :                     8


molecular fragmentation (1/2 indicates fragments):
111121
# atoms in fragment 1/2:     5     1
 fragment masses (1/2) :       94.94       19.00
CMA distance (Bohr)    :   7.409
constraining FC (au)   :  0.0500

           -------------------------------------------------
          |                 G F N 2 - x T B                 |
           -------------------------------------------------

        Reference                      10.1021/acs.jctc.8b01176
      * Hamiltonian:
        H0-scaling (s, p, d)           1.850000    2.230000    2.230000
        zeta-weighting                 0.500000
      * Dispersion:
        s8                             2.700000
        a1                             0.520000
        a2                             5.000000
        s9                             5.000000
      * Repulsion:
        kExp                           1.500000    1.000000
        rExp                           1.000000
      * Coulomb:
        alpha                          2.000000
        third order                    shell-resolved
        anisotropic                    true
        a3                             3.000000
        a5                             4.000000
        cn-shift                       1.200000
        cn-exp                         4.000000
        max-rad                        5.000000

q/qsh data taken from xtbrestart
CAMM data taken from xtbrestart

          ...................................................
          :                      SETUP                      :
          :.................................................:
          :  # basis functions                  21          :
          :  # atomic orbitals                  20          :
          :  # shells                           10          :
          :  # electrons                        22          :
          :  max. iterations                   250          :
          :  Hamiltonian                  GFN2-xTB          :
          :  restarted?                       true          :
          :  GBSA solvation                  false          :
          :  PC potential                    false          :
          :  electronic temp.          300.0000000     K    :
          :  accuracy                    0.2000000          :
          :  -> integral cutoff          0.3198970E+02      :
          :  -> integral neglect         0.2000000E-08      :
          :  -> SCF convergence          0.2000000E-06 Eh   :
          :  -> wf. convergence          0.2000000E-04 e    :
          :  Broyden damping             0.4000000          :
          :  net charge                         -1          :
          :  unpaired electrons                  0          :
          ...................................................

 iter      E             dE          RMSdq      gap      omega  full diag
   1    -12.7418802 -0.127419E+02  0.128E-01    1.46       0.0  T
   2    -12.7418824 -0.220390E-05  0.717E-02    1.45       1.0  T
   3    -12.7418826 -0.219467E-06  0.168E-02    1.45       2.4  T
   4    -12.7418829 -0.239098E-06  0.111E-02    1.45       3.7  T
   5    -12.7418829 -0.551705E-07  0.657E-03    1.45       6.2  T
   6    -12.7418829 -0.356073E-07  0.243E-03    1.45      16.8  T
   7    -12.7418830 -0.270343E-08  0.305E-04    1.45     133.7  T
   8    -12.7418830 -0.512745E-10  0.220E-04    1.45     185.5  T
   9    -12.7418830 -0.506439E-10  0.112E-04    1.45     363.0  T
  10    -12.7418830 -0.892086E-11  0.127E-05    1.45    3206.1  T

   *** convergence criteria satisfied after 10 iterations ***

         #    Occupation            Energy/Eh            Energy/eV
      -------------------------------------------------------------
         1        2.0000           -0.6943485             -18.8942
       ...           ...                  ...                  ...
         5        2.0000           -0.3323852              -9.0447
         6        2.0000           -0.3183152              -8.6618
         7        2.0000           -0.2606144              -7.0917
         8        2.0000           -0.2570193              -6.9939
         9        2.0000           -0.1131557              -3.0791
        10        2.0000           -0.1105531              -3.0083
        11        2.0000           -0.1105188              -3.0074 (HOMO)
        12                         -0.0572587              -1.5581 (LUMO)
        13                          0.1887110               5.1351
        14                          0.1893913               5.1536
        15                          0.2070774               5.6349
        16                          0.2084656               5.6726
       ...                                ...                  ...
        20                          0.5340662              14.5327
      -------------------------------------------------------------
                  HL-Gap            0.0532601 Eh            1.4493 eV
             Fermi-level           -0.0835662 Eh           -2.2740 eV

 SCC (total)                   0 d,  0 h,  0 min,  0.085 sec
 SCC setup                      ...        0 min,  0.000 sec (  0.197%)
 Dispersion                     ...        0 min,  0.000 sec (  0.063%)
 classical contributions        ...        0 min,  0.000 sec (  0.033%)
 integral evaluation            ...        0 min,  0.082 sec ( 96.685%)
 iterations                     ...        0 min,  0.002 sec (  1.995%)
 molecular gradient             ...        0 min,  0.001 sec (  0.818%)
 printout                       ...        0 min,  0.000 sec (  0.186%)

         :::::::::::::::::::::::::::::::::::::::::::::::::::::
         ::                     SUMMARY                     ::
         :::::::::::::::::::::::::::::::::::::::::::::::::::::
         :: total energy             -12.689200692548 Eh    ::
         :: gradient norm              0.002334589001 Eh/a0 ::
         :: HOMO-LUMO gap              1.449281175071 eV    ::
         ::.................................................::
         :: SCC energy               -12.741882743197 Eh    ::
         :: -> isotropic ES            0.227104768429 Eh    ::
         :: -> anisotropic ES         -0.007148147564 Eh    ::
         :: -> anisotropic XC         -0.009232562210 Eh    ::
         :: -> dispersion             -0.002287432952 Eh    ::
         :: repulsion energy           0.052682050649 Eh    ::
         :: add. restraining           0.000000000000 Eh    ::
         :: total charge              -0.999999999999 e     ::
         :::::::::::::::::::::::::::::::::::::::::::::::::::::


Property printout bound to 'properties.out'

           -------------------------------------------------
          | TOTAL ENERGY              -12.689200692548 Eh   |
          | GRADIENT NORM               0.002334589001 Eh/α |
          | HOMO-LUMO GAP               1.449281175071 eV   |
           -------------------------------------------------

------------------------------------------------------------------------
 * finished run on 2026/03/12 at 12:46:06.087     
------------------------------------------------------------------------
 total:
 * wall-time:     0 d,  0 h,  0 min,  0.099 sec
 *  cpu-time:     0 d,  0 h,  0 min,  0.336 sec
 * ratio c/w:     3.389 speedup
 SCF:
 * wall-time:     0 d,  0 h,  0 min,  0.085 sec
 *  cpu-time:     0 d,  0 h,  0 min,  0.277 sec
 * ratio c/w:     3.253 speedup


-------------------------   --------------------
FINAL SINGLE POINT ENERGY       -12.689200692550
-------------------------   --------------------


-------------
DIPOLE MOMENT
-------------
                                X             Y             Z
Total Dipole Moment    :      1.58900       0.91900      -1.21500
                        -----------------------------------------
Magnitude (a.u.)       :      2.20130
Magnitude (Debye)      :      5.59525


------------------
CARTESIAN GRADIENT
------------------

   1   C   :    0.000022433    0.000066432    0.001430073
   2   H   :    0.000080619    0.000234257    0.000153237
   3   H   :    0.000264024   -0.000063838    0.000149399
   4   H   :   -0.000741797   -0.000472483   -0.001295957
   5   F   :    0.000635875    0.000385975   -0.000334172
   6   Br  :   -0.000261153   -0.000150343   -0.000102581

Difference to translation invariance:
           :    0.0000000000   -0.0000000000   -0.0000000000

Difference to rotation invariance:
           :    0.0000000017   -0.0000000025   -0.0000000000

Norm of the Cartesian gradient     ...    0.0023345890
RMS gradient                       ...    0.0005502679
MAX gradient                       ...    0.0014300732
------------------------------------------------------------------------------
                         ORCA GEOMETRY RELAXATION STEP
------------------------------------------------------------------------------

Reading the OPT-File                    .... done
Getting information on internals        .... done
Copying old internal coords+grads       .... done
Making the new internal coordinates     .... (2022 redundants) done
Validating the new internal coordinates .... (2022 redundants) done
Calculating the B-matrix                .... done
Calculating the G,G- and P matrices     .... done
Transforming gradient to internals      .... done
Projecting the internal gradient        .... done
Number of atoms                         ....   6
Number of internal coordinates          ....  15
Current Energy                          ....   -12.689200693 Eh
Current gradient norm                   ....     0.002334589 Eh/bohr
Maximum allowed component of the step   ....  0.300
Current trust radius                    ....  0.200
Updating the Hessian (BFGS)             .... done
Forming the augmented Hessian           .... done
Diagonalizing the augmented Hessian     .... done
Last element of RFO vector              ....  0.999278012
Lowest eigenvalues of augmented Hessian:
 -0.000061056  0.025542882  0.069647877  0.096238564  0.220286222
Length of the computed step             ....  0.038020262
The final length of the internal step   ....  0.038020262
Converting the step to Cartesian space:
 Initial RMS(Int)=    0.0098167895
Transforming coordinates:
 Iter   0:  RMS(Cart)=    0.0212408993 RMS(Int)=    0.0097520133
done
Storing new coordinates                 .... done
The predicted energy change is          ....    -0.000030572
Previously predicted energy change      ....    -0.000054302
Actually observed energy change         ....    -0.000074141
Ratio of predicted to observed change   ....     1.365330130
New trust radius                        ....     0.200000000

                                .--------------------.
          ----------------------|Geometry convergence|-------------------------
          Item                value                   Tolerance       Converged
          ---------------------------------------------------------------------
          Energy change      -0.0000741406            0.0000050000      NO
          RMS gradient        0.0006343209            0.0001000000      NO
          MAX gradient        0.0019530618            0.0003000000      NO
          RMS step            0.0098167895            0.0020000000      NO
          MAX step            0.0337625431            0.0040000000      NO
          -------------------------------------------------------------------------
          ........................................................
          Max(Bonds)      0.0051      Max(Angles)    1.93
          Max(Dihed)        0.14      Max(Improp)    0.00
          ---------------------------------------------------------------------

The optimization has not yet converged - more geometry cycles are needed


    ---------------------------------------------------------------------------
                         Redundant Internal Coordinates
                            (Angstroem and degrees)

        Definition                    Value    dE/dq     Step     New-Value
    ----------------------------------------------------------------------------
     1. B(H   1,C   0)                1.0877  0.000246 -0.0002    1.0875   
     2. B(H   2,C   0)                1.0877  0.000271 -0.0001    1.0876   
     3. B(H   3,C   0)                1.1175 -0.001148  0.0028    1.1203   
     4. B(F   4,H   3)                1.6342 -0.000515 -0.0051    1.6291   
     5. B(Br  5,C   0)                1.9517  0.000223 -0.0020    1.9497   
     6. A(H   1,C   0,H   3)          110.30 -0.000013    0.22    110.53   
     7. A(H   1,C   0,H   2)          109.88 -0.000005   -0.02    109.86   
     8. A(H   1,C   0,Br  5)          106.33  0.000295    0.12    106.45   
     9. A(H   2,C   0,Br  5)          106.33  0.000293    0.11    106.44   
    10. A(H   3,C   0,Br  5)          113.53 -0.000529   -0.64    112.89   
    11. A(H   2,C   0,H   3)          110.30 -0.000015    0.20    110.51   
    12. A(C   0,H   3,F   4)          154.27 -0.001953    1.93    156.20   
    13. D(F   4,H   3,C   0,H   2)     61.05 -0.000006    0.12     61.17   
    14. D(F   4,H   3,C   0,Br  5)   -179.74  0.000005   -0.02   -179.76   
    15. D(F   4,H   3,C   0,H   1)    -60.52  0.000019   -0.14    -60.66   
    ----------------------------------------------------------------------------

Geometry step timings:
Preparation and reading OPT file:      0.000 s ( 2.862 %)
Internal coordinates            :      0.000 s ( 3.846 %)
B/P matrices and projection     :      0.000 s (12.880 %)
Hessian update/contruction      :      0.000 s (33.631 %)
Making the step                 :      0.000 s ( 7.871 %)
Converting the step to Cartesian:      0.000 s ( 2.862 %)
Storing new data                :      0.000 s ( 6.887 %)
Checking convergence            :      0.000 s ( 7.245 %)
Final printing                  :      0.000 s (21.914 %)
Total time                      :      0.001 s

Time for energy+gradient        :      0.108 s
Time for complete geometry iter :      0.110 s

         *************************************************************
         *                GEOMETRY OPTIMIZATION CYCLE   4            *
         *************************************************************
---------------------------------
CARTESIAN COORDINATES (ANGSTROEM)
---------------------------------
  C     0.367144    0.211474   -0.299479
  H     0.461398    1.294470   -0.269295
  H     1.353349   -0.246126   -0.270363
  H    -0.259690   -0.152261    0.554835
  F    -0.661188   -0.382766    2.116793
  Br   -0.394000   -0.228201   -2.039791

----------------------------
CARTESIAN COORDINATES (A.U.)
----------------------------
  NO LB    ZA    FRAG    MASS        X           Y           Z
   0 C   6.0000    0    12.011    0.693801    0.399628   -0.565934
   1 H   1.0000    0     1.008    0.871916    2.446194   -0.508894
   2 H   1.0000    0     1.008    2.557458   -0.465111   -0.510911
   3 H   1.0000    0     1.008   -0.490743   -0.287732    1.048487
   4 F   9.0000    0    18.998   -1.249465   -0.723324    4.000158
   5 Br 35.0000    0    79.900   -0.744552   -0.431237   -3.854646

      -----------------------------------------------------------      
     |                   =====================                   |     
     |                           x T B                           |     
     |                   =====================                   |     
     |                         S. Grimme                         |     
     |          Mulliken Center for Theoretical Chemistry        |     
     |                    University of Bonn                     |     
      -----------------------------------------------------------      

   * xtb version 6.7.1 (edcfbbe) compiled by 'albert@albert-system' on 2024-07-22

   xtb is free software: you can redistribute it and/or modify it under
   the terms of the GNU Lesser General Public License as published by
   the Free Software Foundation, either version 3 of the License, or
   (at your option) any later version.
   
   xtb is distributed in the hope that it will be useful,
   but WITHOUT ANY WARRANTY; without even the implied warranty of
   MERCHANTABILITY or FITNESS FOR A PARTICULAR PURPOSE.  See the
   GNU Lesser General Public License for more details.
   
   Cite this work as:
   * C. Bannwarth, E. Caldeweyher, S. Ehlert, A. Hansen, P. Pracht,
     J. Seibert, S. Spicher, S. Grimme, WIREs Comput. Mol. Sci., 2020, 11,
     e01493. DOI: 10.1002/wcms.1493
   
   for GFN2-xTB:
   * C. Bannwarth, S. Ehlert and S. Grimme., J. Chem. Theory Comput., 2019,
[...]
             Fermi-level           -0.0829166 Eh           -2.2563 eV

 SCC (total)                   0 d,  0 h,  0 min,  0.096 sec
 SCC setup                      ...        0 min,  0.000 sec (  0.175%)
 Dispersion                     ...        0 min,  0.000 sec (  0.055%)
 classical contributions        ...        0 min,  0.000 sec (  0.026%)
 integral evaluation            ...        0 min,  0.094 sec ( 98.245%)
 iterations                     ...        0 min,  0.001 sec (  0.830%)
 molecular gradient             ...        0 min,  0.001 sec (  0.532%)
 printout                       ...        0 min,  0.000 sec (  0.121%)

         :::::::::::::::::::::::::::::::::::::::::::::::::::::
         ::                     SUMMARY                     ::
         :::::::::::::::::::::::::::::::::::::::::::::::::::::
         :: total energy             -12.689323393387 Eh    ::
         :: gradient norm              0.000206925669 Eh/a0 ::
         :: HOMO-LUMO gap              1.487787225860 eV    ::
         ::.................................................::
         :: SCC energy               -12.741483181591 Eh    ::
         :: -> isotropic ES            0.226608538802 Eh    ::
         :: -> anisotropic ES         -0.006984541034 Eh    ::
         :: -> anisotropic XC         -0.009358575088 Eh    ::
         :: -> dispersion             -0.002301335412 Eh    ::
         :: repulsion energy           0.052159788205 Eh    ::
         :: add. restraining           0.000000000000 Eh    ::
         :: total charge              -0.999999999999 e     ::
         :::::::::::::::::::::::::::::::::::::::::::::::::::::

           ------------------------------------------------- 
          |                Numerical Hessian                |
           ------------------------------------------------- 
step length          :   0.00500
SCC accuracy         :   0.30000
Hessian scale factor :   1.00000
frozen atoms in %    :   0.00000    0
RMS gradient         :   0.00021
estimated CPU  time      0.00 min
estimated wall time      0.00 min

writing file <hessian>.

 projected vibrational frequencies (cm⁻¹)
eigval :       -0.00    -0.00    -0.00    -0.00     0.00     0.00
eigval :       93.46   293.54   323.20   556.61   945.28  1010.43
eigval :     1317.37  1394.80  1437.16  2422.99  3013.16  3020.01

Property printout bound to 'properties.out'
Molecule has the following symmetry elements: (sigma) 
It seems to be the Cs point group

           -------------------------------------------------
          | TOTAL ENERGY              -12.689323393387 Eh   |
          | TOTAL ENTHALPY            -12.647629365858 Eh   |
          | TOTAL FREE ENERGY         -12.682236431051 Eh   |
          | GRADIENT NORM               0.000206909796 Eh/α |
          | HOMO-LUMO GAP               1.487787017102 eV   |
           -------------------------------------------------

------------------------------------------------------------------------
 * finished run on 2026/03/12 at 12:46:07.265     
------------------------------------------------------------------------
 total:
 * wall-time:     0 d,  0 h,  0 min,  0.173 sec
 *  cpu-time:     0 d,  0 h,  0 min,  0.629 sec
 * ratio c/w:     3.630 speedup
 SCF:
 * wall-time:     0 d,  0 h,  0 min,  0.096 sec
 *  cpu-time:     0 d,  0 h,  0 min,  0.427 sec
 * ratio c/w:     4.433 speedup
 analytical hessian:
 * wall-time:     0 d,  0 h,  0 min,  0.064 sec
 *  cpu-time:     0 d,  0 h,  0 min,  0.134 sec
 * ratio c/w:     2.103 speedup


-------------------------   --------------------
FINAL SINGLE POINT ENERGY       -12.689323393390
-------------------------   --------------------


-------------
DIPOLE MOMENT
-------------
                                X             Y             Z
Total Dipole Moment    :      1.72200       0.99600      -1.21700
                        -----------------------------------------
Magnitude (a.u.)       :      2.33204
Magnitude (Debye)      :      5.92756


-----------------------
VIBRATIONAL FREQUENCIES
-----------------------

Scaling factor for frequencies =  1.000000000  (already applied!)

     0:       0.00 cm**-1
     1:       0.00 cm**-1
     2:       0.00 cm**-1
     3:       0.00 cm**-1
     4:       0.00 cm**-1
     5:       0.00 cm**-1
     6:      93.46 cm**-1
     7:     293.54 cm**-1
     8:     323.19 cm**-1
     9:     556.60 cm**-1
    10:     945.26 cm**-1
    11:    1010.40 cm**-1
    12:    1317.33 cm**-1
    13:    1394.76 cm**-1
    14:    1437.12 cm**-1
    15:    2422.92 cm**-1
    16:    3013.08 cm**-1
    17:    3019.92 cm**-1


------------
NORMAL MODES
------------

These modes are the Cartesian displacements weighted by the diagonal matrix
M(i,i)=1/sqrt(m[i]) where m[i] is the mass of the displaced atom
Thus, these vectors are normalized but *not* orthogonal

                  0          1          2          3          4          5    
      0       0.000000   0.000000   0.000000   0.000000   0.000000   0.000000
      1       0.000000   0.000000   0.000000   0.000000   0.000000   0.000000
      2       0.000000   0.000000   0.000000   0.000000   0.000000   0.000000
      3       0.000000   0.000000   0.000000   0.000000   0.000000   0.000000
      4       0.000000   0.000000   0.000000   0.000000   0.000000   0.000000
      5       0.000000   0.000000   0.000000   0.000000   0.000000   0.000000
      6       0.000000   0.000000   0.000000   0.000000   0.000000   0.000000
      7       0.000000   0.000000   0.000000   0.000000   0.000000   0.000000
      8       0.000000   0.000000   0.000000   0.000000   0.000000   0.000000
      9       0.000000   0.000000   0.000000   0.000000   0.000000   0.000000
     10       0.000000   0.000000   0.000000   0.000000   0.000000   0.000000
     11       0.000000   0.000000   0.000000   0.000000   0.000000   0.000000
     12       0.000000   0.000000   0.000000   0.000000   0.000000   0.000000
     13       0.000000   0.000000   0.000000   0.000000   0.000000   0.000000
     14       0.000000   0.000000   0.000000   0.000000   0.000000   0.000000
     15       0.000000   0.000000   0.000000   0.000000   0.000000   0.000000
     16       0.000000   0.000000   0.000000   0.000000   0.000000   0.000000
     17       0.000000   0.000000   0.000000   0.000000   0.000000   0.000000
                  6          7          8          9         10         11    
      0      -0.327645  -0.317029   0.051894  -0.198487   0.082209  -0.052177
      1      -0.189549  -0.183579  -0.089092  -0.114613   0.047822   0.089900
      2       0.138316   0.141281  -0.000100  -0.536042  -0.030737   0.000181
      3      -0.325126  -0.306229  -0.511097  -0.158715  -0.036832   0.352260
      4      -0.192107  -0.182344  -0.042941  -0.108514   0.034089   0.031252
      5       0.266633   0.297958   0.264815  -0.376532   0.420884   0.554558
      6      -0.327695  -0.308994   0.292031  -0.173443   0.010677  -0.202837
      7      -0.184412  -0.171754   0.422286  -0.083405  -0.050273  -0.289378
      8       0.266098   0.296732  -0.264735  -0.377244   0.419450  -0.556003
      9      -0.412928  -0.433129   0.283965  -0.156848  -0.450642   0.176012
     10      -0.239701  -0.252152  -0.489897  -0.091140  -0.261182  -0.302509
     11       0.027423   0.032921  -0.000402  -0.505416  -0.600312   0.000678
     12       0.113790   0.163737  -0.021362  -0.018142   0.002852  -0.001826
     13       0.065802   0.094798   0.036682  -0.010471   0.001646   0.003157
     14       0.386823  -0.353936   0.000101   0.067993   0.004800  -0.000023
     15       0.035642   0.021951  -0.003540   0.040320  -0.007021   0.004172
     16       0.020622   0.012705   0.006066   0.023290  -0.004081  -0.007192
     17      -0.119835   0.055000  -0.000005   0.080300   0.000451  -0.000012
                 12         13         14         15         16         17    
      0       0.024347   0.029731  -0.062578  -0.044506  -0.053500   0.045659
      1       0.014051  -0.051321  -0.036205  -0.025821  -0.030306  -0.079683
      2       0.104220  -0.000012   0.011182   0.060495   0.001617  -0.000032
      3      -0.078693  -0.153001   0.689308  -0.014742   0.021909   0.074577
      4       0.019324  -0.011231  -0.060946  -0.044615   0.700580   0.704314
      5      -0.556248   0.409807  -0.006739   0.009793   0.011659   0.003933
      6      -0.022735   0.085893   0.290410  -0.046118   0.626592  -0.639626
      7      -0.077390   0.127654   0.628002   0.009496  -0.333465   0.281737
      8      -0.555750  -0.410140  -0.006204   0.009776   0.011123  -0.003213
      9      -0.401492  -0.392692  -0.140440   0.593767   0.005017   0.018890
     10      -0.232615   0.677414  -0.081504   0.344379   0.003172  -0.032650
     11      -0.376404   0.000203  -0.103006  -0.719664  -0.028486  -0.000125
     12       0.001904   0.002088   0.000149  -0.000705  -0.000032  -0.000100
     13       0.001104  -0.003610   0.000088  -0.000412  -0.000018   0.000173
     14       0.001264   0.000008   0.001016  -0.001804   0.000241   0.000001
     15       0.002232   0.000835  -0.001217   0.000135  -0.000195   0.000050
     16       0.001292  -0.001442  -0.000704   0.000078  -0.000111  -0.000091
     17       0.002810   0.000001  -0.000460   0.000167  -0.000229  -0.000003


The first frequency considered to be a vibration is 6
The total number of vibrations considered is 12


--------------------------
THERMOCHEMISTRY AT 298.15K
--------------------------

Temperature         ...   298.15 K
Pressure            ...     1.00 atm
Total Mass          ...   113.93 AMU
Quasi RRHO          ...     True
Cut-Off Frequency   ...     1.00 cm^-1

Throughout the following assumptions are being made:
  (1) The electronic state is orbitally nondegenerate
  (2) There are no thermally accessible electronically excited states
  (3) Hindered rotations indicated by low frequency modes are not
      treated as such but are treated as vibrations and this may
      cause some error
  (4) All equations used are the standard statistical mechanics
      equations for an ideal gas
  (5) All vibrations are strictly harmonic

freq.      93.46  E(vib)   ...       0.47 
freq.     293.54  E(vib)   ...       0.27 
freq.     323.19  E(vib)   ...       0.25 
freq.     556.60  E(vib)   ...       0.12 
freq.     945.26  E(vib)   ...       0.03 
freq.    1010.40  E(vib)   ...       0.02 
freq.    1317.33  E(vib)   ...       0.01 
freq.    1394.76  E(vib)   ...       0.00 
freq.    1437.12  E(vib)   ...       0.00 
freq.    2422.92  E(vib)   ...       0.00 
freq.    3013.08  E(vib)   ...       0.00 
freq.    3019.92  E(vib)   ...       0.00 

------------
INNER ENERGY
------------

The inner energy is: U= E(el) + E(ZPE) + E(vib) + E(rot) + E(trans)
    E(el)   - is the total energy from the electronic structure calculation
              = E(kin-el) + E(nuc-el) + E(el-el) + E(nuc-nuc)
    E(ZPE)  - the the zero temperature vibrational energy from the frequency calculation
    E(vib)  - the the finite temperature correction to E(ZPE) due to population
              of excited vibrational states
    E(rot)  - is the rotational thermal energy
    E(trans)- is the translational thermal energy

Summary of contributions to the inner energy U:
Electronic energy                ...    -12.68932339 Eh
Zero point energy                ...      0.03605790 Eh      22.63 kcal/mol
Thermal vibrational correction   ...      0.00185839 Eh       1.17 kcal/mol
Thermal rotational correction    ...      0.00141627 Eh       0.89 kcal/mol
Thermal translational correction ...      0.00141627 Eh       0.89 kcal/mol
-----------------------------------------------------------------------
Total thermal energy                    -12.64857456 Eh


Summary of corrections to the electronic energy:
(perhaps to be used in another calculation)
Total thermal correction                  0.00469094 Eh       2.94 kcal/mol
Non-thermal (ZPE) correction              0.03605790 Eh      22.63 kcal/mol
-----------------------------------------------------------------------
Total correction                          0.04074883 Eh      25.57 kcal/mol


--------
ENTHALPY
--------

The enthalpy is H = U + kB*T
                kB is Boltzmann's constant
Total thermal energy              ...    -12.64857456 Eh 
Thermal Enthalpy correction       ...      0.00094421 Eh       0.59 kcal/mol
-----------------------------------------------------------------------
Total Enthalpy                    ...    -12.64763035 Eh


WARNING (ORCA/SYM): The number of Z matrix atoms does not agree with
the number of centers in the basis set. The point group will therefore
be determined without considering basis set information.


Note: Only C1 symmetry has been detected, increase convergence thresholds 
      if your molecule has a higher symmetry. Symmetry factor of 1.0 is   
      used for the rotational entropy correction. 
 

Note: Rotational entropy computed according to Herzberg 
Infrared and Raman Spectra, Chapter V,1, Van Nostrand Reinhold, 1945 
Point Group:  C1, Symmetry Number:   1  
Rotational constants in cm-1:     0.963144     0.060864     0.057874 

Vibrational entropy computed according to the QRRHO of S. Grimme
Chem.Eur.J. 2012 18 9955 using a reference frequency of 100.0 cm-1


-------
ENTROPY
-------

The entropy contributions are T*S = T*(S(el)+S(vib)+S(rot)+S(trans))
     S(el)   - electronic entropy
     S(vib)  - vibrational entropy
     S(rot)  - rotational entropy
     S(trans)- translational entropy
The entropies will be listed as multiplied by the temperature to get
units of energy

Electronic entropy                ...      0.00000000 Eh      0.00 kcal/mol
Vibrational entropy               ...      0.00321271 Eh      2.02 kcal/mol
Rotational entropy                ...      0.01219519 Eh      7.65 kcal/mol
Translational entropy             ...      0.01905598 Eh     11.96 kcal/mol
-----------------------------------------------------------------------
Final entropy term                ...      0.03446388 Eh     21.63 kcal/mol

In case the symmetry of your molecule has not been determined correctly
or in case you have a reason to use a different symmetry number we print 
out the resulting rotational entropy values for sn=1,12:

 non-linear molecules -----------------------------------
|  sn= 1 | S(rot)=       0.01219519 Eh      7.65 kcal/mol|
|  sn= 2 | S(rot)=       0.01154073 Eh      7.24 kcal/mol|
|  sn= 3 | S(rot)=       0.01115790 Eh      7.00 kcal/mol|
|  sn= 4 | S(rot)=       0.01088628 Eh      6.83 kcal/mol|
|  sn= 5 | S(rot)=       0.01067559 Eh      6.70 kcal/mol|
|  sn= 6 | S(rot)=       0.01050344 Eh      6.59 kcal/mol|
|  sn= 7 | S(rot)=       0.01035790 Eh      6.50 kcal/mol|
|  sn= 8 | S(rot)=       0.01023182 Eh      6.42 kcal/mol|
|  sn= 9 | S(rot)=       0.01012061 Eh      6.35 kcal/mol|
|  sn=10 | S(rot)=       0.01002113 Eh      6.29 kcal/mol|
|  sn=11 | S(rot)=       0.00993114 Eh      6.23 kcal/mol|
|  sn=12 | S(rot)=       0.00984899 Eh      6.18 kcal/mol|
 linear molecules ---------------------------------------
|  Dinfh | S(rot)=       0.00801623 Eh      5.03 kcal/mol|
|  Cinfv | S(rot)=       0.00867069 Eh      5.44 kcal/mol|
 --------------------------------------------------------


-------------------
GIBBS FREE ENERGY
-------------------

The Gibbs free energy is G = H - T*S

Total enthalpy                    ...    -12.64763035 Eh 
Total entropy correction          ...     -0.03446388 Eh    -21.63 kcal/mol
-----------------------------------------------------------------------
Final Gibbs free energy         ...    -12.68209423 Eh

For completeness - the Gibbs free energy minus the electronic energy
G-E(el)                           ...      0.00722916 Eh      4.54 kcal/mol


--------------------------------
SUGGESTED CITATIONS FOR THIS RUN
--------------------------------

Below you find a list of papers that are relevant to this ORCA run
We neither can nor want to force you to cite these papers, but we appreciate if you do
You receive ORCA, which is the product of decades of hard work by many enthusiastic individuals, for free
The only thing we kindly ask in return is that you cite our papers,
We deeply appreciate it, if you show your appreciation for ORCA by not just citing the generic ORCA reference.

Please note that relegating all ORCA citations to the supporting information does *not* help us.
SI sections are not indexed - citations you put there will not count into any citation statistics
But we need these citations in order to attract the funding resources that allow us to do what we are doing

Therefore, if you are a happy ORCA user, please consider citing a few of the papers listed below in the main body of your paper

In addition to the list printed below, the program has created the file product_optfreq.bibtex that contains the list in bibtex format
You can import this file easily into all common literature databanks and citation aid programs


List of essential papers. We consider these as the minimum necessary citations

  1. Bannwarth, C.; Ehlert, S.; Grimme, S.
     GFN2-xTB—An Accurate and Broadly Parametrized Self-Consistent Tight-Binding Quantum Chemical Method with Multipole Electrostatics and Density-Dependent Dispersion Contributions
     J. Chem. Theory Comput. 2019 15(3), 1652-1671
     doi.org/10.1021/acs.jctc.8b01176
  2. Neese, F.
     Software update: the ORCA program system, version 6.0
     WIRES Comput. Molec. Sci. 2025 15(1), e70019
     doi.org/10.1002/wcms.7019

List of papers to cite with high priority. The work reported in these papers was absolutely
necessary for this run to complete.
Our perspective: the developers of density functionals and basis sets usually get cited in chemistry papers
Good! But without the algorithms to do something with them, the functionals or basis sets would not do anything.
Hence, in our opinion, the algorithm design and method developments papers are equally worthy of getting cited

  1. Bykov, D.; Petrenko, T.; Izsak, R.; Kossmann, S.; Becker, U.; Valeev, E.; Neese, F.
     Efficient implementation of the analytic second derivatives of Hartree-Fock and hybrid DFT energies: a detailed analysis of different approximations
     Molec. Phys. 2015 113 , 1961-1977
     doi.org/10.1080/00268976.2015.1025114
  2. Bannwarth, C.; Caldeweyher, E.; Ehlert, S.; Hansen, A.; Pracht, P.; Seibert, J.; Spicher, S.; Grimme, S.
     Extended tight-binding quantum chemistry methods
     WIRES Comput. Molec. Sci. 2020 11(2), e1493
     doi.org/10.1002/wcms.1493

List of suggested additional citations. These are papers that are important in the 'surrounding' of 
of this run, or papers that preceded the highly important papers. If you like your results we are grateful for a citation.

  1. Neese, F.
     The ORCA program system
     WIRES Comput. Molec. Sci. 2012 2(1), 73-78
     doi.org/10.1002/wcms.81
  2. Neese, F.
     Software update: the ORCA program system, version 4.0
     WIRES Comput. Molec. Sci. 2018 8(1), 1-6
     doi.org/10.1002/wcms.1327
  3. Neese, F.; Wennmohs, F.; Becker, U.; Riplinger, C.
     The ORCA quantum chemistry program package
     J. Chem. Phys. 2020 152(22), 224108
     doi.org/10.1063/5.0004608
  4. Neese, F.
     Software update: The ORCA program system—Version 5.0
     WIRES Comput. Molec. Sci. 2022 12(1), e1606
     doi.org/10.1002/wcms.1606

List of optional additional citations

  1. Neese, F.
     Approximate second-order SCF convergence for spin unrestricted wavefunctions
     Chem. Phys. Lett. 2000 325(1-3), 93-98
     doi.org/10.1016/s0009-2614(00)00662-x

Timings for individual modules:

Sum of individual times          ...        1.477 sec (=   0.025 min)
Geometry relaxation              ...        0.015 sec (=   0.000 min)   1.0 %
XTB module                       ...        1.462 sec (=   0.024 min)  99.0 %
                             ****ORCA TERMINATED NORMALLY****
TOTAL RUN TIME: 0 days 0 hours 0 minutes 1 seconds 932 msec
