
                                 *****************
                                 * O   R   C   A *
                                 *****************

                                            #,                                       
                                            ###                                      
                                            ####                                     
                                            #####                                    
                                            ######                                   
                                           ########,                                 
                                     ,,################,,,,,                         
                               ,,#################################,,                 
                          ,,##########################################,,             
                       ,#########################################, ''#####,          
                    ,#############################################,,   '####,        
                  ,##################################################,,,,####,       
                ,###########''''           ''''###############################       
              ,#####''   ,,,,##########,,,,          '''####'''          '####       
            ,##' ,,,,###########################,,,                        '##       
           ' ,,###''''                  '''############,,,                           
         ,,##''                                '''############,,,,        ,,,,,,###''
      ,#''                                            '''#######################'''  
     '                                                          ''''####''''         
             ,#######,   #######,   ,#######,      ##                                
            ,#'     '#,  ##    ##  ,#'     '#,    #''#        ,####,    ,#,          
            ##       ##  ##   ,#'  ##            #'  '#       #'       ,# #          
            ##       ##  #######   ##           ,######,      #####,      #          
            '#,     ,#'  ##    ##  '#,     ,#' ,#      #,     #,   #      #          
             '#######'   ##     ##  '#######'  #'      '#     '####' #    #          



                #########################################################
                #                        -***-                          #
                #          Department of theory and spectroscopy        #
                #                                                       #
                #                      Frank Neese                      #
                #                                                       #
                #     Directorship, Architecture, Infrastructure        #
                #                    SHARK, DRIVERS                     #
                #        Core code/Algorithms in most modules           #
                #                                                       #
                #        Max Planck Institute fuer Kohlenforschung      #
                #                Kaiser Wilhelm Platz 1                 #
                #                 D-45470 Muelheim/Ruhr                 #
                #                      Germany                          #
                #                                                       #
                #                  All rights reserved                  #
                #                        -***-                          #
                #########################################################


                         Program Version 6.1.0  -  RELEASE   -
                                (GIT: $679e74b$)
                          ($2025-06-10 18:02:51 +0200$)


 With contributions from (in alphabetic order):
[Max-Planck-Institut fuer Kohlenforschung]                               
  Daniel Aravena         : Magnetic Suceptibility                        
  Michael Atanasov       : Ab Initio Ligand Field Theory (pilot matlab implementation)
  Alexander A. Auer      : GIAO ZORA, VPT2 properties, NMR spectrum      
  Ute Becker             : All parallelization in ORCA, NUMFREQ, NUMCALC 
  Giovanni Bistoni       : ED, misc. LED, open-shell LED, HFLD           
  Dmytro Bykov           : pre 5.0 version of the SCF Hessian            
  Marcos Casanova-Páez   : Triplet and SCS-CIS(D). UHF-(DLPNO)-IP/EA/STEOM-CCSD. UHF-CVS-IP/STEOM-CCSD   
  Vijay G. Chilkuri      : MRCI spin determinant printing, contributions to CSF-ICE 
  Pauline Colinet        : FMM embedding                                 
  Dipayan Datta          : RHF DLPNO-CCSD density                        
  Achintya Kumar Dutta   : EOM-CC, STEOM-CC                              
  Nicolas Foglia         : Exact transition moments, OPA infrastructure, MCD improvements    
  Dmitry Ganyushin       : Spin-Orbit,Spin-Spin,Magnetic field MRCI      
  Miquel Garcia-Rates    : C-PCM and meta-GGA Hessian, CCSD/C-PCM, Gaussian charge scheme 
  Tiago L. C. Gouveia    : GS-ROHF, GS-ROCIS                             
  Yang Guo               : DLPNO-NEVPT2, F12-NEVPT2, CIM, IAO-localization        
  Andreas Hansen         : Spin unrestricted coupled pair/coupled cluster methods 
  Ingolf Harden          : AUTO-CI MPn and infrastructure                
  Benjamin Helmich-Paris : MC-RPA, TRAH-(SCF,CASSCF), AVAS, COSX integrals, SCF dyn. polar., MC-PDFT, srDFT 
  Lee Huntington         : MR-EOM, pCC                                   
  Robert Izsak           : Overlap fitted RIJCOSX, COSX-SCS-MP3, EOM     
  Riya Kayal             : Wick's Theorem for AUTO-CI, AUTO-CI UHF-CCSDT 
  Emily Kempfer          : AUTO-CI RHF CISDT and CCSDT, approximate NEVPT4
  Christian Kollmar      : KDIIS, OOCD, Brueckner-CCSD(T), CCSD density, CASPT2, CASPT2-K, improved NEVPT2 
  Axel Koslowski         : Symmetry handling                             
  Simone Kossmann        : meta-GGA functionals, TD-DFT gradient, OOMP2, (MP2 Hessian; deprecated post 5.0) 
  Lucas Lang             : DCDCAS, Hyperfine gauge corrections, ICE-SOC+SSC
  Marvin Lechner         : AUTO-CI (C++ implementation), FIC-MRCC        
  Spencer Leger          : CASSCF response                               
  Dagmar Lenk            : GEPOL surface, SMD, ORCA-2-JSON               
  Dimitrios Liakos       : Extrapolation schemes; Compound Job, Property file
  Dimitrios Manganas     : Further ROCIS development; embedding schemes. LFT, Crystal Embedding 
  Dimitrios Pantazis     : SARC Basis sets                               
  Anastasios Papadopoulos: AUTO-CI, single reference methods and gradients 
  Taras Petrenko         : pre 6.0 DFT Hessian and TD-DFT gradient,  ECA, NRVS 
  Petra Pikulova         : Analytic Raman intensities                    
  Peter Pinski           : DLPNO-MP2, DLPNO-MP2 Gradient                 
  Shashank Vittal Rao    : ES-AILFT, MagRelax                            
  Christoph Reimann      : Effective Core Potentials                     
  Marius Retegan         : Local ZFS, SOC                                
  Christoph Riplinger    : Optimizer, TS searches, QM/MM, DLPNO-CCSD(T), (RO)-DLPNO pert. Triples 
  Michael Roemelt        : Original ROCIS implementation, recursive CI coupling coefficients
  Masaaki Saitow         : Open-shell DLPNO-CCSD energy and density      
  Barbara Sandhoefer     : DKH picture change effects                    
  Yorick L. A. Schmerwitz: GMF and freeze-and-release deltaSCF, NEB S-IDPP initial path                    
  Kantharuban Sivalingam : CASSCF convergence/infrastructure, NEVPT2, NEVPT3, NEVPT4(SD), FIC-MRCI and CEPA variants
  Bernardo de Souza      : ESD, SOC TD-DFT                               
  Georgi L. Stoychev     : AutoAux, RI-MP2 NMR, DLPNO-MP2 response, X2C  
  Van Anh Tran           : RI-MP2 g-tensors                              
  Willem Van den Heuvel  : Paramagnetic NMR                              
  Zikuan Wang            : NOTCH, Electric field optimization            
  Frank Wennmohs         : Technical directorship and infrastructure     
  Hang Xu                : AUTO-CI-Response properties                   
                                                                         
[FACCTs GmbH]                                                            
  Markus Bursch, Nicolas Foglia, Miquel Garcia-Rates, Ingolf Harden, Hagen Neugebauer, Anastasios Papadopoulos, 
  Christoph Riplinger, Bernardo de Souza, Georgi L. Stoychev                                                    
                                                                 
  APM, various basis sets, CI-OPT, improved COSX, DLPNO-Multilevel,           
  DOCKER, DRACO, updates on ESD, Fragmentator, GOAT, IRC, LR-CPCM, L-BFGS, MBIS, meta-GGA TD-DFT gradient, ML-optimized integration grids, 
  MM, NACMEs, nearIR, NEB, NEB-TS, NL-DFT gradient (VV10), 2- and 3-layer-ONIOM, interface openCOSMO-RS, QMMM,   
  Crystal-QMMM, RESP, rigid body optimization, SF, symmetry and pop. for TD-DFT, various functionals, SOLVATOR                                   
                                                                         
[Other institutions]                                                     
  V. Asgeirsson          : NEB                                           
  Christoph Bannwarth    : sTDA-DFT, sTD-DFT, PBEh-3c, B97-3c, D3        
  Giovanni Bistoni       : ETS/NOCV, ADLD/ADEX, COVALED                  
  Martin Brehm           : Molecular dynamics                            
  Ronald Cardenas        : ETS/NOCV                                      
  Martina Colucci        : COVALED                                       
  Sebastian Ehlert       : rSCAN, r2SCAN, r2SCAN-3c, D4, dhf basis sets  
  Marvin Friede          : D4 for Fr, Ra, Ac-Lr                          
  Lars Goerigk           : TD-DFT with DH, B97 family of functionals     
  Stefan Grimme          : VdW corrections, initial TS optimization, DFT functionals, gCP, sTDA/sTD-DF 
  Waldemar Hujo          : DFT-NL                                        
  H. Jonsson             : NEB                                           
  Holger Kruse           : gCP                                           
  Marcel Mueller         : wB97X-3c, vDZP basis set                      
  Hagen Neugebauer       : wr2SCAN, Native XTB                           
  Gianluca Regni         : ADLD/ADEX                                     
  Tobias Risthaus        : pre 6.0 range-separated hybrid DFT and stability analysis
  Lukas Wittmann         : regularized MP2, r2SCAN double-hybrids, wr2SCAN        
                                                                         
We gratefully acknowledge several colleagues who have allowed us to      
interface, adapt or use parts of their codes:                            
  Ed Valeev, F. Pavosevic, A. Kumar             : LibInt (2-el integral package), F12 methods 
  Garnet Chan, S. Sharma, J. Yang, R. Olivares  : DMRG                   
  Ulf Ekstrom                                   : XCFun DFT Library      
  Mihaly Kallay                                 : mrcc  (arbitrary order and MRCC methods)
  Frank Weinhold                                : gennbo (NPA and NBO analysis)           
  Simon Mueller                                 : openCOSMO-RS                            
  Christopher J. Cramer and Donald G. Truhlar   : smd solvation model                     
  S Lehtola, MJT Oliveira, MAL Marques          : LibXC Library                           
  Liviu Ungur et al                             : ANISO software                          


 Your calculation uses the libint2 library for the computation of 2-el integrals
 For citations please refer to: http://libint.valeyev.net

 Your ORCA version has been built with support for libXC version: 7.0.0
 For citations please refer to: https://libxc.gitlab.io

 This ORCA versions uses:
   CBLAS   interface :  Fast vector & matrix operations
   LAPACKE interface :  Fast linear algebra routines
   SCALAPACK package :  Parallel linear algebra routines
   Shared memory     :  Shared parallel matrices
   BLAS/LAPACK       :  OpenBLAS 0.3.29  USE64BITINT DYNAMIC_ARCH NO_AFFINITY SkylakeX SINGLE_THREADED
        Core in use  :  SkylakeX
   Copyright (c) 2011-2014, The OpenBLAS Project


  ***********************************
  * Starting time: Thu Mar 12 12:46:00 2026
  * Host name:     midway3-login4.rcc.local
  * Process ID:    2783816
  * Working dir.:  /home/rzhu16/orca_TS_search/sn2_f_br/geo_opt_reactant_product
  ***********************************

Your calculation utilizes the semiempirical GFN2-xTB method
Please cite in your paper:
Bannwarth, C.; Ehlert S.; Grimme, S. J. Chem. Theory Comput. 2019, 15, 1652.
   

================================================================================

================================================================================
                                        WARNINGS
                       Please study these warnings very carefully!
================================================================================


WARNING: Analytical Hessian for XTB is limited in the analysis of the data.
       : If you want to obtain extensive IR and deltaG analysis, please use ! XTB NumFreq. 


WARNING: Geometry Optimization
  ===> : Switching off AutoStart
         For restart on a previous wavefunction, please use MOREAD

WARNING: Found dipole moment calculation with XTB calculation
  ===> : Switching off dipole moment calculation


WARNING: Found frequency calculation in combination with XTB calculation
  ===> : Need to redirect dipole moment calculation to properties.out


================================================================================
                                       INPUT FILE
================================================================================
NAME = reactant_optfreq.inp
|  1> ! XTB2 Opt Freq PAL8
|  2> 
|  3> * xyz -1 1
|  4>   C      -0.101652     -0.057820      0.012851
|  5>   H      -0.076654      1.006510      0.140140
|  6>   H       0.830360     -0.572025      0.140950
|  7>   H      -1.005133     -0.576679      0.213866
|  8>   F      -0.295863     -0.170627      2.082907
|  9>   Br     -0.218069     -0.125948     -2.213975
| 10> *
| 11> 
| 12>                          ****END OF INPUT****
================================================================================

                       *****************************
                       * Geometry Optimization Run *
                       *****************************

Geometry optimization settings:
Update method            Update   .... BFGS
Choice of coordinates    CoordSys .... (2022) Redundant Internals
Initial Hessian          InHess   .... Almloef's Model
Max. no of cycles        MaxIter  .... 50

Convergence Tolerances:
Energy Change            TolE     ....  5.0000e-06 Eh
Max. Gradient            TolMAXG  ....  3.0000e-04 Eh/bohr
RMS Gradient             TolRMSG  ....  1.0000e-04 Eh/bohr
Max. Displacement        TolMAXD  ....  4.0000e-03 bohr
RMS Displacement         TolRMSD  ....  2.0000e-03 bohr
Strict Convergence                .... False

------------------------------------------------------------------------------
                        ORCA OPTIMIZATION COORDINATE SETUP
------------------------------------------------------------------------------

The optimization will be done in redundant internal coordinates (2022)
Making redundant internal coordinates   ...  (2022 redundants) done
Evaluating the initial hessian          ...  (Almloef) done
Evaluating the coordinates              ...  done
Calculating the B-matrix                .... done
Calculating the G-matrix                .... done
The number of degrees of freedom        ....   18

    -----------------------------------------------------------------
                    Redundant Internal Coordinates


    -----------------------------------------------------------------
         Definition                    Initial Value    Approx d2E/dq
    -----------------------------------------------------------------
      1. B(H   1,C   0)                  1.0722         0.384426   
      2. B(H   2,C   0)                  1.0721         0.384533   
      3. B(H   3,C   0)                  1.0611         0.400458   
      4. B(F   4,C   0)                  2.0822         0.040888   
      5. B(F   4,H   3)                  2.0399         0.010000   
      6. B(F   4,H   2)                  2.2805         0.010000   
      7. B(F   4,H   1)                  2.2821         0.010000   
      8. B(Br  5,C   0)                  2.2309         0.095635   
      9. A(H   1,C   0,H   3)          118.8658         0.298833   
     10. A(H   2,C   0,H   3)          118.8835         0.298846   
     11. A(H   1,C   0,Br  5)           98.6287         0.279353   
     12. A(H   2,C   0,Br  5)           98.6257         0.279365   
     13. A(H   3,C   0,Br  5)           97.4540         0.281121   
     14. A(H   1,C   0,F   4)           86.4413         0.231758   
     15. A(H   2,C   0,F   4)           86.3486         0.231767   
     16. A(H   3,C   0,F   4)           72.8876         0.233085   
     17. A(F   4,C   0,Br  5)          170.3414         0.219709   
     18. A(H   1,C   0,H   2)          116.2083         0.296914   
    -----------------------------------------------------------------

Number of atoms                         .... 6
Number of degrees of freedom            .... 18


         *************************************************************
         *                GEOMETRY OPTIMIZATION CYCLE   1            *
         *************************************************************
---------------------------------
CARTESIAN COORDINATES (ANGSTROEM)
---------------------------------
  C    -0.101652   -0.057820    0.012851
  H    -0.076654    1.006510    0.140140
  H     0.830360   -0.572025    0.140950
  H    -1.005133   -0.576679    0.213866
  F    -0.295863   -0.170627    2.082907
  Br   -0.218069   -0.125948   -2.213975

----------------------------
CARTESIAN COORDINATES (A.U.)
----------------------------
  NO LB    ZA    FRAG    MASS        X           Y           Z
   0 C   6.0000    0    12.011   -0.192094   -0.109264    0.024285
   1 H   1.0000    0     1.008   -0.144855    1.902028    0.264826
   2 H   1.0000    0     1.008    1.569153   -1.080971    0.266357
   3 H   1.0000    0     1.008   -1.899426   -1.089765    0.404148
   4 F   9.0000    0    18.998   -0.559100   -0.322438    3.936124
   5 Br 35.0000    0    79.900   -0.412091   -0.238007   -4.183806

      -----------------------------------------------------------      
     |                   =====================                   |     
     |                           x T B                           |     
     |                   =====================                   |     
     |                         S. Grimme                         |     
     |          Mulliken Center for Theoretical Chemistry        |     
     |                    University of Bonn                     |     
      -----------------------------------------------------------      

   * xtb version 6.7.1 (edcfbbe) compiled by 'albert@albert-system' on 2024-07-22

   xtb is free software: you can redistribute it and/or modify it under
   the terms of the GNU Lesser General Public License as published by
   the Free Software Foundation, either version 3 of the License, or
   (at your option) any later version.
   
   xtb is distributed in the hope that it will be useful,
   but WITHOUT ANY WARRANTY; without even the implied warranty of
   MERCHANTABILITY or FITNESS FOR A PARTICULAR PURPOSE.  See the
   GNU Lesser General Public License for more details.
   
   Cite this work as:
   * C. Bannwarth, E. Caldeweyher, S. Ehlert, A. Hansen, P. Pracht,
     J. Seibert, S. Spicher, S. Grimme, WIREs Comput. Mol. Sci., 2020, 11,
     e01493. DOI: 10.1002/wcms.1493
   
   for GFN2-xTB:
   * C. Bannwarth, S. Ehlert and S. Grimme., J. Chem. Theory Comput., 2019,
     15, 1652-1671. DOI: 10.1021/acs.jctc.8b01176
   for GFN1-xTB:
   * S. Grimme, C. Bannwarth, P. Shushkov, J. Chem. Theory Comput., 2017,
     13, 1989-2009. DOI: 10.1021/acs.jctc.7b00118
   for GFN0-xTB:
   * P. Pracht, E. Caldeweyher, S. Ehlert, S. Grimme, ChemRxiv, 2019, preprint.
     DOI: 10.26434/chemrxiv.8326202.v1
   for GFN-FF:
   * S. Spicher and S. Grimme, Angew. Chem. Int. Ed., 2020, 59, 15665-15673.
     DOI: 10.1002/anie.202004239
   
   for ALPB and GBSA implicit solvation:
   * S. Ehlert, M. Stahn, S. Spicher, S. Grimme, J. Chem. Theory Comput.,
     2021, 17, 4250-4261. DOI: 10.1021/acs.jctc.1c00471
   
   for ddCOSMO and CPCM-X implicit solvation:
   * M. Stahn, S. Ehlert, S. Grimme, J. Phys. Chem. A,
     2023, XX, XXXX-XXXX. DOI: 10.1021/acs.jpca.3c04382
   
   for DFT-D4:
   * E. Caldeweyher, C. Bannwarth and S. Grimme, J. Chem. Phys., 2017,
     147, 034112. DOI: 10.1063/1.4993215
   * E. Caldeweyher, S. Ehlert, A. Hansen, H. Neugebauer, S. Spicher,
     C. Bannwarth and S. Grimme, J. Chem. Phys., 2019, 150, 154122.
     DOI: 10.1063/1.5090222
   * E. Caldeweyher, J.-M. Mewes, S. Ehlert and S. Grimme, Phys. Chem. Chem. Phys.
     2020, 22, 8499-8512. DOI: 10.1039/D0CP00502A
   
   for sTDA-xTB:
   * S. Grimme and C. Bannwarth, J. Chem. Phys., 2016, 145, 054103.
     DOI: 10.1063/1.4959605
   
   in the mass-spec context:
   * V. Asgeirsson, C. Bauer and S. Grimme, Chem. Sci., 2017, 8, 4879.
     DOI: 10.1039/c7sc00601b
   * J. Koopman and S. Grimme, ACS Omega 2019, 4, 12, 15120-15133.
     DOI: 10.1021/acsomega.9b02011
   
   for metadynamics refer to:
   * S. Grimme, J. Chem. Theory Comput., 2019, 155, 2847-2862
     DOI: 10.1021/acs.jctc.9b00143
   
   for SPH calculations refer to:
   * S. Spicher and S. Grimme, J. Chem. Theory Comput., 2021, 17, 1701-1714
     DOI: 10.1021/acs.jctc.0c01306
   
   for ONIOM refer to:
   * C. Plett, A. Katbashev, S. Ehlert, S. Grimme, M. Bursch,
     Phys. Chem. Chem. Phys., 2023, 25, 17860-17868. DOI: 10.1039/D3CP02178E
   
   for DIPRO refer to:
   * J. Kohn, N. Gildemeister, S. Grimme, D. Fazzi, A. Hansen,
     J. Chem. Phys., 2023, just accepted.
   
   for PTB refer to:
   * S. Grimme, M. Mueller, A. Hansen, J. Chem. Phys., 2023, 158, 124111.
     DOI: 10.1063/5.0137838
   
   with help from (in alphabetical order)
   P. Atkinson, C. Bannwarth, F. Bohle, G. Brandenburg, E. Caldeweyher
   M. Checinski, S. Dohm, S. Ehlert, S. Ehrlich, I. Gerasimov, C. Hölzer
   A. Katbashev, J. Kohn, J. Koopman, C. Lavigne, S. Lehtola, F. März, M. Müller,
   F. Musil, H. Neugebauer, J. Pisarek, C. Plett, P. Pracht, F. Pultar,
   J. Seibert, P. Shushkov, S. Spicher, M. Stahn, M. Steiner, T. Strunk,
   J. Stückrath, T. Rose, and J. Unsleber
   
 * started run on 2026/03/12 at 12:46:01.279     
   ID    Z sym.   atoms
    1    6 C      1
    2    1 H      2-4
    3    9 F      5
    4   35 Br     6

           -------------------------------------------------
          |                Calculation Setup                |
           -------------------------------------------------

          program call               : /software/orca-6.1.0-el8-x86_64/bin/otool_xtb reactant_optfreq_XTB.xyz --grad -c -1 -u 0 -P 8 --namespace reactant_optfreq --input reactant_optfreq_XTB.input.tmp --acc 0.200000
          hostname                   : midway3-login4.rcc.local
          calculation namespace      : reactant_optfreq
          coordinate file            : reactant_optfreq_XTB.xyz
          omp threads                :                     8


molecular fragmentation (1/2 indicates fragments):
111121
# atoms in fragment 1/2:     5     1
 fragment masses (1/2) :       94.94       19.00
CMA distance (Bohr)    :   7.447
constraining FC (au)   :  0.0500

           -------------------------------------------------
          |                 G F N 2 - x T B                 |
           -------------------------------------------------

        Reference                      10.1021/acs.jctc.8b01176
      * Hamiltonian:
        H0-scaling (s, p, d)           1.850000    2.230000    2.230000
        zeta-weighting                 0.500000
      * Dispersion:
        s8                             2.700000
        a1                             0.520000
        a2                             5.000000
        s9                             5.000000
      * Repulsion:
        kExp                           1.500000    1.000000
        rExp                           1.000000
      * Coulomb:
        alpha                          2.000000
        third order                    shell-resolved
        anisotropic                    true
        a3                             3.000000
        a5                             4.000000
        cn-shift                       1.200000
        cn-exp                         4.000000
        max-rad                        5.000000


          ...................................................
          :                      SETUP                      :
          :.................................................:
          :  # basis functions                  21          :
          :  # atomic orbitals                  20          :
          :  # shells                           10          :
          :  # electrons                        22          :
          :  max. iterations                   250          :
          :  Hamiltonian                  GFN2-xTB          :
          :  restarted?                      false          :
          :  GBSA solvation                  false          :
          :  PC potential                    false          :
          :  electronic temp.          300.0000000     K    :
          :  accuracy                    0.2000000          :
          :  -> integral cutoff          0.3198970E+02      :
          :  -> integral neglect         0.2000000E-08      :
          :  -> SCF convergence          0.2000000E-06 Eh   :
          :  -> wf. convergence          0.2000000E-04 e    :
          :  Broyden damping             0.4000000          :
          :  net charge                         -1          :
          :  unpaired electrons                  0          :
          ...................................................

 iter      E             dE          RMSdq      gap      omega  full diag
   1    -12.7085202 -0.127085E+02  0.639E+00    4.47       0.0  T
   2    -12.7467967 -0.382765E-01  0.384E+00    2.51       1.0  T
   3    -12.7515993 -0.480252E-02  0.194E+00    2.99       1.0  T
   4    -12.7556648 -0.406552E-02  0.930E-01    2.71       1.0  T
   5    -12.7558208 -0.156018E-03  0.513E-01    2.94       1.0  T
   6    -12.7559029 -0.821065E-04  0.508E-01    2.60       1.0  T
   7    -12.7558631  0.398572E-04  0.344E-01    2.56       1.0  T
   8    -12.7564976 -0.634582E-03  0.240E-02    2.75       1.7  T
   9    -12.7564965  0.116449E-05  0.205E-02    2.75       2.0  T
  10    -12.7564990 -0.247702E-05  0.204E-03    2.74      20.0  T
  11    -12.7564990 -0.119805E-07  0.918E-04    2.74      44.5  T
  12    -12.7564990 -0.890061E-09  0.511E-04    2.74      80.0  T
  13    -12.7564990 -0.122274E-08  0.889E-05    2.74     459.4  T
  14    -12.7564990 -0.558664E-11  0.502E-05    2.74     812.7  T

   *** convergence criteria satisfied after 14 iterations ***

         #    Occupation            Energy/Eh            Energy/eV
      -------------------------------------------------------------
         1        2.0000           -0.6537479             -17.7894
       ...           ...                  ...                  ...
         5        2.0000           -0.3295464              -8.9674
         6        2.0000           -0.2750813              -7.4853
         7        2.0000           -0.2241421              -6.0992
         8        2.0000           -0.2240099              -6.0956
         9        2.0000           -0.1756075              -4.7785
        10        2.0000           -0.1719927              -4.6802
        11        2.0000           -0.1714612              -4.6657 (HOMO)
        12                         -0.0707077              -1.9241 (LUMO)
        13                          0.2411970               6.5633
        14                          0.2416595               6.5759
        15                          0.2479227               6.7463
        16                          0.2479635               6.7474
       ...                                ...                  ...
        20                          0.4579529              12.4615
      -------------------------------------------------------------
                  HL-Gap            0.1007535 Eh            2.7416 eV
             Fermi-level           -0.1210844 Eh           -3.2949 eV

 SCC (total)                   0 d,  0 h,  0 min,  0.068 sec
 SCC setup                      ...        0 min,  0.000 sec (  0.268%)
 Dispersion                     ...        0 min,  0.000 sec (  0.081%)
 classical contributions        ...        0 min,  0.000 sec (  0.062%)
 integral evaluation            ...        0 min,  0.065 sec ( 95.855%)
 iterations                     ...        0 min,  0.002 sec (  2.489%)
 molecular gradient             ...        0 min,  0.001 sec (  1.024%)
 printout                       ...        0 min,  0.000 sec (  0.187%)

         :::::::::::::::::::::::::::::::::::::::::::::::::::::
         ::                     SUMMARY                     ::
         :::::::::::::::::::::::::::::::::::::::::::::::::::::
         :: total energy             -12.696360497073 Eh    ::
         :: gradient norm              0.015455231958 Eh/a0 ::
         :: HOMO-LUMO gap              2.741642594901 eV    ::
         ::.................................................::
         :: SCC energy               -12.756499099845 Eh    ::
         :: -> isotropic ES            0.191707221338 Eh    ::
         :: -> anisotropic ES         -0.004392196593 Eh    ::
         :: -> anisotropic XC         -0.002441263495 Eh    ::
         :: -> dispersion             -0.002218202943 Eh    ::
         :: repulsion energy           0.060138602773 Eh    ::
         :: add. restraining           0.000000000000 Eh    ::
         :: total charge              -1.000000000000 e     ::
         :::::::::::::::::::::::::::::::::::::::::::::::::::::


Property printout bound to 'properties.out'

           -------------------------------------------------
          | TOTAL ENERGY              -12.696360497073 Eh   |
          | GRADIENT NORM               0.015455231958 Eh/α |
          | HOMO-LUMO GAP               2.741642594901 eV   |
           -------------------------------------------------

------------------------------------------------------------------------
 * finished run on 2026/03/12 at 12:46:01.371     
------------------------------------------------------------------------
 total:
 * wall-time:     0 d,  0 h,  0 min,  0.092 sec
 *  cpu-time:     0 d,  0 h,  0 min,  0.510 sec
 * ratio c/w:     5.566 speedup
 SCF:
 * wall-time:     0 d,  0 h,  0 min,  0.068 sec
 *  cpu-time:     0 d,  0 h,  0 min,  0.438 sec
 * ratio c/w:     6.429 speedup


-------------------------   --------------------
FINAL SINGLE POINT ENERGY       -12.696360497070
-------------------------   --------------------


-------------
DIPOLE MOMENT
-------------
                                X             Y             Z
Total Dipole Moment    :      0.56800       0.32800       0.27700
                        -----------------------------------------
Magnitude (a.u.)       :      0.71200
Magnitude (Debye)      :      1.80975


------------------
CARTESIAN GRADIENT
------------------

   1   C   :   -0.000740714   -0.000436005   -0.009995274
   2   H   :    0.001747079    0.000586211   -0.001394318
   3   H   :    0.001361492    0.001241227   -0.001367543
   4   H   :    0.004357680    0.002515147    0.003112298
   5   F   :   -0.005124598   -0.002977388    0.006765286
   6   Br  :   -0.001600940   -0.000929193    0.002879551

Difference to translation invariance:
           :    0.0000000000    0.0000000000   -0.0000000000

Difference to rotation invariance:
           :   -0.0000000055    0.0000000095   -0.0000000000

Norm of the Cartesian gradient     ...    0.0154552320
RMS gradient                       ...    0.0036428331
MAX gradient                       ...    0.0099952743
------------------------------------------------------------------------------
                         ORCA GEOMETRY RELAXATION STEP
------------------------------------------------------------------------------

Reading the OPT-File                    .... done
Getting information on internals        .... done
Copying old internal coords+grads       .... done
Making the new internal coordinates     .... (2022 redundants) done
Validating the new internal coordinates .... (2022 redundants) done
Calculating the B-matrix                .... done
Calculating the G,G- and P matrices     .... done
Transforming gradient to internals      .... done
Projecting the internal gradient        .... done
Number of atoms                         ....   6
Number of internal coordinates          ....  18
Current Energy                          ....   -12.696360497 Eh
Current gradient norm                   ....     0.015455232 Eh/bohr
Maximum allowed component of the step   ....  0.300
Current trust radius                    ....  0.300
Evaluating the initial hessian          ....  (Almloef) done
Projecting the Hessian                  .... done
Forming the augmented Hessian           .... done
Diagonalizing the augmented Hessian     .... done
Last element of RFO vector              ....  0.978511938
Lowest eigenvalues of augmented Hessian:
 -0.001608585  0.019618806  0.059318028  0.071279692  0.095716192
Length of the computed step             ....  0.210718096
The final length of the internal step   ....  0.210718096
Converting the step to Cartesian space:
 Initial RMS(Int)=    0.0496667315
Transforming coordinates:
 Iter   0:  RMS(Cart)=    0.0308001077 RMS(Int)=    0.0493867074
done
Storing new coordinates                 .... done

                                .--------------------.
          ----------------------|Geometry convergence|-------------------------
          Item                value                   Tolerance       Converged
          ---------------------------------------------------------------------
          RMS gradient        0.0026519059            0.0001000000      NO
          MAX gradient        0.0045203104            0.0003000000      NO
          RMS step            0.0496667315            0.0020000000      NO
          MAX step            0.1184781313            0.0040000000      NO
          -------------------------------------------------------------------------
          ........................................................
          Max(Bonds)      0.0627      Max(Angles)    2.00
          Max(Dihed)        0.00      Max(Improp)    0.00
          ---------------------------------------------------------------------

The optimization has not yet converged - more geometry cycles are needed


    ---------------------------------------------------------------------------
                         Redundant Internal Coordinates
                            (Angstroem and degrees)

        Definition                    Value    dE/dq     Step     New-Value
    ----------------------------------------------------------------------------
     1. B(H   1,C   0)                1.0722 -0.000908  0.0002    1.0724   
     2. B(H   2,C   0)                1.0721 -0.000920  0.0002    1.0723   
     3. B(H   3,C   0)                1.0611 -0.003638  0.0058    1.0669   
     4. B(F   4,C   0)                2.0822  0.004380 -0.0584    2.0238   
     5. B(F   4,H   3)                2.0399 -0.003245 -0.0133    2.0266   
     6. B(F   4,H   2)                2.2805  0.003264 -0.0624    2.2181   
     7. B(F   4,H   1)                2.2821  0.003303 -0.0627    2.2194   
     8. B(Br  5,C   0)                2.2309 -0.002762  0.0150    2.2459   
     9. A(H   1,C   0,H   3)          118.87  0.000339   -0.05    118.81   
    10. A(H   2,C   0,H   3)          118.88  0.000368   -0.06    118.82   
    11. A(H   1,C   0,Br  5)           98.63  0.002619   -0.37     98.26   
    12. A(H   2,C   0,Br  5)           98.63  0.002603   -0.37     98.26   
    13. A(H   3,C   0,Br  5)           97.45 -0.001327   -0.12     97.34   
    14. A(H   1,C   0,F   4)           86.44 -0.000103   -0.66     85.78   
    15. A(H   2,C   0,F   4)           86.35 -0.000122   -0.64     85.71   
    16. A(H   3,C   0,F   4)           72.89 -0.003193    2.00     74.88   
    17. A(F   4,C   0,Br  5)          170.34 -0.004520    1.88    172.22   
    18. A(H   1,C   0,H   2)          116.21 -0.002545    0.52    116.73   
    ----------------------------------------------------------------------------

Geometry step timings:
Preparation and reading OPT file:      0.000 s ( 2.781 %)
Internal coordinates            :      0.000 s ( 3.377 %)
B/P matrices and projection     :      0.000 s (11.457 %)
Hessian update/contruction      :      0.001 s (36.821 %)
Making the step                 :      0.000 s ( 9.139 %)
Converting the step to Cartesian:      0.000 s ( 3.444 %)
Storing new data                :      0.000 s ( 6.689 %)
Checking convergence            :      0.000 s ( 4.702 %)
Final printing                  :      0.000 s (21.391 %)
Total time                      :      0.002 s

Time for energy+gradient        :      0.102 s
Time for complete geometry iter :      0.105 s

         *************************************************************
         *                GEOMETRY OPTIMIZATION CYCLE   2            *
         *************************************************************
---------------------------------
CARTESIAN COORDINATES (ANGSTROEM)
---------------------------------
  C    -0.109917   -0.062611    0.026873
  H    -0.089954    1.001866    0.154917
  H     0.819705   -0.581312    0.155620
  H    -1.020849   -0.585801    0.213195
  F    -0.264277   -0.152273    2.042678
  Br   -0.201719   -0.116457   -2.216543

----------------------------
CARTESIAN COORDINATES (A.U.)
----------------------------
  NO LB    ZA    FRAG    MASS        X           Y           Z
   0 C   6.0000    0    12.011   -0.207713   -0.118317    0.050783
   1 H   1.0000    0     1.008   -0.169989    1.893252    0.292750
   2 H   1.0000    0     1.008    1.549017   -1.098521    0.294079
   3 H   1.0000    0     1.008   -1.929125   -1.107004    0.402880
   4 F   9.0000    0    18.998   -0.499410   -0.287754    3.860102
   5 Br 35.0000    0    79.900   -0.381194   -0.220073   -4.188660

      -----------------------------------------------------------      
     |                   =====================                   |     
     |                           x T B                           |     
     |                   =====================                   |     
     |                         S. Grimme                         |     
     |          Mulliken Center for Theoretical Chemistry        |     
     |                    University of Bonn                     |     
      -----------------------------------------------------------      

   * xtb version 6.7.1 (edcfbbe) compiled by 'albert@albert-system' on 2024-07-22

   xtb is free software: you can redistribute it and/or modify it under
   the terms of the GNU Lesser General Public License as published by
   the Free Software Foundation, either version 3 of the License, or
   (at your option) any later version.
   
   xtb is distributed in the hope that it will be useful,
   but WITHOUT ANY WARRANTY; without even the implied warranty of
   MERCHANTABILITY or FITNESS FOR A PARTICULAR PURPOSE.  See the
   GNU Lesser General Public License for more details.
   
   Cite this work as:
   * C. Bannwarth, E. Caldeweyher, S. Ehlert, A. Hansen, P. Pracht,
     J. Seibert, S. Spicher, S. Grimme, WIREs Comput. Mol. Sci., 2020, 11,
     e01493. DOI: 10.1002/wcms.1493
   
   for GFN2-xTB:
   * C. Bannwarth, S. Ehlert and S. Grimme., J. Chem. Theory Comput., 2019,
     15, 1652-1671. DOI: 10.1021/acs.jctc.8b01176
   for GFN1-xTB:
   * S. Grimme, C. Bannwarth, P. Shushkov, J. Chem. Theory Comput., 2017,
     13, 1989-2009. DOI: 10.1021/acs.jctc.7b00118
   for GFN0-xTB:
   * P. Pracht, E. Caldeweyher, S. Ehlert, S. Grimme, ChemRxiv, 2019, preprint.
     DOI: 10.26434/chemrxiv.8326202.v1
   for GFN-FF:
   * S. Spicher and S. Grimme, Angew. Chem. Int. Ed., 2020, 59, 15665-15673.
     DOI: 10.1002/anie.202004239
   
   for ALPB and GBSA implicit solvation:
   * S. Ehlert, M. Stahn, S. Spicher, S. Grimme, J. Chem. Theory Comput.,
     2021, 17, 4250-4261. DOI: 10.1021/acs.jctc.1c00471
   
   for ddCOSMO and CPCM-X implicit solvation:
   * M. Stahn, S. Ehlert, S. Grimme, J. Phys. Chem. A,
     2023, XX, XXXX-XXXX. DOI: 10.1021/acs.jpca.3c04382
   
   for DFT-D4:
   * E. Caldeweyher, C. Bannwarth and S. Grimme, J. Chem. Phys., 2017,
     147, 034112. DOI: 10.1063/1.4993215
   * E. Caldeweyher, S. Ehlert, A. Hansen, H. Neugebauer, S. Spicher,
     C. Bannwarth and S. Grimme, J. Chem. Phys., 2019, 150, 154122.
     DOI: 10.1063/1.5090222
   * E. Caldeweyher, J.-M. Mewes, S. Ehlert and S. Grimme, Phys. Chem. Chem. Phys.
     2020, 22, 8499-8512. DOI: 10.1039/D0CP00502A
   
   for sTDA-xTB:
   * S. Grimme and C. Bannwarth, J. Chem. Phys., 2016, 145, 054103.
     DOI: 10.1063/1.4959605
   
   in the mass-spec context:
   * V. Asgeirsson, C. Bauer and S. Grimme, Chem. Sci., 2017, 8, 4879.
     DOI: 10.1039/c7sc00601b
   * J. Koopman and S. Grimme, ACS Omega 2019, 4, 12, 15120-15133.
     DOI: 10.1021/acsomega.9b02011
   
   for metadynamics refer to:
   * S. Grimme, J. Chem. Theory Comput., 2019, 155, 2847-2862
     DOI: 10.1021/acs.jctc.9b00143
   
   for SPH calculations refer to:
   * S. Spicher and S. Grimme, J. Chem. Theory Comput., 2021, 17, 1701-1714
     DOI: 10.1021/acs.jctc.0c01306
   
   for ONIOM refer to:
   * C. Plett, A. Katbashev, S. Ehlert, S. Grimme, M. Bursch,
     Phys. Chem. Chem. Phys., 2023, 25, 17860-17868. DOI: 10.1039/D3CP02178E
   
   for DIPRO refer to:
   * J. Kohn, N. Gildemeister, S. Grimme, D. Fazzi, A. Hansen,
     J. Chem. Phys., 2023, just accepted.
   
   for PTB refer to:
   * S. Grimme, M. Mueller, A. Hansen, J. Chem. Phys., 2023, 158, 124111.
     DOI: 10.1063/5.0137838
   
   with help from (in alphabetical order)
   P. Atkinson, C. Bannwarth, F. Bohle, G. Brandenburg, E. Caldeweyher
   M. Checinski, S. Dohm, S. Ehlert, S. Ehrlich, I. Gerasimov, C. Hölzer
   A. Katbashev, J. Kohn, J. Koopman, C. Lavigne, S. Lehtola, F. März, M. Müller,
   F. Musil, H. Neugebauer, J. Pisarek, C. Plett, P. Pracht, F. Pultar,
   J. Seibert, P. Shushkov, S. Spicher, M. Stahn, M. Steiner, T. Strunk,
   J. Stückrath, T. Rose, and J. Unsleber
   
 * started run on 2026/03/12 at 12:46:01.384     
   ID    Z sym.   atoms
    1    6 C      1
    2    1 H      2-4
    3    9 F      5
    4   35 Br     6

           -------------------------------------------------
          |                Calculation Setup                |
           -------------------------------------------------

          program call               : /software/orca-6.1.0-el8-x86_64/bin/otool_xtb reactant_optfreq_XTB.xyz --grad -c -1 -u 0 -P 8 --namespace reactant_optfreq --input reactant_optfreq_XTB.input.tmp --acc 0.200000
          hostname                   : midway3-login4.rcc.local
          calculation namespace      : reactant_optfreq
          coordinate file            : reactant_optfreq_XTB.xyz
          omp threads                :                     8


molecular fragmentation (1/2 indicates fragments):
111121
# atoms in fragment 1/2:     5     1
 fragment masses (1/2) :       94.94       19.00
CMA distance (Bohr)    :   7.370
constraining FC (au)   :  0.0500

           -------------------------------------------------
          |                 G F N 2 - x T B                 |
           -------------------------------------------------

        Reference                      10.1021/acs.jctc.8b01176
      * Hamiltonian:
        H0-scaling (s, p, d)           1.850000    2.230000    2.230000
        zeta-weighting                 0.500000
      * Dispersion:
        s8                             2.700000
        a1                             0.520000
        a2                             5.000000
        s9                             5.000000
      * Repulsion:
        kExp                           1.500000    1.000000
        rExp                           1.000000
      * Coulomb:
        alpha                          2.000000
        third order                    shell-resolved
        anisotropic                    true
        a3                             3.000000
        a5                             4.000000
        cn-shift                       1.200000
        cn-exp                         4.000000
        max-rad                        5.000000

q/qsh data taken from xtbrestart
CAMM data taken from xtbrestart

          ...................................................
          :                      SETUP                      :
          :.................................................:
          :  # basis functions                  21          :
          :  # atomic orbitals                  20          :
          :  # shells                           10          :
          :  # electrons                        22          :
          :  max. iterations                   250          :
          :  Hamiltonian                  GFN2-xTB          :
          :  restarted?                       true          :
          :  GBSA solvation                  false          :
          :  PC potential                    false          :
          :  electronic temp.          300.0000000     K    :
          :  accuracy                    0.2000000          :
          :  -> integral cutoff          0.3198970E+02      :
          :  -> integral neglect         0.2000000E-08      :
          :  -> SCF convergence          0.2000000E-06 Eh   :
          :  -> wf. convergence          0.2000000E-04 e    :
          :  Broyden damping             0.4000000          :
          :  net charge                         -1          :
          :  unpaired electrons                  0          :
          ...................................................

 iter      E             dE          RMSdq      gap      omega  full diag
   1    -12.7562536 -0.127563E+02  0.445E-01    2.89       0.0  T
   2    -12.7569360 -0.682395E-03  0.143E-01    3.12       1.0  T
   3    -12.7569649 -0.288631E-04  0.658E-02    3.07       1.0  T
   4    -12.7569639  0.103543E-05  0.390E-02    3.09       1.0  T
   5    -12.7569664 -0.252558E-05  0.158E-02    3.08       2.6  T
   6    -12.7569665 -0.153588E-06  0.788E-03    3.08       5.2  T
   7    -12.7569666 -0.393891E-07  0.390E-03    3.08      10.5  T
   8    -12.7569666 -0.549127E-07  0.665E-04    3.08      61.4  T
   9    -12.7569666 -0.361686E-09  0.145E-04    3.08     282.4  T
  10    -12.7569666 -0.458833E-11  0.989E-05    3.08     412.6  T

   *** convergence criteria satisfied after 10 iterations ***

         #    Occupation            Energy/Eh            Energy/eV
      -------------------------------------------------------------
         1        2.0000           -0.6487464             -17.6533
       ...           ...                  ...                  ...
         5        2.0000           -0.3283112              -8.9338
         6        2.0000           -0.2718232              -7.3967
         7        2.0000           -0.2195826              -5.9751
         8        2.0000           -0.2194517              -5.9716
         9        2.0000           -0.1823038              -4.9607
        10        2.0000           -0.1798677              -4.8944
        11        2.0000           -0.1791207              -4.8741 (HOMO)
        12                         -0.0659927              -1.7958 (LUMO)
        13                          0.2472480               6.7280
        14                          0.2475779               6.7369
        15                          0.2534470               6.8966
        16                          0.2534574               6.8969
       ...                                ...                  ...
        20                          0.4495052              12.2317
      -------------------------------------------------------------
                  HL-Gap            0.1131280 Eh            3.0784 eV
             Fermi-level           -0.1225567 Eh           -3.3349 eV

 SCC (total)                   0 d,  0 h,  0 min,  0.152 sec
 SCC setup                      ...        0 min,  0.000 sec (  0.162%)
 Dispersion                     ...        0 min,  0.000 sec (  0.041%)
 classical contributions        ...        0 min,  0.000 sec (  0.025%)
 integral evaluation            ...        0 min,  0.089 sec ( 58.850%)
 iterations                     ...        0 min,  0.061 sec ( 40.204%)
 molecular gradient             ...        0 min,  0.001 sec (  0.587%)
 printout                       ...        0 min,  0.000 sec (  0.112%)

         :::::::::::::::::::::::::::::::::::::::::::::::::::::
         ::                     SUMMARY                     ::
         :::::::::::::::::::::::::::::::::::::::::::::::::::::
         :: total energy             -12.697835886912 Eh    ::
         :: gradient norm              0.017977600354 Eh/a0 ::
         :: HOMO-LUMO gap              3.078369007169 eV    ::
         ::.................................................::
         :: SCC energy               -12.756966753945 Eh    ::
         :: -> isotropic ES            0.188463748895 Eh    ::
         :: -> anisotropic ES         -0.004375623279 Eh    ::
         :: -> anisotropic XC         -0.002225525430 Eh    ::
         :: -> dispersion             -0.002220684964 Eh    ::
         :: repulsion energy           0.059130867034 Eh    ::
         :: add. restraining           0.000000000000 Eh    ::
         :: total charge              -1.000000000000 e     ::
         :::::::::::::::::::::::::::::::::::::::::::::::::::::


Property printout bound to 'properties.out'

           -------------------------------------------------
          | TOTAL ENERGY              -12.697835886912 Eh   |
          | GRADIENT NORM               0.017977600354 Eh/α |
          | HOMO-LUMO GAP               3.078369007169 eV   |
           -------------------------------------------------

------------------------------------------------------------------------
 * finished run on 2026/03/12 at 12:46:01.555     
------------------------------------------------------------------------
 total:
 * wall-time:     0 d,  0 h,  0 min,  0.170 sec
 *  cpu-time:     0 d,  0 h,  0 min,  0.545 sec
 * ratio c/w:     3.198 speedup
 SCF:
 * wall-time:     0 d,  0 h,  0 min,  0.152 sec
 *  cpu-time:     0 d,  0 h,  0 min,  0.458 sec
 * ratio c/w:     3.009 speedup


-------------------------   --------------------
FINAL SINGLE POINT ENERGY       -12.697835886910
-------------------------   --------------------


-------------
DIPOLE MOMENT
-------------
                                X             Y             Z
Total Dipole Moment    :      0.50400       0.29100       0.47000
                        -----------------------------------------
Magnitude (a.u.)       :      0.74806
Magnitude (Debye)      :      1.90142


------------------
CARTESIAN GRADIENT
------------------

   1   C   :    0.001771735    0.001029755   -0.014588459
   2   H   :    0.001433185    0.000890323    0.000361496
   3   H   :    0.001481887    0.000804652    0.000394444
   4   H   :    0.001334461    0.000775919    0.005765475
   5   F   :   -0.004700015   -0.002732894    0.004297121
   6   Br  :   -0.001321253   -0.000767756    0.003769922

Difference to translation invariance:
           :    0.0000000000   -0.0000000000    0.0000000000

Difference to rotation invariance:
           :   -0.0000002108    0.0000003634   -0.0000000001

Norm of the Cartesian gradient     ...    0.0179776004
RMS gradient                       ...    0.0042373610
MAX gradient                       ...    0.0145884591
------------------------------------------------------------------------------
                         ORCA GEOMETRY RELAXATION STEP
------------------------------------------------------------------------------

Reading the OPT-File                    .... done
Getting information on internals        .... done
Copying old internal coords+grads       .... done
Making the new internal coordinates     .... (2022 redundants) done
Validating the new internal coordinates .... (2022 redundants) done
Calculating the B-matrix                .... done
Calculating the G,G- and P matrices     .... done
Transforming gradient to internals      .... done
Projecting the internal gradient        .... done
Number of atoms                         ....   6
Number of internal coordinates          ....  18
Current Energy                          ....   -12.697835887 Eh
Current gradient norm                   ....     0.017977600 Eh/bohr
Maximum allowed component of the step   ....  0.300
Current trust radius                    ....  0.300
Updating the Hessian (BFGS)             .... done
Forming the augmented Hessian           .... done
Diagonalizing the augmented Hessian     .... done
Last element of RFO vector              ....  0.827073746
Lowest eigenvalues of augmented Hessian:
 -0.005403773  0.009388906  0.047221967  0.059318235  0.096030135
Length of the computed step             ....  0.679617058
Warning: the length of the step is outside the trust region - taking restricted step instead
The input lambda is                     ....     0.003852
   iter:   5  x=   -0.002562  g=  752.689250 f(x)=     1.808950
   iter:  10  x=   -0.019079  g=    8.074310 f(x)=     0.008070
The output lambda is                    ....    -0.019148 (14 iterations)
The final length of the internal step   ....  0.300000000
Converting the step to Cartesian space:
 Initial RMS(Int)=    0.0707106781
Transforming coordinates:
 Iter   0:  RMS(Cart)=    0.0535438626 RMS(Int)=    0.0699436199
done
Storing new coordinates                 .... done
The predicted energy change is          ....    -0.002175752
Previously predicted energy change      ....    -0.000840005
Actually observed energy change         ....    -0.001475390
Ratio of predicted to observed change   ....     1.756406819
New trust radius                        ....     0.200000000

                                .--------------------.
          ----------------------|Geometry convergence|-------------------------
          Item                value                   Tolerance       Converged
          ---------------------------------------------------------------------
          Energy change      -0.0014753898            0.0000050000      NO
          RMS gradient        0.0025885964            0.0001000000      NO
          MAX gradient        0.0043856627            0.0003000000      NO
          RMS step            0.0707106781            0.0020000000      NO
          MAX step            0.1511489659            0.0040000000      NO
          -------------------------------------------------------------------------
          ........................................................
          Max(Bonds)      0.0800      Max(Angles)    4.95
          Max(Dihed)        0.00      Max(Improp)    0.00
          ---------------------------------------------------------------------

The optimization has not yet converged - more geometry cycles are needed


    ---------------------------------------------------------------------------
                         Redundant Internal Coordinates
                            (Angstroem and degrees)

        Definition                    Value    dE/dq     Step     New-Value
    ----------------------------------------------------------------------------
     1. B(H   1,C   0)                1.0723  0.000033 -0.0002    1.0721   
     2. B(H   2,C   0)                1.0723  0.000041 -0.0002    1.0721   
     3. B(H   3,C   0)                1.0669  0.000558  0.0063    1.0732   
     4. B(F   4,C   0)                2.0237  0.004386 -0.0758    1.9479   
     5. B(F   4,H   3)                2.0267 -0.004027  0.0254    2.0520   
     6. B(F   4,H   2)                2.2181  0.002173 -0.0794    2.1387   
     7. B(F   4,H   1)                2.2195  0.002212 -0.0800    2.1395   
     8. B(Br  5,C   0)                2.2459 -0.003693  0.0421    2.2880   
     9. A(H   1,C   0,H   3)          118.81 -0.000123    0.15    118.96   
    10. A(H   2,C   0,H   3)          118.82 -0.000100    0.14    118.96   
    11. A(H   1,C   0,Br  5)           98.27  0.003126   -1.49     96.78   
    12. A(H   2,C   0,Br  5)           98.27  0.003111   -1.49     96.77   
    13. A(H   3,C   0,Br  5)           97.34  0.000017   -0.76     96.58   
    14. A(H   1,C   0,F   4)           85.78 -0.000893   -0.78     85.00   
    15. A(H   2,C   0,F   4)           85.70 -0.000914   -0.75     84.96   
    16. A(H   3,C   0,F   4)           74.88 -0.004092    4.95     79.83   
    17. A(F   4,C   0,Br  5)          172.22 -0.004075    4.18    176.41   
    18. A(H   1,C   0,H   2)          116.72 -0.002671    1.49    118.22   
    ----------------------------------------------------------------------------

Geometry step timings:
Preparation and reading OPT file:      0.000 s ( 2.514 %)
Internal coordinates            :      0.000 s ( 3.163 %)
B/P matrices and projection     :      0.000 s (12.247 %)
Hessian update/contruction      :      0.000 s (31.062 %)
Making the step                 :      0.000 s (12.814 %)
Converting the step to Cartesian:      0.000 s ( 3.082 %)
Storing new data                :      0.000 s ( 6.326 %)
Checking convergence            :      0.000 s ( 7.137 %)
Final printing                  :      0.000 s (21.573 %)
Total time                      :      0.001 s

Time for energy+gradient        :      0.181 s
Time for complete geometry iter :      0.183 s

         *************************************************************
         *                GEOMETRY OPTIMIZATION CYCLE   3            *
         *************************************************************
---------------------------------
CARTESIAN COORDINATES (ANGSTROEM)
---------------------------------
  C    -0.128090   -0.073153    0.056952
  H    -0.119463    0.992468    0.173529
  H     0.796825   -0.602363    0.174009
  H    -1.050399   -0.602992    0.200203
  F    -0.200042   -0.114929    2.002695
  Br   -0.165842   -0.095620   -2.230649

----------------------------
CARTESIAN COORDINATES (A.U.)
----------------------------
  NO LB    ZA    FRAG    MASS        X           Y           Z
   0 C   6.0000    0    12.011   -0.242054   -0.138239    0.107624
   1 H   1.0000    0     1.008   -0.225752    1.875493    0.327922
   2 H   1.0000    0     1.008    1.505780   -1.138301    0.328830
   3 H   1.0000    0     1.008   -1.984966   -1.139490    0.378328
   4 F   9.0000    0    18.998   -0.378024   -0.217184    3.784545
   5 Br 35.0000    0    79.900   -0.313397   -0.180696   -4.215315

      -----------------------------------------------------------      
     |                   =====================                   |     
     |                           x T B                           |     
     |                   =====================                   |     
     |                         S. Grimme                         |     
     |          Mulliken Center for Theoretical Chemistry        |     
     |                    University of Bonn                     |     
      -----------------------------------------------------------      

   * xtb version 6.7.1 (edcfbbe) compiled by 'albert@albert-system' on 2024-07-22

   xtb is free software: you can redistribute it and/or modify it under
   the terms of the GNU Lesser General Public License as published by
   the Free Software Foundation, either version 3 of the License, or
   (at your option) any later version.
   
   xtb is distributed in the hope that it will be useful,
   but WITHOUT ANY WARRANTY; without even the implied warranty of
   MERCHANTABILITY or FITNESS FOR A PARTICULAR PURPOSE.  See the
   GNU Lesser General Public License for more details.
   
   Cite this work as:
   * C. Bannwarth, E. Caldeweyher, S. Ehlert, A. Hansen, P. Pracht,
     J. Seibert, S. Spicher, S. Grimme, WIREs Comput. Mol. Sci., 2020, 11,
     e01493. DOI: 10.1002/wcms.1493
   
   for GFN2-xTB:
   * C. Bannwarth, S. Ehlert and S. Grimme., J. Chem. Theory Comput., 2019,
     15, 1652-1671. DOI: 10.1021/acs.jctc.8b01176
   for GFN1-xTB:
   * S. Grimme, C. Bannwarth, P. Shushkov, J. Chem. Theory Comput., 2017,
     13, 1989-2009. DOI: 10.1021/acs.jctc.7b00118
   for GFN0-xTB:
   * P. Pracht, E. Caldeweyher, S. Ehlert, S. Grimme, ChemRxiv, 2019, preprint.
     DOI: 10.26434/chemrxiv.8326202.v1
   for GFN-FF:
   * S. Spicher and S. Grimme, Angew. Chem. Int. Ed., 2020, 59, 15665-15673.
     DOI: 10.1002/anie.202004239
   
   for ALPB and GBSA implicit solvation:
   * S. Ehlert, M. Stahn, S. Spicher, S. Grimme, J. Chem. Theory Comput.,
     2021, 17, 4250-4261. DOI: 10.1021/acs.jctc.1c00471
   
   for ddCOSMO and CPCM-X implicit solvation:
   * M. Stahn, S. Ehlert, S. Grimme, J. Phys. Chem. A,
     2023, XX, XXXX-XXXX. DOI: 10.1021/acs.jpca.3c04382
   
   for DFT-D4:
   * E. Caldeweyher, C. Bannwarth and S. Grimme, J. Chem. Phys., 2017,
     147, 034112. DOI: 10.1063/1.4993215
   * E. Caldeweyher, S. Ehlert, A. Hansen, H. Neugebauer, S. Spicher,
     C. Bannwarth and S. Grimme, J. Chem. Phys., 2019, 150, 154122.
     DOI: 10.1063/1.5090222
   * E. Caldeweyher, J.-M. Mewes, S. Ehlert and S. Grimme, Phys. Chem. Chem. Phys.
     2020, 22, 8499-8512. DOI: 10.1039/D0CP00502A
   
   for sTDA-xTB:
   * S. Grimme and C. Bannwarth, J. Chem. Phys., 2016, 145, 054103.
     DOI: 10.1063/1.4959605
   
   in the mass-spec context:
   * V. Asgeirsson, C. Bauer and S. Grimme, Chem. Sci., 2017, 8, 4879.
     DOI: 10.1039/c7sc00601b
   * J. Koopman and S. Grimme, ACS Omega 2019, 4, 12, 15120-15133.
     DOI: 10.1021/acsomega.9b02011
   
   for metadynamics refer to:
   * S. Grimme, J. Chem. Theory Comput., 2019, 155, 2847-2862
     DOI: 10.1021/acs.jctc.9b00143
   
   for SPH calculations refer to:
   * S. Spicher and S. Grimme, J. Chem. Theory Comput., 2021, 17, 1701-1714
     DOI: 10.1021/acs.jctc.0c01306
   
   for ONIOM refer to:
   * C. Plett, A. Katbashev, S. Ehlert, S. Grimme, M. Bursch,
     Phys. Chem. Chem. Phys., 2023, 25, 17860-17868. DOI: 10.1039/D3CP02178E
   
   for DIPRO refer to:
   * J. Kohn, N. Gildemeister, S. Grimme, D. Fazzi, A. Hansen,
     J. Chem. Phys., 2023, just accepted.
   
   for PTB refer to:
   * S. Grimme, M. Mueller, A. Hansen, J. Chem. Phys., 2023, 158, 124111.
     DOI: 10.1063/5.0137838
   
   with help from (in alphabetical order)
   P. Atkinson, C. Bannwarth, F. Bohle, G. Brandenburg, E. Caldeweyher
   M. Checinski, S. Dohm, S. Ehlert, S. Ehrlich, I. Gerasimov, C. Hölzer
   A. Katbashev, J. Kohn, J. Koopman, C. Lavigne, S. Lehtola, F. März, M. Müller,
   F. Musil, H. Neugebauer, J. Pisarek, C. Plett, P. Pracht, F. Pultar,
   J. Seibert, P. Shushkov, S. Spicher, M. Stahn, M. Steiner, T. Strunk,
   J. Stückrath, T. Rose, and J. Unsleber
   
 * started run on 2026/03/12 at 12:46:01.567     
   ID    Z sym.   atoms
    1    6 C      1
    2    1 H      2-4
    3    9 F      5
    4   35 Br     6

           -------------------------------------------------
          |                Calculation Setup                |
           -------------------------------------------------

          program call               : /software/orca-6.1.0-el8-x86_64/bin/otool_xtb reactant_optfreq_XTB.xyz --grad -c -1 -u 0 -P 8 --namespace reactant_optfreq --input reactant_optfreq_XTB.input.tmp --acc 0.200000
          hostname                   : midway3-login4.rcc.local
          calculation namespace      : reactant_optfreq
          coordinate file            : reactant_optfreq_XTB.xyz
          omp threads                :                     8


molecular fragmentation (1/2 indicates fragments):
111121
# atoms in fragment 1/2:     5     1
 fragment masses (1/2) :       94.94       19.00
CMA distance (Bohr)    :   7.308
constraining FC (au)   :  0.0500

           -------------------------------------------------
          |                 G F N 2 - x T B                 |
           -------------------------------------------------

        Reference                      10.1021/acs.jctc.8b01176
      * Hamiltonian:
        H0-scaling (s, p, d)           1.850000    2.230000    2.230000
        zeta-weighting                 0.500000
      * Dispersion:
        s8                             2.700000
        a1                             0.520000
        a2                             5.000000
        s9                             5.000000
      * Repulsion:
        kExp                           1.500000    1.000000
        rExp                           1.000000
      * Coulomb:
        alpha                          2.000000
        third order                    shell-resolved
        anisotropic                    true
        a3                             3.000000
        a5                             4.000000
        cn-shift                       1.200000
        cn-exp                         4.000000
        max-rad                        5.000000

q/qsh data taken from xtbrestart
CAMM data taken from xtbrestart

          ...................................................
          :                      SETUP                      :
          :.................................................:
          :  # basis functions                  21          :
          :  # atomic orbitals                  20          :
          :  # shells                           10          :
          :  # electrons                        22          :
          :  max. iterations                   250          :
          :  Hamiltonian                  GFN2-xTB          :
          :  restarted?                       true          :
          :  GBSA solvation                  false          :
          :  PC potential                    false          :
          :  electronic temp.          300.0000000     K    :
          :  accuracy                    0.2000000          :
          :  -> integral cutoff          0.3198970E+02      :
          :  -> integral neglect         0.2000000E-08      :
          :  -> SCF convergence          0.2000000E-06 Eh   :
          :  -> wf. convergence          0.2000000E-04 e    :
          :  Broyden damping             0.4000000          :
          :  net charge                         -1          :
          :  unpaired electrons                  0          :
          ...................................................

 iter      E             dE          RMSdq      gap      omega  full diag
   1    -12.7561727 -0.127562E+02  0.793E-01    3.26       0.0  T
   2    -12.7582702 -0.209754E-02  0.229E-01    3.58       1.0  T
   3    -12.7583252 -0.549715E-04  0.125E-01    3.53       1.0  T
   4    -12.7583243  0.932110E-06  0.862E-02    3.55       1.0  T
   5    -12.7583332 -0.898756E-05  0.431E-02    3.54       1.0  T
   6    -12.7583348 -0.157231E-05  0.147E-02    3.55       2.8  T
   7    -12.7583350 -0.183095E-06  0.720E-03    3.54       5.7  T
   8    -12.7583352 -0.163927E-06  0.875E-04    3.55      46.7  T
   9    -12.7583352 -0.548646E-09  0.228E-04    3.54     178.8  T
  10    -12.7583352 -0.204601E-10  0.143E-04    3.55     285.1  T
  11    -12.7583352 -0.119922E-10  0.580E-05    3.55     703.7  T

   *** convergence criteria satisfied after 11 iterations ***

         #    Occupation            Energy/Eh            Energy/eV
      -------------------------------------------------------------
         1        2.0000           -0.6399034             -17.4127
       ...           ...                  ...                  ...
         5        2.0000           -0.3283040              -8.9336
         6        2.0000           -0.2678159              -7.2876
         7        2.0000           -0.2119058              -5.7663
         8        2.0000           -0.2118249              -5.7641
         9        2.0000           -0.1940304              -5.2798
        10        2.0000           -0.1940254              -5.2797
        11        2.0000           -0.1919345              -5.2228 (HOMO)
        12                         -0.0616576              -1.6778 (LUMO)
        13                          0.2581553               7.0248
        14                          0.2582273               7.0267
        15                          0.2628145               7.1515
        16                          0.2628364               7.1521
       ...                                ...                  ...
        20                          0.4388483              11.9417
      -------------------------------------------------------------
                  HL-Gap            0.1302769 Eh            3.5450 eV
             Fermi-level           -0.1267960 Eh           -3.4503 eV

 SCC (total)                   0 d,  0 h,  0 min,  0.097 sec
 SCC setup                      ...        0 min,  0.000 sec (  0.285%)
 Dispersion                     ...        0 min,  0.000 sec (  0.064%)
 classical contributions        ...        0 min,  0.000 sec (  0.046%)
 integral evaluation            ...        0 min,  0.094 sec ( 97.373%)
 iterations                     ...        0 min,  0.001 sec (  1.537%)
 molecular gradient             ...        0 min,  0.001 sec (  0.544%)
 printout                       ...        0 min,  0.000 sec (  0.125%)

         :::::::::::::::::::::::::::::::::::::::::::::::::::::
         ::                     SUMMARY                     ::
         :::::::::::::::::::::::::::::::::::::::::::::::::::::
         :: total energy             -12.700200952337 Eh    ::
         :: gradient norm              0.022996630300 Eh/a0 ::
         :: HOMO-LUMO gap              3.545014989373 eV    ::
         ::.................................................::
         :: SCC energy               -12.758335269348 Eh    ::
         :: -> isotropic ES            0.183053406535 Eh    ::
         :: -> anisotropic ES         -0.003903626112 Eh    ::
         :: -> anisotropic XC         -0.001402195818 Eh    ::
         :: -> dispersion             -0.002212354624 Eh    ::
         :: repulsion energy           0.058134317011 Eh    ::
         :: add. restraining           0.000000000000 Eh    ::
         :: total charge              -1.000000000000 e     ::
         :::::::::::::::::::::::::::::::::::::::::::::::::::::


Property printout bound to 'properties.out'

           -------------------------------------------------
          | TOTAL ENERGY              -12.700200952337 Eh   |
          | GRADIENT NORM               0.022996630300 Eh/α |
          | HOMO-LUMO GAP               3.545014989373 eV   |
           -------------------------------------------------

------------------------------------------------------------------------
 * finished run on 2026/03/12 at 12:46:01.687     
------------------------------------------------------------------------
 total:
 * wall-time:     0 d,  0 h,  0 min,  0.120 sec
 *  cpu-time:     0 d,  0 h,  0 min,  0.514 sec
 * ratio c/w:     4.282 speedup
 SCF:
 * wall-time:     0 d,  0 h,  0 min,  0.097 sec
 *  cpu-time:     0 d,  0 h,  0 min,  0.443 sec
 * ratio c/w:     4.566 speedup


-------------------------   --------------------
FINAL SINGLE POINT ENERGY       -12.700200952340
-------------------------   --------------------


-------------
DIPOLE MOMENT
-------------
                                X             Y             Z
Total Dipole Moment    :      0.37100       0.21400       0.76900
                        -----------------------------------------
Magnitude (a.u.)       :      0.88023
Magnitude (Debye)      :      2.23736


------------------
CARTESIAN GRADIENT
------------------

   1   C   :    0.003230730    0.001888856   -0.020123993
   2   H   :    0.000544751    0.001202040    0.003028771
   3   H   :    0.001318301   -0.000136624    0.003058027
   4   H   :   -0.001940238   -0.001112946    0.006847017
   5   F   :   -0.002595862   -0.001515446    0.003022874
   6   Br  :   -0.000557682   -0.000325880    0.004167305

Difference to translation invariance:
           :    0.0000000000    0.0000000000    0.0000000000

Difference to rotation invariance:
           :   -0.0000001241    0.0000002140   -0.0000000001

Norm of the Cartesian gradient     ...    0.0229966303
RMS gradient                       ...    0.0054203577
MAX gradient                       ...    0.0201239932
------------------------------------------------------------------------------
                         ORCA GEOMETRY RELAXATION STEP
------------------------------------------------------------------------------

Reading the OPT-File                    .... done
Getting information on internals        .... done
Copying old internal coords+grads       .... done
Making the new internal coordinates     .... (2022 redundants) done
Validating the new internal coordinates .... (2022 redundants) done
Calculating the B-matrix                .... done
Calculating the G,G- and P matrices     .... done
Transforming gradient to internals      .... done
Projecting the internal gradient        .... done
Number of atoms                         ....   6
Number of internal coordinates          ....  18
Current Energy                          ....   -12.700200952 Eh
Current gradient norm                   ....     0.022996630 Eh/bohr
Maximum allowed component of the step   ....  0.300
Current trust radius                    ....  0.200
Updating the Hessian (BFGS)             .... done
Forming the augmented Hessian           .... done
Diagonalizing the augmented Hessian     .... done
Last element of RFO vector              ....  0.833572835
Lowest eigenvalues of augmented Hessian:
 -0.005364400  0.009607834  0.029257764  0.059318160  0.095009871
Length of the computed step             ....  0.662701017
Warning: the length of the step is outside the trust region - taking restricted step instead
The input lambda is                     ....     0.004272
   iter:   5  x=   -0.002284  g=  739.144894 f(x)=     1.849237
   iter:  10  x=   -0.030562  g=    3.595263 f(x)=     0.018944
   iter:  15  x=   -0.032388  g=    1.965528 f(x)=     0.000000
The output lambda is                    ....    -0.032388 (15 iterations)
The final length of the internal step   ....  0.200000000
Converting the step to Cartesian space:
 Initial RMS(Int)=    0.0471404521
Transforming coordinates:
 Iter   0:  RMS(Cart)=    0.0376550608 RMS(Int)=    0.0468556714
done
Storing new coordinates                 .... done
The predicted energy change is          ....    -0.001578741
Previously predicted energy change      ....    -0.002175752
Actually observed energy change         ....    -0.002365065
Ratio of predicted to observed change   ....     1.087010568
New trust radius                        ....     0.300000000

                                .--------------------.
          ----------------------|Geometry convergence|-------------------------
          Item                value                   Tolerance       Converged
          ---------------------------------------------------------------------
          Energy change      -0.0023650654            0.0000050000      NO
          RMS gradient        0.0028695359            0.0001000000      NO
          MAX gradient        0.0050178296            0.0003000000      NO
          RMS step            0.0471404521            0.0020000000      NO
          MAX step            0.0912504110            0.0040000000      NO
          -------------------------------------------------------------------------
          ........................................................
          Max(Bonds)      0.0483      Max(Angles)    4.24
          Max(Dihed)        0.00      Max(Improp)    0.00
          ---------------------------------------------------------------------

The optimization has not yet converged - more geometry cycles are needed


    ---------------------------------------------------------------------------
                         Redundant Internal Coordinates
                            (Angstroem and degrees)

        Definition                    Value    dE/dq     Step     New-Value
    ----------------------------------------------------------------------------
     1. B(H   1,C   0)                1.0720  0.001358 -0.0009    1.0712   
     2. B(H   2,C   0)                1.0720  0.001379 -0.0008    1.0712   
     3. B(H   3,C   0)                1.0733  0.004190  0.0013    1.0746   
     4. B(F   4,C   0)                1.9475  0.005018 -0.0483    1.8992   
     5. B(F   4,H   3)                2.0519 -0.002973  0.0344    2.0863   
     6. B(F   4,H   2)                2.1390  0.000378 -0.0361    2.1029   
     7. B(F   4,H   1)                2.1398  0.000406 -0.0366    2.1032   
     8. B(Br  5,C   0)                2.2880 -0.004154  0.0407    2.3287   
     9. A(H   1,C   0,H   3)          118.89 -0.000912    0.37    119.26   
    10. A(H   2,C   0,H   3)          118.89 -0.000908    0.37    119.26   
    11. A(H   1,C   0,Br  5)           96.81  0.003558   -1.98     94.84   
    12. A(H   2,C   0,Br  5)           96.81  0.003548   -1.97     94.84   
    13. A(H   3,C   0,Br  5)           96.57  0.002533   -1.09     95.48   
    14. A(H   1,C   0,F   4)           85.01 -0.002458    0.32     85.33   
    15. A(H   2,C   0,F   4)           84.96 -0.002477    0.35     85.31   
    16. A(H   3,C   0,F   4)           79.88 -0.004626    4.24     84.12   
    17. A(F   4,C   0,Br  5)          176.45 -0.002093    3.15    179.60   
    18. A(H   1,C   0,H   2)          118.16 -0.002013    1.49    119.64   
    ----------------------------------------------------------------------------

Geometry step timings:
Preparation and reading OPT file:      0.000 s ( 2.750 %)
Internal coordinates            :      0.000 s ( 4.917 %)
B/P matrices and projection     :      0.000 s (14.833 %)
Hessian update/contruction      :      0.000 s (26.583 %)
Making the step                 :      0.000 s (13.583 %)
Converting the step to Cartesian:      0.000 s ( 2.667 %)
Storing new data                :      0.000 s ( 6.250 %)
Checking convergence            :      0.000 s ( 7.333 %)
Final printing                  :      0.000 s (21.083 %)
Total time                      :      0.001 s

Time for energy+gradient        :      0.129 s
Time for complete geometry iter :      0.132 s

         *************************************************************
         *                GEOMETRY OPTIMIZATION CYCLE   4            *
         *************************************************************
---------------------------------
CARTESIAN COORDINATES (ANGSTROEM)
---------------------------------
  C    -0.142064   -0.081274    0.087327
  H    -0.141789    0.985919    0.178335
  H     0.779992   -0.618576    0.178673
  H    -1.069915   -0.614377    0.187291
  F    -0.154831   -0.088615    1.986496
  Br   -0.138405   -0.079667   -2.241383

----------------------------
CARTESIAN COORDINATES (A.U.)
----------------------------
[...]
                  HL-Gap            0.3264657 Eh            8.8836 eV
             Fermi-level            0.0179958 Eh            0.4897 eV

 SCC (total)                   0 d,  0 h,  0 min,  0.061 sec
 SCC setup                      ...        0 min,  0.000 sec (  0.282%)
 Dispersion                     ...        0 min,  0.000 sec (  0.092%)
 classical contributions        ...        0 min,  0.000 sec (  0.064%)
 integral evaluation            ...        0 min,  0.059 sec ( 97.093%)
 iterations                     ...        0 min,  0.001 sec (  1.365%)
 molecular gradient             ...        0 min,  0.001 sec (  0.889%)
 printout                       ...        0 min,  0.000 sec (  0.186%)

         :::::::::::::::::::::::::::::::::::::::::::::::::::::
         ::                     SUMMARY                     ::
         :::::::::::::::::::::::::::::::::::::::::::::::::::::
         :: total energy             -12.738789757732 Eh    ::
         :: gradient norm              0.000117410073 Eh/a0 ::
         :: HOMO-LUMO gap              8.883584893329 eV    ::
         ::.................................................::
         :: SCC energy               -12.798193385471 Eh    ::
         :: -> isotropic ES            0.181186046261 Eh    ::
         :: -> anisotropic ES         -0.001007607208 Eh    ::
         :: -> anisotropic XC         -0.001485081483 Eh    ::
         :: -> dispersion             -0.001908991871 Eh    ::
         :: repulsion energy           0.059403627740 Eh    ::
         :: add. restraining           0.000000000000 Eh    ::
         :: total charge              -1.000000000000 e     ::
         :::::::::::::::::::::::::::::::::::::::::::::::::::::

           ------------------------------------------------- 
          |                Numerical Hessian                |
           ------------------------------------------------- 
step length          :   0.00500
SCC accuracy         :   0.30000
Hessian scale factor :   1.00000
frozen atoms in %    :   0.00000    0
RMS gradient         :   0.00012
estimated CPU  time      0.00 min
estimated wall time      0.00 min

writing file <hessian>.

 projected vibrational frequencies (cm⁻¹)
eigval :       -0.00    -0.00     0.00     0.00     0.00     0.00
eigval :       90.71    90.76    93.74  1001.19  1102.61  1102.67
eigval :     1386.82  1451.00  1451.23  3038.95  3045.30  3045.71

Property printout bound to 'properties.out'
Refinement of some symmetry elements was terminated before convergence was reached.
Some symmetry elements may remain unidentified.
Molecule has the following symmetry elements: (C3) 3*(sigma) 
It seems to be the C3v point group

           -------------------------------------------------
          | TOTAL ENERGY              -12.738789757732 Eh   |
          | TOTAL ENTHALPY            -12.694152590209 Eh   |
          | TOTAL FREE ENERGY         -12.729086649379 Eh   |
          | GRADIENT NORM               0.000117421210 Eh/α |
          | HOMO-LUMO GAP               8.883584296487 eV   |
           -------------------------------------------------

------------------------------------------------------------------------
 * finished run on 2026/03/12 at 12:46:05.291     
------------------------------------------------------------------------
 total:
 * wall-time:     0 d,  0 h,  0 min,  0.117 sec
 *  cpu-time:     0 d,  0 h,  0 min,  0.536 sec
 * ratio c/w:     4.588 speedup
 SCF:
 * wall-time:     0 d,  0 h,  0 min,  0.061 sec
 *  cpu-time:     0 d,  0 h,  0 min,  0.389 sec
 * ratio c/w:     6.349 speedup
 analytical hessian:
 * wall-time:     0 d,  0 h,  0 min,  0.010 sec
 *  cpu-time:     0 d,  0 h,  0 min,  0.082 sec
 * ratio c/w:     7.851 speedup


-------------------------   --------------------
FINAL SINGLE POINT ENERGY       -12.738789757730
-------------------------   --------------------


-------------
DIPOLE MOMENT
-------------
                                X             Y             Z
Total Dipole Moment    :      0.22800       0.13100       4.05700
                        -----------------------------------------
Magnitude (a.u.)       :      4.06551
Magnitude (Debye)      :     10.33371


-----------------------
VIBRATIONAL FREQUENCIES
-----------------------

Scaling factor for frequencies =  1.000000000  (already applied!)

     0:       0.00 cm**-1
     1:       0.00 cm**-1
     2:       0.00 cm**-1
     3:       0.00 cm**-1
     4:       0.00 cm**-1
     5:       0.00 cm**-1
     6:      90.70 cm**-1
     7:      90.76 cm**-1
     8:      93.74 cm**-1
     9:    1001.19 cm**-1
    10:    1102.58 cm**-1
    11:    1102.65 cm**-1
    12:    1386.78 cm**-1
    13:    1450.96 cm**-1
    14:    1451.19 cm**-1
    15:    3038.87 cm**-1
    16:    3045.22 cm**-1
    17:    3045.62 cm**-1


------------
NORMAL MODES
------------

These modes are the Cartesian displacements weighted by the diagonal matrix
M(i,i)=1/sqrt(m[i]) where m[i] is the mass of the displaced atom
Thus, these vectors are normalized but *not* orthogonal

                  0          1          2          3          4          5    
      0       0.000000   0.000000   0.000000   0.000000   0.000000   0.000000
      1       0.000000   0.000000   0.000000   0.000000   0.000000   0.000000
      2       0.000000   0.000000   0.000000   0.000000   0.000000   0.000000
      3       0.000000   0.000000   0.000000   0.000000   0.000000   0.000000
      4       0.000000   0.000000   0.000000   0.000000   0.000000   0.000000
      5       0.000000   0.000000   0.000000   0.000000   0.000000   0.000000
      6       0.000000   0.000000   0.000000   0.000000   0.000000   0.000000
      7       0.000000   0.000000   0.000000   0.000000   0.000000   0.000000
      8       0.000000   0.000000   0.000000   0.000000   0.000000   0.000000
      9       0.000000   0.000000   0.000000   0.000000   0.000000   0.000000
     10       0.000000   0.000000   0.000000   0.000000   0.000000   0.000000
     11       0.000000   0.000000   0.000000   0.000000   0.000000   0.000000
     12       0.000000   0.000000   0.000000   0.000000   0.000000   0.000000
     13       0.000000   0.000000   0.000000   0.000000   0.000000   0.000000
     14       0.000000   0.000000   0.000000   0.000000   0.000000   0.000000
     15       0.000000   0.000000   0.000000   0.000000   0.000000   0.000000
     16       0.000000   0.000000   0.000000   0.000000   0.000000   0.000000
     17       0.000000   0.000000   0.000000   0.000000   0.000000   0.000000
                  6          7          8          9         10         11    
      0       0.095625   0.316165  -0.017155  -0.006698  -0.033998   0.131397
      1       0.316253  -0.095704  -0.000885  -0.003606   0.131376   0.034019
      2       0.003856   0.008019   0.443530   0.556159   0.000449   0.001933
      3       0.128374   0.435079  -0.021646  -0.004463   0.075810  -0.257586
      4       0.440222  -0.133179  -0.000557  -0.013495  -0.136473  -0.035124
      5       0.376275  -0.102350   0.438382   0.414545  -0.723848  -0.192175
      6       0.130497   0.437839  -0.022175  -0.014164  -0.013376  -0.178303
      7       0.435595  -0.136962   0.000283   0.002526  -0.220010  -0.107548
      8      -0.084048   0.386232   0.422656   0.415306   0.523837  -0.535066
      9       0.139243   0.443343  -0.021579   0.005008   0.092987  -0.165546
     10       0.440729  -0.128213  -0.000063   0.002325  -0.244601  -0.013176
     11      -0.276827  -0.256501   0.447413   0.413491   0.197497   0.719053
     12      -0.053643  -0.177402   0.001956   0.004969   0.013232  -0.051097
     13      -0.177372   0.053624  -0.003850   0.002756  -0.051104  -0.013222
     14      -0.001120   0.003212   0.441716  -0.418158  -0.000151  -0.000781
     15      -0.006643  -0.021952   0.002939  -0.000003   0.000004  -0.000015
     16      -0.021976   0.006662   0.001053  -0.000004  -0.000015  -0.000004
     17      -0.000508  -0.002314  -0.188209   0.000136   0.000000  -0.000002
                 12         13         14         15         16         17    
      0      -0.001400  -0.052441  -0.036773   0.001521   0.079426  -0.041665
      1      -0.000741  -0.036749   0.052482   0.001034   0.041637   0.079466
      2       0.114558  -0.000847  -0.000202   0.038057   0.000135  -0.000062
      3       0.006415   0.604041   0.420974   0.003985   0.037709  -0.025035
      4      -0.194531  -0.073118   0.101418   0.541102  -0.374315  -0.682785
      5      -0.539073  -0.180440   0.271452  -0.163003   0.124871   0.227568
      6      -0.165241   0.290696  -0.251560   0.471222  -0.349898   0.575688
      7       0.103081   0.605472  -0.207977  -0.270084   0.245302  -0.303418
      8      -0.539657  -0.129160  -0.298535  -0.163609   0.141982  -0.216656
      9       0.178361  -0.146459   0.355055  -0.492999  -0.648408  -0.046762
     10       0.101784  -0.008001  -0.641915  -0.283219  -0.374552   0.025148
     11      -0.535638   0.322137   0.029395  -0.184765  -0.267111  -0.010027
     12      -0.000137  -0.006350  -0.004440  -0.000013   0.000842  -0.000441
     13      -0.000070  -0.004450   0.006334  -0.000004   0.000441   0.000841
     14       0.012252  -0.000122   0.000004   0.002832  -0.000064  -0.000007
     15      -0.000003  -0.000047  -0.000033  -0.000001  -0.000021   0.000011
     16      -0.000002  -0.000033   0.000047  -0.000001  -0.000011  -0.000021
     17       0.000232  -0.000002   0.000000   0.000057  -0.000002  -0.000000


The first frequency considered to be a vibration is 6
The total number of vibrations considered is 12


--------------------------
THERMOCHEMISTRY AT 298.15K
--------------------------

Temperature         ...   298.15 K
Pressure            ...     1.00 atm
Total Mass          ...   113.93 AMU
Quasi RRHO          ...     True
Cut-Off Frequency   ...     1.00 cm^-1

Throughout the following assumptions are being made:
  (1) The electronic state is orbitally nondegenerate
  (2) There are no thermally accessible electronically excited states
  (3) Hindered rotations indicated by low frequency modes are not
      treated as such but are treated as vibrations and this may
      cause some error
  (4) All equations used are the standard statistical mechanics
      equations for an ideal gas
  (5) All vibrations are strictly harmonic

freq.      90.70  E(vib)   ...       0.47 
freq.      90.76  E(vib)   ...       0.47 
freq.      93.74  E(vib)   ...       0.47 
freq.    1001.19  E(vib)   ...       0.02 
freq.    1102.58  E(vib)   ...       0.02 
freq.    1102.65  E(vib)   ...       0.02 
freq.    1386.78  E(vib)   ...       0.00 
freq.    1450.96  E(vib)   ...       0.00 
freq.    1451.19  E(vib)   ...       0.00 
freq.    3038.87  E(vib)   ...       0.00 
freq.    3045.22  E(vib)   ...       0.00 
freq.    3045.62  E(vib)   ...       0.00 

------------
INNER ENERGY
------------

The inner energy is: U= E(el) + E(ZPE) + E(vib) + E(rot) + E(trans)
    E(el)   - is the total energy from the electronic structure calculation
              = E(kin-el) + E(nuc-el) + E(el-el) + E(nuc-nuc)
    E(ZPE)  - the the zero temperature vibrational energy from the frequency calculation
    E(vib)  - the the finite temperature correction to E(ZPE) due to population
              of excited vibrational states
    E(rot)  - is the rotational thermal energy
    E(trans)- is the translational thermal energy

Summary of contributions to the inner energy U:
Electronic energy                ...    -12.73878976 Eh
Zero point energy                ...      0.03850162 Eh      24.16 kcal/mol
Thermal vibrational correction   ...      0.00235774 Eh       1.48 kcal/mol
Thermal rotational correction    ...      0.00141627 Eh       0.89 kcal/mol
Thermal translational correction ...      0.00141627 Eh       0.89 kcal/mol
-----------------------------------------------------------------------
Total thermal energy                    -12.69509785 Eh


Summary of corrections to the electronic energy:
(perhaps to be used in another calculation)
Total thermal correction                  0.00519028 Eh       3.26 kcal/mol
Non-thermal (ZPE) correction              0.03850162 Eh      24.16 kcal/mol
-----------------------------------------------------------------------
Total correction                          0.04369190 Eh      27.42 kcal/mol


--------
ENTHALPY
--------

The enthalpy is H = U + kB*T
                kB is Boltzmann's constant
Total thermal energy              ...    -12.69509785 Eh 
Thermal Enthalpy correction       ...      0.00094421 Eh       0.59 kcal/mol
-----------------------------------------------------------------------
Total Enthalpy                    ...    -12.69415365 Eh


WARNING (ORCA/SYM): The number of Z matrix atoms does not agree with
the number of centers in the basis set. The point group will therefore
be determined without considering basis set information.


Note: Rotational entropy computed according to Herzberg 
Infrared and Raman Spectra, Chapter V,1, Van Nostrand Reinhold, 1945 
Point Group:  Cs, Symmetry Number:   1  
Rotational constants in cm-1:     5.248911     0.042376     0.042375 

Vibrational entropy computed according to the QRRHO of S. Grimme
Chem.Eur.J. 2012 18 9955 using a reference frequency of 100.0 cm-1


-------
ENTROPY
-------

The entropy contributions are T*S = T*(S(el)+S(vib)+S(rot)+S(trans))
     S(el)   - electronic entropy
     S(vib)  - vibrational entropy
     S(rot)  - rotational entropy
     S(trans)- translational entropy
The entropies will be listed as multiplied by the temperature to get
units of energy

Electronic entropy                ...      0.00000000 Eh      0.00 kcal/mol
Vibrational entropy               ...      0.00471993 Eh      2.96 kcal/mol
Rotational entropy                ...      0.01171281 Eh      7.35 kcal/mol
Translational entropy             ...      0.01905598 Eh     11.96 kcal/mol
-----------------------------------------------------------------------
Final entropy term                ...      0.03548872 Eh     22.27 kcal/mol

In case the symmetry of your molecule has not been determined correctly
or in case you have a reason to use a different symmetry number we print 
out the resulting rotational entropy values for sn=1,12:

 non-linear molecules -----------------------------------
|  sn= 1 | S(rot)=       0.01171281 Eh      7.35 kcal/mol|
|  sn= 2 | S(rot)=       0.01105835 Eh      6.94 kcal/mol|
|  sn= 3 | S(rot)=       0.01067552 Eh      6.70 kcal/mol|
|  sn= 4 | S(rot)=       0.01040389 Eh      6.53 kcal/mol|
|  sn= 5 | S(rot)=       0.01019320 Eh      6.40 kcal/mol|
|  sn= 6 | S(rot)=       0.01002106 Eh      6.29 kcal/mol|
|  sn= 7 | S(rot)=       0.00987551 Eh      6.20 kcal/mol|
|  sn= 8 | S(rot)=       0.00974944 Eh      6.12 kcal/mol|
|  sn= 9 | S(rot)=       0.00963823 Eh      6.05 kcal/mol|
|  sn=10 | S(rot)=       0.00953875 Eh      5.99 kcal/mol|
|  sn=11 | S(rot)=       0.00944876 Eh      5.93 kcal/mol|
|  sn=12 | S(rot)=       0.00936660 Eh      5.88 kcal/mol|
 linear molecules ---------------------------------------
|  Dinfh | S(rot)=       0.00831054 Eh      5.21 kcal/mol|
|  Cinfv | S(rot)=       0.00896499 Eh      5.63 kcal/mol|
 --------------------------------------------------------


-------------------
GIBBS FREE ENERGY
-------------------

The Gibbs free energy is G = H - T*S

Total enthalpy                    ...    -12.69415365 Eh 
Total entropy correction          ...     -0.03548872 Eh    -22.27 kcal/mol
-----------------------------------------------------------------------
Final Gibbs free energy         ...    -12.72964236 Eh

For completeness - the Gibbs free energy minus the electronic energy
G-E(el)                           ...      0.00914740 Eh      5.74 kcal/mol


--------------------------------
SUGGESTED CITATIONS FOR THIS RUN
--------------------------------

Below you find a list of papers that are relevant to this ORCA run
We neither can nor want to force you to cite these papers, but we appreciate if you do
You receive ORCA, which is the product of decades of hard work by many enthusiastic individuals, for free
The only thing we kindly ask in return is that you cite our papers,
We deeply appreciate it, if you show your appreciation for ORCA by not just citing the generic ORCA reference.

Please note that relegating all ORCA citations to the supporting information does *not* help us.
SI sections are not indexed - citations you put there will not count into any citation statistics
But we need these citations in order to attract the funding resources that allow us to do what we are doing

Therefore, if you are a happy ORCA user, please consider citing a few of the papers listed below in the main body of your paper

In addition to the list printed below, the program has created the file reactant_optfreq.bibtex that contains the list in bibtex format
You can import this file easily into all common literature databanks and citation aid programs


List of essential papers. We consider these as the minimum necessary citations

  1. Bannwarth, C.; Ehlert, S.; Grimme, S.
     GFN2-xTB—An Accurate and Broadly Parametrized Self-Consistent Tight-Binding Quantum Chemical Method with Multipole Electrostatics and Density-Dependent Dispersion Contributions
     J. Chem. Theory Comput. 2019 15(3), 1652-1671
     doi.org/10.1021/acs.jctc.8b01176
  2. Neese, F.
     Software update: the ORCA program system, version 6.0
     WIRES Comput. Molec. Sci. 2025 15(1), e70019
     doi.org/10.1002/wcms.7019

List of papers to cite with high priority. The work reported in these papers was absolutely
necessary for this run to complete.
Our perspective: the developers of density functionals and basis sets usually get cited in chemistry papers
Good! But without the algorithms to do something with them, the functionals or basis sets would not do anything.
Hence, in our opinion, the algorithm design and method developments papers are equally worthy of getting cited

  1. Bykov, D.; Petrenko, T.; Izsak, R.; Kossmann, S.; Becker, U.; Valeev, E.; Neese, F.
     Efficient implementation of the analytic second derivatives of Hartree-Fock and hybrid DFT energies: a detailed analysis of different approximations
     Molec. Phys. 2015 113 , 1961-1977
     doi.org/10.1080/00268976.2015.1025114
  2. Bannwarth, C.; Caldeweyher, E.; Ehlert, S.; Hansen, A.; Pracht, P.; Seibert, J.; Spicher, S.; Grimme, S.
     Extended tight-binding quantum chemistry methods
     WIRES Comput. Molec. Sci. 2020 11(2), e1493
     doi.org/10.1002/wcms.1493

List of suggested additional citations. These are papers that are important in the 'surrounding' of 
of this run, or papers that preceded the highly important papers. If you like your results we are grateful for a citation.

  1. Neese, F.
     The ORCA program system
     WIRES Comput. Molec. Sci. 2012 2(1), 73-78
     doi.org/10.1002/wcms.81
  2. Neese, F.
     Software update: the ORCA program system, version 4.0
     WIRES Comput. Molec. Sci. 2018 8(1), 1-6
     doi.org/10.1002/wcms.1327
  3. Neese, F.; Wennmohs, F.; Becker, U.; Riplinger, C.
     The ORCA quantum chemistry program package
     J. Chem. Phys. 2020 152(22), 224108
     doi.org/10.1063/5.0004608
  4. Neese, F.
     Software update: The ORCA program system—Version 5.0
     WIRES Comput. Molec. Sci. 2022 12(1), e1606
     doi.org/10.1002/wcms.1606

List of optional additional citations

  1. Neese, F.
     Approximate second-order SCF convergence for spin unrestricted wavefunctions
     Chem. Phys. Lett. 2000 325(1-3), 93-98
     doi.org/10.1016/s0009-2614(00)00662-x

Timings for individual modules:

Sum of individual times          ...        3.952 sec (=   0.066 min)
Geometry relaxation              ...        0.046 sec (=   0.001 min)   1.2 %
XTB module                       ...        3.906 sec (=   0.065 min)  98.8 %
                             ****ORCA TERMINATED NORMALLY****
TOTAL RUN TIME: 0 days 0 hours 0 minutes 4 seconds 541 msec
