
                                 *****************
                                 * O   R   C   A *
                                 *****************

                                            #,                                       
                                            ###                                      
                                            ####                                     
                                            #####                                    
                                            ######                                   
                                           ########,                                 
                                     ,,################,,,,,                         
                               ,,#################################,,                 
                          ,,##########################################,,             
                       ,#########################################, ''#####,          
                    ,#############################################,,   '####,        
                  ,##################################################,,,,####,       
                ,###########''''           ''''###############################       
              ,#####''   ,,,,##########,,,,          '''####'''          '####       
            ,##' ,,,,###########################,,,                        '##       
           ' ,,###''''                  '''############,,,                           
         ,,##''                                '''############,,,,        ,,,,,,###''
      ,#''                                            '''#######################'''  
     '                                                          ''''####''''         
             ,#######,   #######,   ,#######,      ##                                
            ,#'     '#,  ##    ##  ,#'     '#,    #''#        ,####,    ,#,          
            ##       ##  ##   ,#'  ##            #'  '#       #'       ,# #          
            ##       ##  #######   ##           ,######,      #####,      #          
            '#,     ,#'  ##    ##  '#,     ,#' ,#      #,     #,   #      #          
             '#######'   ##     ##  '#######'  #'      '#     '####' #    #          



                #########################################################
                #                        -***-                          #
                #          Department of theory and spectroscopy        #
                #                                                       #
                #                      Frank Neese                      #
                #                                                       #
                #     Directorship, Architecture, Infrastructure        #
                #                    SHARK, DRIVERS                     #
                #        Core code/Algorithms in most modules           #
                #                                                       #
                #        Max Planck Institute fuer Kohlenforschung      #
                #                Kaiser Wilhelm Platz 1                 #
                #                 D-45470 Muelheim/Ruhr                 #
                #                      Germany                          #
                #                                                       #
                #                  All rights reserved                  #
                #                        -***-                          #
                #########################################################


                         Program Version 6.1.0  -  RELEASE   -
                                (GIT: $679e74b$)
                          ($2025-06-10 18:02:51 +0200$)


 With contributions from (in alphabetic order):
[Max-Planck-Institut fuer Kohlenforschung]                               
  Daniel Aravena         : Magnetic Suceptibility                        
  Michael Atanasov       : Ab Initio Ligand Field Theory (pilot matlab implementation)
  Alexander A. Auer      : GIAO ZORA, VPT2 properties, NMR spectrum      
  Ute Becker             : All parallelization in ORCA, NUMFREQ, NUMCALC 
  Giovanni Bistoni       : ED, misc. LED, open-shell LED, HFLD           
  Dmytro Bykov           : pre 5.0 version of the SCF Hessian            
  Marcos Casanova-Páez   : Triplet and SCS-CIS(D). UHF-(DLPNO)-IP/EA/STEOM-CCSD. UHF-CVS-IP/STEOM-CCSD   
  Vijay G. Chilkuri      : MRCI spin determinant printing, contributions to CSF-ICE 
  Pauline Colinet        : FMM embedding                                 
  Dipayan Datta          : RHF DLPNO-CCSD density                        
  Achintya Kumar Dutta   : EOM-CC, STEOM-CC                              
  Nicolas Foglia         : Exact transition moments, OPA infrastructure, MCD improvements    
  Dmitry Ganyushin       : Spin-Orbit,Spin-Spin,Magnetic field MRCI      
  Miquel Garcia-Rates    : C-PCM and meta-GGA Hessian, CCSD/C-PCM, Gaussian charge scheme 
  Tiago L. C. Gouveia    : GS-ROHF, GS-ROCIS                             
  Yang Guo               : DLPNO-NEVPT2, F12-NEVPT2, CIM, IAO-localization        
  Andreas Hansen         : Spin unrestricted coupled pair/coupled cluster methods 
  Ingolf Harden          : AUTO-CI MPn and infrastructure                
  Benjamin Helmich-Paris : MC-RPA, TRAH-(SCF,CASSCF), AVAS, COSX integrals, SCF dyn. polar., MC-PDFT, srDFT 
  Lee Huntington         : MR-EOM, pCC                                   
  Robert Izsak           : Overlap fitted RIJCOSX, COSX-SCS-MP3, EOM     
  Riya Kayal             : Wick's Theorem for AUTO-CI, AUTO-CI UHF-CCSDT 
  Emily Kempfer          : AUTO-CI RHF CISDT and CCSDT, approximate NEVPT4
  Christian Kollmar      : KDIIS, OOCD, Brueckner-CCSD(T), CCSD density, CASPT2, CASPT2-K, improved NEVPT2 
  Axel Koslowski         : Symmetry handling                             
  Simone Kossmann        : meta-GGA functionals, TD-DFT gradient, OOMP2, (MP2 Hessian; deprecated post 5.0) 
  Lucas Lang             : DCDCAS, Hyperfine gauge corrections, ICE-SOC+SSC
  Marvin Lechner         : AUTO-CI (C++ implementation), FIC-MRCC        
  Spencer Leger          : CASSCF response                               
  Dagmar Lenk            : GEPOL surface, SMD, ORCA-2-JSON               
  Dimitrios Liakos       : Extrapolation schemes; Compound Job, Property file
  Dimitrios Manganas     : Further ROCIS development; embedding schemes. LFT, Crystal Embedding 
  Dimitrios Pantazis     : SARC Basis sets                               
  Anastasios Papadopoulos: AUTO-CI, single reference methods and gradients 
  Taras Petrenko         : pre 6.0 DFT Hessian and TD-DFT gradient,  ECA, NRVS 
  Petra Pikulova         : Analytic Raman intensities                    
  Peter Pinski           : DLPNO-MP2, DLPNO-MP2 Gradient                 
  Shashank Vittal Rao    : ES-AILFT, MagRelax                            
  Christoph Reimann      : Effective Core Potentials                     
  Marius Retegan         : Local ZFS, SOC                                
  Christoph Riplinger    : Optimizer, TS searches, QM/MM, DLPNO-CCSD(T), (RO)-DLPNO pert. Triples 
  Michael Roemelt        : Original ROCIS implementation, recursive CI coupling coefficients
  Masaaki Saitow         : Open-shell DLPNO-CCSD energy and density      
  Barbara Sandhoefer     : DKH picture change effects                    
  Yorick L. A. Schmerwitz: GMF and freeze-and-release deltaSCF, NEB S-IDPP initial path                    
  Kantharuban Sivalingam : CASSCF convergence/infrastructure, NEVPT2, NEVPT3, NEVPT4(SD), FIC-MRCI and CEPA variants
  Bernardo de Souza      : ESD, SOC TD-DFT                               
  Georgi L. Stoychev     : AutoAux, RI-MP2 NMR, DLPNO-MP2 response, X2C  
  Van Anh Tran           : RI-MP2 g-tensors                              
  Willem Van den Heuvel  : Paramagnetic NMR                              
  Zikuan Wang            : NOTCH, Electric field optimization            
  Frank Wennmohs         : Technical directorship and infrastructure     
  Hang Xu                : AUTO-CI-Response properties                   
                                                                         
[FACCTs GmbH]                                                            
  Markus Bursch, Nicolas Foglia, Miquel Garcia-Rates, Ingolf Harden, Hagen Neugebauer, Anastasios Papadopoulos, 
  Christoph Riplinger, Bernardo de Souza, Georgi L. Stoychev                                                    
                                                                 
  APM, various basis sets, CI-OPT, improved COSX, DLPNO-Multilevel,           
  DOCKER, DRACO, updates on ESD, Fragmentator, GOAT, IRC, LR-CPCM, L-BFGS, MBIS, meta-GGA TD-DFT gradient, ML-optimized integration grids, 
  MM, NACMEs, nearIR, NEB, NEB-TS, NL-DFT gradient (VV10), 2- and 3-layer-ONIOM, interface openCOSMO-RS, QMMM,   
  Crystal-QMMM, RESP, rigid body optimization, SF, symmetry and pop. for TD-DFT, various functionals, SOLVATOR                                   
                                                                         
[Other institutions]                                                     
  V. Asgeirsson          : NEB                                           
  Christoph Bannwarth    : sTDA-DFT, sTD-DFT, PBEh-3c, B97-3c, D3        
  Giovanni Bistoni       : ETS/NOCV, ADLD/ADEX, COVALED                  
  Martin Brehm           : Molecular dynamics                            
  Ronald Cardenas        : ETS/NOCV                                      
  Martina Colucci        : COVALED                                       
  Sebastian Ehlert       : rSCAN, r2SCAN, r2SCAN-3c, D4, dhf basis sets  
  Marvin Friede          : D4 for Fr, Ra, Ac-Lr                          
  Lars Goerigk           : TD-DFT with DH, B97 family of functionals     
  Stefan Grimme          : VdW corrections, initial TS optimization, DFT functionals, gCP, sTDA/sTD-DF 
  Waldemar Hujo          : DFT-NL                                        
  H. Jonsson             : NEB                                           
  Holger Kruse           : gCP                                           
  Marcel Mueller         : wB97X-3c, vDZP basis set                      
  Hagen Neugebauer       : wr2SCAN, Native XTB                           
  Gianluca Regni         : ADLD/ADEX                                     
  Tobias Risthaus        : pre 6.0 range-separated hybrid DFT and stability analysis
  Lukas Wittmann         : regularized MP2, r2SCAN double-hybrids, wr2SCAN        
                                                                         
We gratefully acknowledge several colleagues who have allowed us to      
interface, adapt or use parts of their codes:                            
  Ed Valeev, F. Pavosevic, A. Kumar             : LibInt (2-el integral package), F12 methods 
  Garnet Chan, S. Sharma, J. Yang, R. Olivares  : DMRG                   
  Ulf Ekstrom                                   : XCFun DFT Library      
  Mihaly Kallay                                 : mrcc  (arbitrary order and MRCC methods)
  Frank Weinhold                                : gennbo (NPA and NBO analysis)           
  Simon Mueller                                 : openCOSMO-RS                            
  Christopher J. Cramer and Donald G. Truhlar   : smd solvation model                     
  S Lehtola, MJT Oliveira, MAL Marques          : LibXC Library                           
  Liviu Ungur et al                             : ANISO software                          


 Your calculation uses the libint2 library for the computation of 2-el integrals
 For citations please refer to: http://libint.valeyev.net

 Your ORCA version has been built with support for libXC version: 7.0.0
 For citations please refer to: https://libxc.gitlab.io

 This ORCA versions uses:
   CBLAS   interface :  Fast vector & matrix operations
   LAPACKE interface :  Fast linear algebra routines
   SCALAPACK package :  Parallel linear algebra routines
   Shared memory     :  Shared parallel matrices
   BLAS/LAPACK       :  OpenBLAS 0.3.29  USE64BITINT DYNAMIC_ARCH NO_AFFINITY SkylakeX SINGLE_THREADED
        Core in use  :  SkylakeX
   Copyright (c) 2011-2014, The OpenBLAS Project


  ***********************************
  * Starting time: Fri Mar  6 15:40:20 2026
  * Host name:     midway3-login3.rcc.local
  * Process ID:    998612
  * Working dir.:  /home/rzhu16/orca_TS_search
  ***********************************

Warning: RI is on but no J-basis has been assigned. Assigning Def2/J (nothing to worry about!)
================================================================================

----- Orbital basis set information -----
Your calculation utilizes the basis: def2-SVP
   F. Weigend and R. Ahlrichs, Phys. Chem. Chem. Phys. 7, 3297 (2005).

----- AuxJ basis set information -----
Your calculation utilizes the auxiliary basis: def2/J
   H-Rn: F. Weigend, Phys. Chem. Chem. Phys. 8, 1057 (2006).
   Fr-Lr: K. Eichkorn, F. Weigend, O. Treutler, R. Ahlrichs; Theor. Chem. Acc. 97, 119 (1997).

================================================================================
                                        WARNINGS
                       Please study these warnings very carefully!
================================================================================


WARNING: Geometry Optimization
  ===> : Switching off AutoStart
         For restart on a previous wavefunction, please use MOREAD

================================================================================
                                       INPUT FILE
================================================================================
NAME = /home/rzhu16/orca_TS_search/sn2/TS_search/sn2.inp
|  1> ! B3LYP def2-SVP OptTS Freq
|  2> 
|  3> %pal
|  4>   nprocs 1
|  5> end
|  6> 
|  7> %geom
|  8>   Calc_Hess true
|  9>   Recalc_Hess 5
| 10> end
| 11> 
| 12> * xyz -1 1
| 13> C   0.000000   0.000000   0.000000
| 14> H   0.000000   1.080000   0.000000
| 15> H   0.935000  -0.540000   0.000000
| 16> H  -0.935000  -0.540000   0.000000
| 17> F   0.000000   0.000000   1.900000
| 18> F   0.000000   0.000000  -1.900000
| 19> *
| 20> 
| 21>                          ****END OF INPUT****
================================================================================

                       *****************************
                       * Geometry Optimization Run *
                       *****************************

Geometry optimization settings:
Update method            Update   .... Bofill
Choice of coordinates    CoordSys .... (2022) Redundant Internals
Initial Hessian          InHess   .... Almloef's Model
Max. no of cycles        MaxIter  .... 50

Convergence Tolerances:
Energy Change            TolE     ....  5.0000e-06 Eh
Max. Gradient            TolMAXG  ....  3.0000e-04 Eh/bohr
RMS Gradient             TolRMSG  ....  1.0000e-04 Eh/bohr
Max. Displacement        TolMAXD  ....  4.0000e-03 bohr
RMS Displacement         TolRMSD  ....  2.0000e-03 bohr
Strict Convergence                .... False

------------------------------------------------------------------------------
                        ORCA OPTIMIZATION COORDINATE SETUP
------------------------------------------------------------------------------

The optimization will be done in redundant internal coordinates (2022)
Making redundant internal coordinates   ...  (2022 redundants) done
Following TS mode number                ...     0
Evaluating the initial hessian          ...  (Is done on the fly) done
Evaluating the coordinates              ...  done
Calculating the B-matrix                .... done
Calculating the G-matrix                .... done
The number of degrees of freedom        ....   14

    -----------------------------------------------------------------
                    Redundant Internal Coordinates


    -----------------------------------------------------------------
         Definition                    Initial Value    d2E/dq (diagonal element)
    -----------------------------------------------------------------
      1. B(H   1,C   0)                  1.0800         0.000000   
      2. B(H   2,C   0)                  1.0797         0.000000   
      3. B(H   3,C   0)                  1.0797         0.000000   
      4. B(F   4,C   0)                  1.9000         0.000000   
      5. B(F   5,C   0)                  1.9000         0.000000   
      6. A(H   1,C   0,H   3)          120.0082         0.000000   
      7. A(H   2,C   0,H   3)          119.9837         0.000000   
      8. A(H   1,C   0,F   4)           90.0000         0.000000   
      9. A(H   2,C   0,F   4)           90.0000         0.000000   
     10. A(H   3,C   0,F   4)           90.0000         0.000000   
     11. A(H   1,C   0,F   5)           90.0000         0.000000   
     12. A(H   2,C   0,F   5)           90.0000         0.000000   
     13. A(H   3,C   0,F   5)           90.0000         0.000000   
     14. A(H   1,C   0,H   2)          120.0082         0.000000   
    -----------------------------------------------------------------

Number of atoms                         .... 6
Number of degrees of freedom            .... 14


         *************************************************************
         *                GEOMETRY OPTIMIZATION CYCLE   1            *
         *************************************************************
---------------------------------
CARTESIAN COORDINATES (ANGSTROEM)
---------------------------------
  C      0.000000    0.000000    0.000000
  H      0.000000    1.080000    0.000000
  H      0.935000   -0.540000    0.000000
  H     -0.935000   -0.540000    0.000000
  F      0.000000    0.000000    1.900000
  F      0.000000    0.000000   -1.900000

----------------------------
CARTESIAN COORDINATES (A.U.)
----------------------------
  NO LB      ZA    FRAG     MASS         X           Y           Z
   0 C     6.0000    0    12.011    0.000000    0.000000    0.000000
   1 H     1.0000    0     1.008    0.000000    2.040904    0.000000
   2 H     1.0000    0     1.008    1.766894   -1.020452    0.000000
   3 H     1.0000    0     1.008   -1.766894   -1.020452    0.000000
   4 F     9.0000    0    18.998    0.000000    0.000000    3.590480
   5 F     9.0000    0    18.998    0.000000    0.000000   -3.590480

--------------------------------
INTERNAL COORDINATES (ANGSTROEM)
--------------------------------
 C      0   0   0     0.000000000000     0.00000000     0.00000000
 H      1   0   0     1.080000000000     0.00000000     0.00000000
 H      1   2   0     1.079733763481   120.00815701     0.00000000
 H      1   2   3     1.079733763481   120.00815701   180.00000121
 F      1   2   3     1.900000000000    90.00000000    90.00000000
 F      1   2   3     1.900000000000    90.00000000   270.00000000

---------------------------
INTERNAL COORDINATES (A.U.)
---------------------------
 C      0   0   0     0.000000000000     0.00000000     0.00000000
 H      1   0   0     2.040904224635     0.00000000     0.00000000
 H      1   2   0     2.040401110526   120.00815701     0.00000000
 H      1   2   3     2.040401110526   120.00815701   180.00000121
 F      1   2   3     3.590479654450    90.00000000    90.00000000
 F      1   2   3     3.590479654450    90.00000000   270.00000000

---------------------
BASIS SET INFORMATION
---------------------
There are 3 groups of distinct atoms

 Group   1 Type C   : 7s4p1d contracted to 3s2p1d pattern {511/31/1}
 Group   2 Type H   : 4s1p contracted to 2s1p pattern {31/1}
 Group   3 Type F   : 7s4p1d contracted to 3s2p1d pattern {511/31/1}

Atom   0C    basis set group =>   1
Atom   1H    basis set group =>   2
Atom   2H    basis set group =>   2
Atom   3H    basis set group =>   2
Atom   4F    basis set group =>   3
Atom   5F    basis set group =>   3
---------------------------------
AUXILIARY/J BASIS SET INFORMATION
---------------------------------
There are 3 groups of distinct atoms

 Group   1 Type C   : 12s5p4d2f1g contracted to 6s4p3d1f1g pattern {711111/2111/211/2/1}
 Group   2 Type H   : 5s2p1d contracted to 3s1p1d pattern {311/2/1}
 Group   3 Type F   : 12s5p4d2f1g contracted to 6s4p3d1f1g pattern {711111/2111/211/2/1}

Atom   0C    basis set group =>   1
Atom   1H    basis set group =>   2
Atom   2H    basis set group =>   2
Atom   3H    basis set group =>   2
Atom   4F    basis set group =>   3
Atom   5F    basis set group =>   3
------------------------------------------------------------------------------
                             ORCA STARTUP CALCULATIONS
                           -- RI-GTO INTEGRALS CHOSEN --
------------------------------------------------------------------------------
------------------------------------------------------------------------------
                   ___                                                        
                  /   \      - P O W E R E D   B Y -                         
                 /     \                                                     
                 |  |  |   _    _      __       _____    __    __             
                 |  |  |  | |  | |    /  \     |  _  \  |  |  /  |          
                  \  \/   | |  | |   /    \    | | | |  |  | /  /          
                 / \  \   | |__| |  /  /\  \   | |_| |  |  |/  /          
                |  |  |   |  __  | /  /__\  \  |    /   |      \           
                |  |  |   | |  | | |   __   |  |    \   |  |\   \          
                \     /   | |  | | |  |  |  |  | |\  \  |  | \   \       
                 \___/    |_|  |_| |__|  |__|  |_| \__\ |__|  \__/        
                                                                              
                      - O R C A' S   B I G   F R I E N D -                    
                                      &                                       
                       - I N T E G R A L  F E E D E R -                       
                                                                              
 v1 FN, 2020, v2 2021, v3 2022-2024                                           
------------------------------------------------------------------------------


----------------------
SHARK INTEGRAL PACKAGE
----------------------

Number of atoms                             ...      6
Number of basis functions                   ...     57
Number of shells                            ...     27
Maximum angular momentum                    ...      2
Integral batch strategy                     ... SHARK/LIBINT Hybrid
RI-J (if used) integral strategy            ... SPLIT-RIJ (Revised 2003 algorithm where possible)
Printlevel                                  ...      1
Contraction scheme used                     ... SEGMENTED contraction
Prescreening option                         ... SCHWARTZ
   Thresh                                   ... 2.500e-11
   Tcut                                     ... 2.500e-12
   Tpresel                                  ... 2.500e-12 
Coulomb Range Separation                    ... NOT USED
Exchange Range Separation                   ... NOT USED
Multipole approximations                    ... NOT USED
Finite Nucleus Model                        ... NOT USED
CABS basis                                  ... NOT available
Auxiliary Coulomb fitting basis             ... AVAILABLE
   # of basis functions in Aux-J            ...    180
   # of shells in Aux-J                     ...     60
   Maximum angular momentum in Aux-J        ...      4
Auxiliary J/K fitting basis                 ... NOT available
Auxiliary Correlation fitting basis         ... NOT available
Auxiliary 'external' fitting basis          ... NOT available

Checking pre-screening integrals            ... done (  0.0 sec) Dimension = 27
   => SHARK Basis and OBASIS are compatible. Storing Pre-screening
Shell pair information
Shell pair cut-off parameter TPreSel        ...   2.5e-12
Total number of shell pairs                 ...       378
Shell pairs after pre-screening             ...       360
Total number of primitive shell pairs       ...      1374
Primitive shell pairs kept                  ...      1108
          la=0 lb=0:    114 shell pairs
          la=1 lb=0:    131 shell pairs
          la=1 lb=1:     44 shell pairs
          la=2 lb=0:     41 shell pairs
          la=2 lb=1:     25 shell pairs
          la=2 lb=2:      5 shell pairs

Checking whether 4 symmetric matrices of dimension 57 fit in memory
:Max Core in MB      =   4096.00
 MB in use           =      3.67
 MB left             =   4092.33
 MB needed           =      0.05
 Data fit in memory  = YES
Calculating RI/J V-Matrix + Cholesky decomp.... done (  0.0 sec)
Calculating Nuclear repulsion               ... done (  0.0 sec) ENN=     64.104864811435 Eh

Diagonalization of the overlap matrix:
Smallest eigenvalue                        ... 1.253e-02
Time for diagonalization                   ...    0.000 sec
Threshold for overlap eigenvalues          ... 1.000e-07
Number of eigenvalues below threshold      ... 0
Time for construction of square roots      ...    0.001 sec
Total time needed                          ...    0.002 sec

-------------------
DFT GRID GENERATION
-------------------

General Integration Accuracy     IntAcc      ... 4.388
Radial Grid Type                 RadialGrid  ... OptM3 with GC (2021)
Angular Grid (max. ang.)         AngularGrid ... 4 (Lebedev-302)
Angular grid pruning method      GridPruning ... 4 (adaptive)
Weight generation scheme         WeightScheme... mBecke (2022)
Basis function cutoff            BFCut       ... 1.0000e-11
Integration weight cutoff        WCut        ... 1.0000e-14
Partially contracted basis set               ... off
Rotationally invariant grid construction     ... off
Angular grids for H and He will be reduced by one unit

Total number of grid points                  ...    28208
Total number of batches                      ...      444
Average number of points per batch           ...       63
Average number of grid points per atom       ...     4701

--------------------
COSX GRID GENERATION
--------------------

GRIDX 1
-------
General Integration Accuracy     IntAcc      ... 3.816
Radial Grid Type                 RadialGrid  ... OptM3 with GC (2021)
Angular Grid (max. ang.)         AngularGrid ... 1 (Lebedev-50)
Angular grid pruning method      GridPruning ... 4 (adaptive)
Weight generation scheme         WeightScheme... mBecke (2022)
Basis function cutoff            BFCut       ... 1.0000e-11
Integration weight cutoff        WCut        ... 1.0000e-14
Partially contracted basis set               ... on
Rotationally invariant grid construction     ... off
Angular grids for H and He will be reduced by one unit

Total number of grid points                  ...     3615
Total number of batches                      ...       30
Average number of points per batch           ...      120
Average number of grid points per atom       ...      602
UseSFitting                                  ... on

GRIDX 2
-------
General Integration Accuracy     IntAcc      ... 4.020
Radial Grid Type                 RadialGrid  ... OptM3 with GC (2021)
Angular Grid (max. ang.)         AngularGrid ... 2 (Lebedev-110)
Angular grid pruning method      GridPruning ... 4 (adaptive)
Weight generation scheme         WeightScheme... mBecke (2022)
Basis function cutoff            BFCut       ... 1.0000e-11
Integration weight cutoff        WCut        ... 1.0000e-14
Partially contracted basis set               ... on
Rotationally invariant grid construction     ... off
Angular grids for H and He will be reduced by one unit

Total number of grid points                  ...     7981
Total number of batches                      ...       66
Average number of points per batch           ...      120
Average number of grid points per atom       ...     1330
UseSFitting                                  ... on

GRIDX 3
-------
General Integration Accuracy     IntAcc      ... 4.338
Radial Grid Type                 RadialGrid  ... OptM3 with GC (2021)
Angular Grid (max. ang.)         AngularGrid ... 3 (Lebedev-194)
Angular grid pruning method      GridPruning ... 4 (adaptive)
Weight generation scheme         WeightScheme... mBecke (2022)
Basis function cutoff            BFCut       ... 1.0000e-11
Integration weight cutoff        WCut        ... 1.0000e-14
Partially contracted basis set               ... on
Rotationally invariant grid construction     ... off
Angular grids for H and He will be reduced by one unit

Total number of grid points                  ...    17684
Total number of batches                      ...      141
Average number of points per batch           ...      125
Average number of grid points per atom       ...     2947
UseSFitting                                  ... on
Grids setup in   0.2 sec
Initializing property integral containers    ... done (  0.0 sec)

SHARK setup successfully completed in   0.2 seconds

Maximum memory used throughout the entire STARTUP-calculation: 12.7 MB
-------------------------------------------------------------------------------
                                 ORCA GUESS
                   Start orbitals & Density for SCF / CASSCF
-------------------------------------------------------------------------------

------------
SCF SETTINGS
------------
Hamiltonian:
 Density Functional     Method          .... DFT(GTOs)
 Exchange Functional    Exchange        .... B88
   X-Alpha parameter    XAlpha          ....  0.666667
   Becke's b parameter  XBeta           ....  0.004200
 Correlation Functional Correlation     .... LYP
 LDA part of GGA corr.  LDAOpt          .... VWN-5
 Gradients option       PostSCFGGA      .... off
 Hybrid DFT is turned on
   Fraction HF Exchange ScalHFX         ....  0.200000
   Scaling of DF-GGA-X  ScalDFX         ....  0.720000
   Scaling of DF-GGA-C  ScalDFC         ....  0.810000
   Scaling of DF-LDA-C  ScalLDAC        ....  1.000000
   Perturbative correction              ....  0.000000
   NL short-range parameter             ....  4.800000
 RI-approximation to the Coulomb term is turned on
   Number of AuxJ basis functions       .... 180
   RIJ-COSX (HFX calculated with COS-X)).... on


General Settings:
 Integral files         IntName         .... /home/rzhu16/orca_TS_search/sn2/TS_search/sn2
 Hartree-Fock type      HFTyp           .... RHF
 Total Charge           Charge          ....   -1
 Multiplicity           Mult            ....    1
 Number of Electrons    NEL             ....   28
 Basis Dimension        Dim             ....   57
 Nuclear Repulsion      ENuc            ....     64.1048648114 Eh

Convergence Acceleration:
 AO-DIIS                CNVDIIS         .... on
   Start iteration      DIISMaxIt       ....    12
   Startup error        DIISStart       ....  0.200000
   # of expansion vecs  DIISMaxEq       ....     5
   Bias factor          DIISBfac        ....   1.050
   Max. coefficient     DIISMaxC        ....  10.000
 MO-DIIS                CNVKDIIS        .... off
 Trust-Rad. Augm. Hess. CNVTRAH         .... auto
   Auto Start mean grad. ratio tolernc. ....  1.125000
   Auto Start start iteration           ....    50
   Auto Start num. interpolation iter.  ....    10
   Max. Number of Micro iterations      ....    24
   Max. Number of Macro iterations      .... Maxiter - #DIIS iter
   Number of Davidson start vectors     ....     2
   Converg. threshold    (grad. norm)   ....   1.000e-05
   Grad. Scal. Fac. for Micro threshold ....   0.100
   Minimum threshold for Micro iter.    ....   1.000e-02
   NR start threshold (gradient norm)   ....   1.000e-04
   Initial trust radius                 ....   0.400
   Minimum AH scaling param. (alpha)    ....   1.000
   Maximum AH scaling param. (alpha)    .... 1000.000
   Quad. conv. algorithm                .... NR
   White noise on init. David. guess    .... on
   Maximum white noise                  ....   0.010
   Pseudo random numbers                .... off
   Inactive MOs                         .... canonical
   Orbital update algorithm             .... Taylor
   Preconditioner                       .... Diag
   Full preconditioner red. dimension   ....   250
 SOSCF                 CNVSOSCF           .... on
   Start iteration     SOSCFMaxIt         ....   150
   Startup grad/error  SOSCFStart         ....  0.003300
   Hessian update      SOSCFHessUp        .... L-BFGS
   Autom. constraints  SOSCFAutoConstrain .... off
 Level Shifting         CNVShift        .... on
   Level shift para.    LevelShift      ....    0.2500
   Turn off err/grad.   ShiftErr        ....    0.0010
 Zerner damping         CNVZerner       .... off
 Static damping         CNVDamp         .... on
   Fraction old density DampFac         ....    0.7000
   Max. Damping (<1)    DampMax         ....    0.9800
   Min. Damping (>=0)   DampMin         ....    0.0000
   Turn off err/grad.   DampErr         ....    0.1000

SCF Procedure:
 Maximum # iterations   MaxIter         ....   125
 SCF integral mode      SCFMode         .... Direct
   Integral package                     .... SHARK and LIBINT hybrid scheme
 Reset frequency        DirectResetFreq ....    20
 Integral Threshold     Thresh          ....  2.500e-11 Eh
 Primitive CutOff       TCut            ....  2.500e-12 Eh

Convergence Tolerance:
 Convergence Check Mode ConvCheckMode   .... Total+1el-Energy
 Convergence forced     ConvForced      .... 0
 Energy Change          TolE            ....  1.000e-08 Eh
 1-El. energy change                    ....  1.000e-05 Eh
 Orbital Gradient       TolG            ....  1.000e-05
 Orbital Rotation angle TolX            ....  1.000e-05
 DIIS Error             TolErr          ....  5.000e-07

------------------------------
INITIAL GUESS: MODEL POTENTIAL
------------------------------
Loading Hartree-Fock densities                     ... done
Calculating cut-offs                               ... done
Initializing the effective Hamiltonian             ... done
Setting up the integral package (SHARK)            ... done
Starting the Coulomb interaction                   ... done (   0.0 sec)
Making the grid                                    ... done (   0.0 sec)
Mapping shells                                     ... done
Starting the XC term evaluation                    ... done (   0.0 sec)
  promolecular density results
     # of electrons  =     26.999182285
     EX              =    -25.975509101
     EC              =     -0.943183641
     EX+EC           =    -26.918692742
Transforming the Hamiltonian                       ... done (   0.0 sec)
Diagonalizing the Hamiltonian                      ... done (   0.0 sec)
Back transforming the eigenvectors                 ... done (   0.0 sec)
Now organizing SCF variables                       ... done
                      ------------------
                      INITIAL GUESS DONE (   0.0 sec)
                      ------------------
             **** ENERGY FILE WAS UPDATED (/home/rzhu16/orca_TS_search/sn2/TS_search/sn2.en.tmp) ****
Finished Guess after   0.1 sec
Maximum memory used throughout the entire GUESS-calculation: 6.3 MB

-------------------------------------------------------------------------------------------
                                      ORCA LEAN-SCF
                              memory conserving SCF solver
-------------------------------------------------------------------------------------------

----------------------------------------D-I-I-S--------------------------------------------
Iteration    Energy (Eh)           Delta-E    RMSDP     MaxDP     DIISErr   Damp  Time(sec)
-------------------------------------------------------------------------------------------
               ***  Starting incremental Fock matrix formation  ***
    1    -239.1138922174358754     0.00e+00  6.98e-03  7.39e-02  2.76e-01  0.700   0.3
    2    -239.1763061005249256    -6.24e-02  4.29e-03  4.12e-02  1.12e-01  0.700   0.2
                               ***Turning on AO-DIIS***
    3    -239.1992467284512713    -2.29e-02  1.77e-03  1.96e-02  3.70e-02  0.700   0.2
    4    -239.2138713822786826    -1.46e-02  3.32e-03  3.65e-02  1.93e-02  0.000   0.2
    5    -239.2466094921388731    -3.27e-02  3.93e-04  6.75e-03  7.15e-03  0.000   0.2
                              *** Initializing SOSCF ***
---------------------------------------S-O-S-C-F--------------------------------------
Iteration    Energy (Eh)           Delta-E    RMSDP     MaxDP     MaxGrad    Time(sec)
--------------------------------------------------------------------------------------
    6    -239.2467053364195522    -9.58e-05  1.09e-04  1.27e-03  7.45e-04     0.2
               *** Restarting incremental Fock matrix formation ***
    7    -239.2467216937628223    -1.64e-05  9.47e-05  1.20e-03  1.59e-04     0.2
    8    -239.2467219079818506    -2.14e-07  3.01e-05  3.44e-04  1.46e-04     0.2
    9    -239.2467220700151529    -1.62e-07  1.98e-05  2.50e-04  6.71e-05     0.2
   10    -239.2467220752196795    -5.20e-09  4.96e-06  5.96e-05  5.36e-05     0.2
                 **** Energy Check signals convergence ****

               *****************************************************
               *                     SUCCESS                       *
               *           SCF CONVERGED AFTER  10 CYCLES          *
               *****************************************************

Recomputing exchange energy using gridx3       ... done (    0.325 sec)
Old exchange energy                            :     -5.314644995 Eh
New exchange energy                            :     -5.314528154 Eh
Exchange energy change after final integration :      0.000116842 Eh
Total energy after final integration           :   -239.246605253 Eh
             **** ENERGY FILE WAS UPDATED (/home/rzhu16/orca_TS_search/sn2/TS_search/sn2.en.tmp) ****

----------------
TOTAL SCF ENERGY
----------------

Total Energy       :       -239.24660525255968 Eh           -6510.23110 eV

Components:
Nuclear Repulsion  :         64.10486481143532 Eh            1744.38205 eV
Electronic Energy  :       -303.35158690557228 Eh           -8254.61634 eV
One Electron Energy:       -468.12953158216300 Eh          -12738.45216 eV
Two Electron Energy:        164.77794467659072 Eh            4483.83583 eV

Virial components:
Potential Energy   :       -477.03596391920564 Eh          -12980.80851 eV
Kinetic Energy     :        237.78935866664594 Eh            6470.57741 eV
Virial Ratio       :          2.00612830865975

DFT components:
N(Alpha)           :       14.000003954791 electrons
N(Beta)            :       14.000003954791 electrons
N(Total)           :       28.000007909582 electrons
E(X)               :      -21.164275740154 Eh       
E(C)               :       -1.157365474595 Eh       
E(XC)              :      -22.321641214749 Eh       

---------------
SCF CONVERGENCE
---------------

  Last Energy change         ...    5.2045e-09  Tolerance :   1.0000e-08
  Last MAX-Density change    ...    5.9556e-05  Tolerance :   1.0000e-07
  Last RMS-Density change    ...    4.9580e-06  Tolerance :   5.0000e-09
  Last DIIS Error            ...    7.4503e-04  Tolerance :   5.0000e-07
  Last Orbital Gradient      ...    5.3550e-05  Tolerance :   1.0000e-05
  Last Orbital Rotation      ...    1.9124e-05  Tolerance :   1.0000e-05


----------------
ORBITAL ENERGIES
----------------

  NO   OCC          E(Eh)            E(eV) 
   0   2.0000     -24.297179      -661.1599 
   1   2.0000     -24.297057      -661.1565 
   2   2.0000     -10.034113      -273.0421 
   3   2.0000      -0.747666       -20.3450 
   4   2.0000      -0.743029       -20.2188 
   5   2.0000      -0.451976       -12.2989 
   6   2.0000      -0.224644        -6.1129 
   7   2.0000      -0.224631        -6.1125 
   8   2.0000      -0.113226        -3.0810 
   9   2.0000      -0.040063        -1.0902 
  10   2.0000      -0.040040        -1.0895 
  11   2.0000      -0.029163        -0.7936 
  12   2.0000      -0.029143        -0.7930 
  13   2.0000      -0.019843        -0.5399 
  14   0.0000       0.264618         7.2006 
  15   0.0000       0.266321         7.2470 
  16   0.0000       0.325896         8.8681 
  17   0.0000       0.325947         8.8695 
  18   0.0000       0.665270        18.1029 
  19   0.0000       0.665409        18.1067 
  20   0.0000       0.787141        21.4192 
  21   0.0000       0.806295        21.9404 
  22   0.0000       0.872724        23.7480 
  23   0.0000       0.872807        23.7503 
  24   0.0000       0.960004        26.1230 
*Only the first 10 virtual orbitals were printed.

                    ********************************
                    * MULLIKEN POPULATION ANALYSIS *
                    ********************************

-----------------------
MULLIKEN ATOMIC CHARGES
-----------------------
   0 C :    0.312995
   1 H :   -0.014345
   2 H :   -0.014519
   3 H :   -0.014519
   4 F :   -0.634806
   5 F :   -0.634806
Sum of atomic charges:   -1.0000000

--------------------------------
MULLIKEN REDUCED ORBITAL CHARGES
--------------------------------
  0 C s       :     3.071122  s :     3.071122
      pz      :     0.602270  p :     2.582424
      px      :     0.990061
      py      :     0.990094
      dz2     :     0.015904  d :     0.033459
      dxz     :     0.001789
      dyz     :     0.001789
      dx2y2   :     0.006983
      dxy     :     0.006994

  1 H s       :     0.990466  s :     0.990466
      pz      :     0.005420  p :     0.023879
      px      :     0.004853
      py      :     0.013607

  2 H s       :     0.990629  s :     0.990629
      pz      :     0.005421  p :     0.023889
      px      :     0.011423
      py      :     0.007045

  3 H s       :     0.990629  s :     0.990629
      pz      :     0.005421  p :     0.023889
      px      :     0.011423
      py      :     0.007045

  4 F s       :     3.967796  s :     3.967796
      pz      :     1.694943  p :     5.666098
      px      :     1.985576
      py      :     1.985580
      dz2     :     0.000590  d :     0.000913
      dxz     :     0.000159
      dyz     :     0.000159
      dx2y2   :     0.000002
      dxy     :     0.000002

  5 F s       :     3.967796  s :     3.967796
      pz      :     1.694943  p :     5.666098
      px      :     1.985576
      py      :     1.985580
      dz2     :     0.000590  d :     0.000913
      dxz     :     0.000159
      dyz     :     0.000159
      dx2y2   :     0.000002
      dxy     :     0.000002



                     *******************************
                     * LOEWDIN POPULATION ANALYSIS *
                     *******************************

----------------------
LOEWDIN ATOMIC CHARGES
----------------------
   0 C :    0.169223
   1 H :   -0.002339
   2 H :   -0.002424
   3 H :   -0.002424
   4 F :   -0.581018
   5 F :   -0.581018

-------------------------------
LOEWDIN REDUCED ORBITAL CHARGES
-------------------------------
  0 C s       :     2.933497  s :     2.933497
      pz      :     0.657055  p :     2.821494
      px      :     1.082249
      py      :     1.082189
      dz2     :     0.036270  d :     0.075786
      dxz     :     0.002821
      dyz     :     0.002821
      dx2y2   :     0.016927
      dxy     :     0.016948

  1 H s       :     0.934458  s :     0.934458
      pz      :     0.012692  p :     0.067881
      px      :     0.010833
      py      :     0.044356

  2 H s       :     0.934501  s :     0.934501
      pz      :     0.012703  p :     0.067924
      px      :     0.035988
      py      :     0.019232

  3 H s       :     0.934501  s :     0.934501
      pz      :     0.012703  p :     0.067924
      px      :     0.035988
      py      :     0.019232

  4 F s       :     3.912208  s :     3.912208
      pz      :     1.700752  p :     5.667736
      px      :     1.983490
      py      :     1.983494
      dz2     :     0.000779  d :     0.001074
      dxz     :     0.000145
      dyz     :     0.000145
      dx2y2   :     0.000003
      dxy     :     0.000003

  5 F s       :     3.912208  s :     3.912208
      pz      :     1.700752  p :     5.667736
      px      :     1.983490
      py      :     1.983494
      dz2     :     0.000779  d :     0.001074
      dxz     :     0.000145
      dyz     :     0.000145
      dx2y2   :     0.000003
      dxy     :     0.000003



                      *****************************
                      * MAYER POPULATION ANALYSIS *
                      *****************************

  NA   - Mulliken gross atomic population
  ZA   - Total nuclear charge
  QA   - Mulliken gross atomic charge
  VA   - Mayer's total valence
  BVA  - Mayer's bonded valence
  FA   - Mayer's free valence

  ATOM       NA         ZA         QA         VA         BVA        FA
  0 C      5.6870     6.0000     0.3130     3.9637     3.9637    -0.0000
  1 H      1.0143     1.0000    -0.0143     1.0169     1.0169    -0.0000
  2 H      1.0145     1.0000    -0.0145     1.0170     1.0170    -0.0000
  3 H      1.0145     1.0000    -0.0145     1.0170     1.0170    -0.0000
  4 F      9.6348     9.0000    -0.6348     0.6035     0.6035    -0.0000
  5 F      9.6348     9.0000    -0.6348     0.6035     0.6035    -0.0000

  Mayer bond orders larger than 0.100000
B(  0-C ,  1-H ) :   0.9881 B(  0-C ,  2-H ) :   0.9881 B(  0-C ,  3-H ) :   0.9881 
B(  0-C ,  4-F ) :   0.4997 B(  0-C ,  5-F ) :   0.4997 

-------
TIMINGS
-------

Total SCF time: 0 days 0 hours 0 min 2 sec 

Total time                  ....       2.605 sec
Sum of individual times     ....       2.321 sec  ( 89.1%)

SCF preparation             ....       0.054 sec  (  2.1%)
Fock matrix formation       ....       2.226 sec  ( 85.4%)
  Startup                   ....       0.002 sec  (  0.1% of F)
  Split-RI-J                ....       0.125 sec  (  5.6% of F)
  Chain of spheres X        ....       1.565 sec  ( 70.3% of F)
  XC integration            ....       0.752 sec  ( 33.8% of F)
    Basis function eval.    ....       0.296 sec  ( 39.3% of XC)
    Density eval.           ....       0.089 sec  ( 11.8% of XC)
    XC-Functional eval.     ....       0.158 sec  ( 21.0% of XC)
    XC-Potential eval.      ....       0.098 sec  ( 13.1% of XC)
Diagonalization             ....       0.000 sec  (  0.0%)
Density matrix formation    ....       0.008 sec  (  0.3%)
Total Energy calculation    ....       0.003 sec  (  0.1%)
Population analysis         ....       0.004 sec  (  0.2%)
Orbital Transformation      ....       0.002 sec  (  0.1%)
Orbital Orthonormalization  ....       0.000 sec  (  0.0%)
DIIS solution               ....       0.017 sec  (  0.6%)
SOSCF solution              ....       0.008 sec  (  0.3%)
Finished LeanSCF after   2.6 sec

Maximum memory used throughout the entire LEANSCF-calculation: 7.0 MB

------------------------------------------------------------------------------
                         ORCA PROPERTY INTEGRAL CALCULATIONS
------------------------------------------------------------------------------

GBWName                                   ... /home/rzhu16/orca_TS_search/sn2/TS_search/sn2.gbw
Number of atoms                           ...      6
Number of basis functions                 ...     57
Max core memory                           ...   4096 MB

Dipole integrals                          ... YES
Quadrupole integrals                      ...  NO
Linear momentum integrals                 ...  NO
Angular momentum integrals                ...  NO
Higher moments length integrals           ...  NO
Higher moments velocity integrals         ...  NO
Kinetic energy integrals                  ...  NO
GIAO right hand sides                     ...  NO
GIAO dipole derivative integrals          ...  NO
SOC integrals                             ...  NO
EPR diamagnetic integrals (GIAO)          ...  NO
EPR gauge integrals                       ...  NO
Field gradient integrals                  ...  NO (   0 nuclei)
Spin-dipole/Fermi contact integrals       ...  NO (   0 nuclei)
Contact density integrals                 ...  NO (   0 nuclei)
Nucleus-orbit integrals                   ...  NO (   0 nuclei)
Geometric perturbations                   ...  NO (   6 nuclei)

Choice of electric origin   ... Center of mass
Position of electric origin ... ( -0.0000, -0.0000,  0.0000) 
Choice of magnetic origin   ... GIAO
Position of magnetic origin ... (  0.0000,  0.0000,  0.0000) 

Calculating integrals                     ... Electric Dipole (Length)     done (  0.0 sec)

Property integrals calculated in   0.0 sec

Maximum memory used throughout the entire PROPINT-calculation: 6.3 MB

-------------------------   --------------------
FINAL SINGLE POINT ENERGY      -239.246605252560
-------------------------   --------------------

------------------------------------------------------------------------------
                         ORCA SCF GRADIENT CALCULATION
------------------------------------------------------------------------------

Nuc. rep. gradient        (SHARK) ... done (  0.0 sec)
HCore & Overlap gradient  (SHARK) ... done (  0.0 sec)
Split-RIJ-J gradient      (SHARK) ... done (  0.1 sec)
done (  1.5 sec)
XC gradient                       ... done (  0.3 sec)

------------------
CARTESIAN GRADIENT
------------------

   1   C   :    0.000000035   -0.000176864   -0.000000041
   2   H   :   -0.000000034   -0.002222404   -0.000000021
   3   H   :   -0.002103417    0.001198183   -0.000000013
   4   H   :    0.002103392    0.001198168   -0.000000009
   5   F   :    0.000000010    0.000001475    0.013951776
   6   F   :    0.000000014    0.000001442   -0.013951692

Difference to translation invariance:
           :   -0.0000000000    0.0000000000   -0.0000000000

Difference to rotation invariance:
           :   -0.0000001374   -0.0000000037    0.0000000706

Norm of the Cartesian gradient     ...    0.0201492429
RMS gradient                       ...    0.0047492221
MAX gradient                       ...    0.0139517756

-------
TIMINGS
-------

Total SCF gradient time     ....        1.947 sec

Densities                   ....       0.000 sec  (  0.0%)
One electron gradient       ....       0.010 sec  (  0.5%)
RI-J Coulomb gradient       ....       0.109 sec  (  5.6%)
COSX gradient               ....       1.529 sec  ( 78.6%)
XC gradient                 ....       0.298 sec  ( 15.3%)

Maximum memory used throughout the entire SCFGRAD-calculation: 8.8 MB

------------------------------------------------------------------------------
                         ORCA PROPERTY INTEGRAL CALCULATIONS
------------------------------------------------------------------------------

GBWName                                   ... /home/rzhu16/orca_TS_search/sn2/TS_search/sn2.gbw
Number of atoms                           ...      6
Number of basis functions                 ...     57
Max core memory                           ...   4096 MB

Dipole integrals                          ...  NO
Quadrupole integrals                      ...  NO
Linear momentum integrals                 ...  NO
Angular momentum integrals                ...  NO
Higher moments length integrals           ...  NO
Higher moments velocity integrals         ...  NO
Kinetic energy integrals                  ...  NO
GIAO right hand sides                     ...  NO
GIAO dipole derivative integrals          ...  NO
SOC integrals                             ...  NO
EPR diamagnetic integrals (GIAO)          ...  NO
EPR gauge integrals                       ...  NO
Field gradient integrals                  ...  NO (   0 nuclei)
Spin-dipole/Fermi contact integrals       ...  NO (   0 nuclei)
Contact density integrals                 ...  NO (   0 nuclei)
Nucleus-orbit integrals                   ...  NO (   0 nuclei)
Geometric perturbations                   ... YES (   6 nuclei)

Choice of electric origin   ... Center of mass
Position of electric origin ... ( -0.0000, -0.0000,  0.0000) 
Choice of magnetic origin   ... GIAO
Position of magnetic origin ... (  0.0000,  0.0000,  0.0000) 

Calculating integrals                     ... Geometrical perturbation right hand sides

-----------------------
GEOMETRIC PERTURBATIONS (6 nuclei)
-----------------------

MaxCore                            ...   4096 MB
Number of batches                  ...      1

BATCH   0: Atoms    0 -    5 ( 18 perturbations)
   => H(core) and overlap derivative integrals     ... done (     0.1 sec)
   => Making and storing internal U-coefficients   ... done (     0.0 sec)
   => RI-J derivative integrals                    ... done (     0.2 sec)
   => RI-J response operators                      ... done (     0.0 sec)
   => Chain of spheres derivative integrals        ... done (     0.7 sec)
   => Chain of spheres response operator           ... done (     0.3 sec)
   => XC derivative integrals                      ... done (     1.7 sec)
   => XC response operators                        ... done (     0.4 sec)
   => Completing and storing right hand sides      ... done (     0.0 sec)
   => Total time for right hand sides =   3.8 sec

  geometrical perturbations done (  3.8 sec)

Property integrals calculated in   3.8 sec

Maximum memory used throughout the entire PROPINT-calculation: 11.2 MB
------------------------------------------------------------------------------
                            ORCA SCF RESPONSE CALCULATION
------------------------------------------------------------------------------

GBWName                                 ... /home/rzhu16/orca_TS_search/sn2/TS_search/sn2.gbw
Number of atoms                         ...      6
Number of basis functions               ...     57
Max core memory                         ...   4096 MB

Electric field perturbation             ...  NO
Quadrupolar field perturbation          ...  NO
Magnetic field perturbation (no GIAO)   ...  NO
Magnetic field perturbation (with GIAO) ...  NO
Linear momentum (velocity) perturbation ...  NO
Spin-orbit coupling perturbation        ...  NO
Choice of electric origin               ... Center of mass
Position of electric origin             ...    -0.000000    -0.000000     0.000000
Choice of magnetic origin               ... GIAO
Position of magnetic origin             ...     0.000000     0.000000     0.000000
Nuclear geometric perturbations         ... YES (  18 perturbations)
Nucleus-orbit perturbations             ...  NO (   0 perturbations)
Spin-dipole/Fermi contact perturbations ...  NO (   0 perturbations)

Total number of real perturbations      ...     18
Total number of imaginary perturbations ...      0
Total number of triplet perturbations   ...      0
Total number of SOC perturbations       ...      0


                                **********************
                                * REAL PERTURBATIONS *
                                **********************



-------------------
SHARK CP-SCF DRIVER
-------------------

Dimension of the orbital basis          ...     57
Dimension of the CPSCF-problem          ...    602
Number of operators                     ...      1
Max. number of iterations               ...    128
Convergence Tolerance                   ... 1.0e-04
Number of perturbations                 ...     18
Perturbation type                       ... REAL

----------------------------
POPLE LINEAR EQUATION SOLVER
----------------------------

  ITERATION   0:   ||err||_max =   1.4301e-01 (   0.3 sec   0/ 18 done)
  ITERATION   1:   ||err||_max =   3.5630e-02 (   0.2 sec   0/ 18 done)
  ITERATION   2:   ||err||_max =   6.3383e-03 (   0.2 sec   0/ 18 done)
  ITERATION   3:   ||err||_max =   1.3867e-03 (   0.2 sec   4/ 18 done)
  ITERATION   4:   ||err||_max =   4.6418e-04 (   0.2 sec  13/ 18 done)
  ITERATION   5:   ||err||_max =   8.9051e-05 (   0.1 sec  18/ 18 done)

CP-SCF equations solved in   1.4 sec
Response densities calculated in   0.0 sec

Maximum memory used throughout the entire SCFRESP-calculation: 10.5 MB

------------------------------------------------------------------------------
                              ORCA PROPERTY CALCULATIONS
------------------------------------------------------------------------------

GBWName                                 ... /home/rzhu16/orca_TS_search/sn2/TS_search/sn2.gbw
Number of atoms                         ...      6
Number of basis functions               ...     57
Max core memory                         ...   4096 MB

Electric properties:
Dipole moment                           ...  NO
Quadrupole moment                       ...  NO
Static polarizability (Dipole/Dipole)   ...  NO
Static polarizability (Dipole/Quad.)    ...  NO
Static polarizability (Quad./Quad.)     ...  NO
Static polarizability (Velocity)        ...  NO
Static hyperpolarizability              ...  NO

Atomic electric properties:
Dipole moment                           ...  NO
Quadrupole moment                       ...  NO
Static polarizability                   ...  NO

Choice of electric origin               ... Center of mass
Position of electric origin             ...    -0.000000    -0.000000     0.000000

General magnetic properties:
Magnetizability                         ...  NO

EPR properties:
g-Tensor (aka g-matrix)                 ...  NO
Zero-Field splitting spin-orbit         ...  NO
Zero-field splitting spin-spin          ...  NO
Hyperfine couplings                     ...  NO (   0 nuclei)
Quadrupole couplings                    ...  NO (   0 nuclei)
Contact density                         ...  NO (   0 nuclei)

NMR properties:
Chemical shifts                         ...  NO (   0 nuclei)
Spin-rotation constants                 ...  NO (   0 nuclei)
Spin-spin couplings                     ...  NO (   0 nuclei,    0 pairs)

Choice of magnetic origin               ... GIAO
Position of magnetic origin             ...     0.000000     0.000000     0.000000

Properties with geometric perturbations:
SCF Hessian                             ... YES
IR spectrum                             ... YES
VCD spectrum                            ...  NO
X-ray spectroscopy properties:
SCF XES/XAS/RIXS spectra                ...  NO

SCF SOC stabilization energy            ...  NO
Diagonal Born-Oppenheimer correction    ...  NO

-----------
SCF HESSIAN
-----------

Occupied/Occupied contributions to the Hessian:
   => Occupied/Occupied contributions              ... done (  0.0 sec)
Perturbed density contributions to the Hessian:
   => Perturbed density contributions              ... done (  0.0 sec)
Explicit contributions to the Hessian:
   => Nuclear repulsion Hessian                    ... done (  0.0 sec)
   => HCore and overlap Hessian                    ... done (  0.2 sec)
   => RI-J Hessian                                 ... done (  1.0 sec)
   => COSX Hessian                                 ... done ( 14.3 sec)
   => XC-Hessian                                   ... done (  1.9 sec)
   => Explicit contributions done
Dipole derivatives                                 ... done (  0.0 sec)
Mass weighting the Hessian           ... done
Calculating normal modes             ... done
Scaling frequencies                  ... done

-----------------------
VIBRATIONAL FREQUENCIES
-----------------------

Scaling factor for frequencies =  1.000000000  (already applied!)

     0:       0.00 cm**-1
     1:       0.00 cm**-1
     2:       0.00 cm**-1
     3:       0.00 cm**-1
     4:       0.00 cm**-1
     5:       0.00 cm**-1
     6:    -538.00 cm**-1  ***imaginary mode***
     7:     297.92 cm**-1
     8:     316.40 cm**-1
     9:     316.78 cm**-1
    10:     841.41 cm**-1
    11:     842.70 cm**-1
    12:    1000.62 cm**-1
    13:    1322.39 cm**-1
    14:    1322.98 cm**-1
    15:    3167.44 cm**-1
    16:    3382.22 cm**-1
    17:    3384.05 cm**-1


------------
NORMAL MODES
------------

These modes are the Cartesian displacements weighted by the diagonal matrix
M(i,i)=1/sqrt(m[i]) where m[i] is the mass of the displaced atom
Thus, these vectors are normalized but *not* orthogonal

                  0          1          2          3          4          5    
      0       0.000000   0.000000   0.000000   0.000000   0.000000   0.000000
      1       0.000000   0.000000   0.000000   0.000000   0.000000   0.000000
      2       0.000000   0.000000   0.000000   0.000000   0.000000   0.000000
      3       0.000000   0.000000   0.000000   0.000000   0.000000   0.000000
      4       0.000000   0.000000   0.000000   0.000000   0.000000   0.000000
      5       0.000000   0.000000   0.000000   0.000000   0.000000   0.000000
      6       0.000000   0.000000   0.000000   0.000000   0.000000   0.000000
      7       0.000000   0.000000   0.000000   0.000000   0.000000   0.000000
      8       0.000000   0.000000   0.000000   0.000000   0.000000   0.000000
      9       0.000000   0.000000   0.000000   0.000000   0.000000   0.000000
     10       0.000000   0.000000   0.000000   0.000000   0.000000   0.000000
     11       0.000000   0.000000   0.000000   0.000000   0.000000   0.000000
     12       0.000000   0.000000   0.000000   0.000000   0.000000   0.000000
     13       0.000000   0.000000   0.000000   0.000000   0.000000   0.000000
     14       0.000000   0.000000   0.000000   0.000000   0.000000   0.000000
     15       0.000000   0.000000   0.000000   0.000000   0.000000   0.000000
     16       0.000000   0.000000   0.000000   0.000000   0.000000   0.000000
     17       0.000000   0.000000   0.000000   0.000000   0.000000   0.000000
                  6          7          8          9         10         11    
      0       0.000000   0.000027   0.457063  -0.000328   0.000000  -0.000000
      1       0.000000  -0.001200   0.000328   0.457138  -0.000000  -0.000000
      2      -0.788970  -0.000000   0.000000   0.000000   0.000000   0.000279
      3       0.000000   0.000031   0.506188  -0.000363   0.000001   0.000000
      4       0.000000  -0.012788   0.000341   0.475684  -0.000000  -0.000000
      5       0.301034  -0.000001  -0.000001  -0.000000  -0.000288  -0.813979
      6      -0.000000  -0.009935   0.483297   0.012804   0.000001   0.000000
      7      -0.000000   0.004566   0.013584   0.498490   0.000000   0.000000
      8       0.304483   0.000000   0.000003  -0.000001  -0.706718   0.410590
      9       0.000001   0.009992   0.483277  -0.013496   0.000000  -0.000000
     10      -0.000000   0.004563  -0.012869   0.498508  -0.000000   0.000000
     11       0.304482  -0.000000  -0.000002   0.000001   0.707013   0.410087
     12      -0.000000  -0.000011  -0.183554   0.000132  -0.018457   0.000007
     13      -0.000052   0.000476  -0.000132  -0.183576  -0.000007  -0.018462
     14       0.225262   0.706963  -0.000010   0.000436  -0.000000  -0.000266
     15      -0.000000  -0.000011  -0.183554   0.000132   0.018456  -0.000007
     16       0.000052   0.000476  -0.000132  -0.183576   0.000007   0.018462
     17       0.225262  -0.706963   0.000009  -0.000436  -0.000000  -0.000266
                 12         13         14         15         16         17    
      0       0.000000   0.000082   0.097276   0.000000   0.000014   0.104400
      1       0.000000   0.097229  -0.000081  -0.000514   0.104416  -0.000014
      2       0.011160   0.000000   0.000000  -0.000000  -0.000000   0.000000
      3      -0.000000  -0.000677  -0.807131  -0.000000   0.000001   0.005732
      4       0.000000   0.093662  -0.000078   0.581508  -0.808701   0.000105
      5       0.579440  -0.000000  -0.000001   0.000000   0.000000  -0.000000
      6      -0.000000  -0.390351  -0.131271   0.498110   0.356823  -0.607574
      7      -0.000000  -0.582215  -0.389659  -0.287766  -0.200378   0.354208
      8       0.574133  -0.000000  -0.000001   0.000000  -0.000000  -0.000000
      9      -0.000000   0.390130  -0.131925  -0.498112  -0.356982  -0.607479
     10       0.000000  -0.581561   0.390635  -0.287767  -0.200470  -0.354155
     11       0.574128   0.000000   0.000000   0.000000  -0.000000   0.000000
     12       0.000000  -0.000002  -0.002355  -0.000000  -0.000000  -0.000920
     13       0.000080  -0.002346   0.000002   0.000004  -0.000919   0.000000
     14      -0.049362   0.000006   0.000000   0.000750   0.000004  -0.000000
     15      -0.000000  -0.000002  -0.002355  -0.000000  -0.000000  -0.000920
     16      -0.000080  -0.002346   0.000002   0.000004  -0.000919   0.000000
     17      -0.049362  -0.000006  -0.000000  -0.000750  -0.000004   0.000000


-----------
IR SPECTRUM
-----------

 Mode   freq       eps      Int      T**2         TX        TY        TZ
       cm**-1   L/(mol*cm) km/mol    a.u.
----------------------------------------------------------------------------
  7:    297.92   0.000000    0.00  0.000000  ( 0.000002 -0.000100  0.000000)
  8:    316.40   0.004446   22.47  0.004385  ( 0.066223  0.000047  0.000000)
  9:    316.78   0.004447   22.47  0.004381  (-0.000047  0.066188  0.000000)
 10:    841.41   0.000000    0.00  0.000000  ( 0.000000 -0.000000  0.000000)
 11:    842.70   0.000000    0.00  0.000000  (-0.000000  0.000000  0.000208)
 12:   1000.62   0.000284    1.44  0.000089  (-0.000000 -0.000000  0.009412)
 13:   1322.39   0.000461    2.33  0.000109  (-0.000009 -0.010434  0.000000)
 14:   1322.98   0.000455    2.30  0.000107  (-0.010361  0.000009  0.000000)
 15:   3167.44   0.000000    0.00  0.000000  ( 0.000000 -0.000065 -0.000000)
 16:   3382.22   0.004157   21.01  0.000384  ( 0.000003  0.019585  0.000000)
 17:   3384.05   0.004148   20.96  0.000382  ( 0.019557 -0.000003  0.000000)

* The epsilon (eps) is given for a Dirac delta lineshape.
** The dipole moment derivative (T) already includes vibrational overlap.

The first frequency considered to be a vibration is 7
The total number of vibrations considered is 11


--------------------------
THERMOCHEMISTRY AT 298.15K
--------------------------

Temperature         ...   298.15 K
Pressure            ...     1.00 atm
Total Mass          ...    53.03 AMU
Quasi RRHO          ...     True
Cut-Off Frequency   ...     1.00 cm^-1

Throughout the following assumptions are being made:
  (1) The electronic state is orbitally nondegenerate
  (2) There are no thermally accessible electronically excited states
  (3) Hindered rotations indicated by low frequency modes are not
      treated as such but are treated as vibrations and this may
      cause some error
  (4) All equations used are the standard statistical mechanics
      equations for an ideal gas
  (5) All vibrations are strictly harmonic

freq.     297.92  E(vib)   ...       0.27 
freq.     316.40  E(vib)   ...       0.25 
freq.     316.78  E(vib)   ...       0.25 
freq.     841.41  E(vib)   ...       0.04 
freq.     842.70  E(vib)   ...       0.04 
freq.    1000.62  E(vib)   ...       0.02 
freq.    1322.39  E(vib)   ...       0.01 
freq.    1322.98  E(vib)   ...       0.01 
freq.    3167.44  E(vib)   ...       0.00 
freq.    3382.22  E(vib)   ...       0.00 
freq.    3384.05  E(vib)   ...       0.00 

------------
INNER ENERGY
------------

The inner energy is: U= E(el) + E(ZPE) + E(vib) + E(rot) + E(trans)
    E(el)   - is the total energy from the electronic structure calculation
              = E(kin-el) + E(nuc-el) + E(el-el) + E(nuc-nuc)
    E(ZPE)  - the the zero temperature vibrational energy from the frequency calculation
    E(vib)  - the the finite temperature correction to E(ZPE) due to population
              of excited vibrational states
    E(rot)  - is the rotational thermal energy
    E(trans)- is the translational thermal energy

Summary of contributions to the inner energy U:
Electronic energy                ...   -239.24660525 Eh
Zero point energy                ...      0.03689472 Eh      23.15 kcal/mol
Thermal vibrational correction   ...      0.00141385 Eh       0.89 kcal/mol
Thermal rotational correction    ...      0.00141627 Eh       0.89 kcal/mol
Thermal translational correction ...      0.00141627 Eh       0.89 kcal/mol
-----------------------------------------------------------------------
Total thermal energy                   -239.20546414 Eh


Summary of corrections to the electronic energy:
(perhaps to be used in another calculation)
Total thermal correction                  0.00424640 Eh       2.66 kcal/mol
Non-thermal (ZPE) correction              0.03689472 Eh      23.15 kcal/mol
-----------------------------------------------------------------------
Total correction                          0.04114112 Eh      25.82 kcal/mol


--------
ENTHALPY
--------

The enthalpy is H = U + kB*T
                kB is Boltzmann's constant
Total thermal energy              ...   -239.20546414 Eh 
Thermal Enthalpy correction       ...      0.00094421 Eh       0.59 kcal/mol
-----------------------------------------------------------------------
Total Enthalpy                    ...   -239.20451993 Eh


Note: Rotational entropy computed according to Herzberg 
Infrared and Raman Spectra, Chapter V,1, Van Nostrand Reinhold, 1945 
Point Group:  C2v, Symmetry Number:   2  
Rotational constants in cm-1:     4.780908     0.121341     0.121340 

Vibrational entropy computed according to the QRRHO of S. Grimme
Chem.Eur.J. 2012 18 9955 using a reference frequency of 100.0 cm-1


-------
ENTROPY
-------

The entropy contributions are T*S = T*(S(el)+S(vib)+S(rot)+S(trans))
     S(el)   - electronic entropy
     S(vib)  - vibrational entropy
     S(rot)  - rotational entropy
     S(trans)- translational entropy
The entropies will be listed as multiplied by the temperature to get
units of energy

Electronic entropy                ...      0.00000000 Eh      0.00 kcal/mol
Vibrational entropy               ...      0.00218109 Eh      1.37 kcal/mol
Rotational entropy                ...      0.01010913 Eh      6.34 kcal/mol
Translational entropy             ...      0.01797291 Eh     11.28 kcal/mol
-----------------------------------------------------------------------
Final entropy term                ...      0.03026313 Eh     18.99 kcal/mol

In case the symmetry of your molecule has not been determined correctly
or in case you have a reason to use a different symmetry number we print 
out the resulting rotational entropy values for sn=1,12:

 non-linear molecules -----------------------------------
|  sn= 1 | S(rot)=       0.01076359 Eh      6.75 kcal/mol|
|  sn= 2 | S(rot)=       0.01010913 Eh      6.34 kcal/mol|
|  sn= 3 | S(rot)=       0.00972630 Eh      6.10 kcal/mol|
|  sn= 4 | S(rot)=       0.00945468 Eh      5.93 kcal/mol|
|  sn= 5 | S(rot)=       0.00924399 Eh      5.80 kcal/mol|
|  sn= 6 | S(rot)=       0.00907184 Eh      5.69 kcal/mol|
|  sn= 7 | S(rot)=       0.00892630 Eh      5.60 kcal/mol|
|  sn= 8 | S(rot)=       0.00880022 Eh      5.52 kcal/mol|
|  sn= 9 | S(rot)=       0.00868901 Eh      5.45 kcal/mol|
|  sn=10 | S(rot)=       0.00858953 Eh      5.39 kcal/mol|
|  sn=11 | S(rot)=       0.00849954 Eh      5.33 kcal/mol|
|  sn=12 | S(rot)=       0.00841739 Eh      5.28 kcal/mol|
 linear molecules ---------------------------------------
|  Dinfh | S(rot)=       0.00731723 Eh      4.59 kcal/mol|
|  Cinfv | S(rot)=       0.00797169 Eh      5.00 kcal/mol|
 --------------------------------------------------------


-------------------
GIBBS FREE ENERGY
-------------------

The Gibbs free energy is G = H - T*S

Total enthalpy                    ...   -239.20451993 Eh 
Total entropy correction          ...     -0.03026313 Eh    -18.99 kcal/mol
-----------------------------------------------------------------------
Final Gibbs free energy         ...   -239.23478306 Eh

For completeness - the Gibbs free energy minus the electronic energy
G-E(el)                           ...      0.01182219 Eh      7.42 kcal/mol


Maximum memory used throughout the entire PROP-calculation: 13.0 MB
Actual Hessian File stored as /home/rzhu16/orca_TS_search/sn2/TS_search/sn2.001.hess
------------------------------------------------------------------------------
                         ORCA GEOMETRY RELAXATION STEP
------------------------------------------------------------------------------

Reading the OPT-File                    .... done
Getting information on internals        .... done
Copying old internal coords+grads       .... done
Making the new internal coordinates     .... (2022 redundants) done
Validating the new internal coordinates .... (2022 redundants) done
Calculating the B-matrix                .... done
Calculating the G,G- and P matrices     .... done
Transforming gradient to internals      .... done
Projecting the internal gradient        .... done
Number of atoms                         ....   6
Number of internal coordinates          ....  14
Current Energy                          ....  -239.246605253 Eh
Current gradient norm                   ....     0.020149243 Eh/bohr
Maximum allowed component of the step   ....  0.300
Current trust radius                    ....  0.300
Evaluating the initial hessian          ....  (read) 
(Reading Exact Hessian)...  
InHessName: /home/rzhu16/orca_TS_search/sn2/TS_search/sn2.hess	The file </home/rzhu16/orca_TS_search/sn2/TS_search/sn2.hess> is opened as a .hess file
done
done
Projecting the Hessian                  .... done
Diagonalizing the Hessian               .... done
Dimension of the hessian                ....  14
Lowest eigenvalues of the Hessian:
 -0.030705075  0.057609374  0.057725772  0.063783177  0.081886079
Hessian has   1 negative eigenvalues
Taking P-RFO step
Searching for lambda that maximizes along the lowest mode
TS mode is mode number   0 with eigenvalue  -0.03070507 and components:
   1.    0.00000001
   2.   -0.00000004
   3.    0.00000001
   4.    0.57989772
   5.   -0.57989768
   6.    0.00000012
   7.   -0.00000033
   8.   -0.23321033
   9.   -0.23380718
  10.   -0.23380719
  11.    0.23321052
  12.    0.23380726
  13.    0.23380692
  14.    0.00000021

Lambda that maximizes along the TS mode:       0.00000000
Searching for lambda that minimizes along all other modes
In cycle   1: lambdaN =  -0.00564823   step =   0.00564823
In cycle   2: lambdaN =  -0.00568926   step =   0.00004104
In cycle   3: lambdaN =  -0.00568926   step =   0.00000000
Lambda that minimizes along all other modes:  -0.00568926
The final length of the internal step   ....       0.2855
Converting the step to Cartesian space:
 Initial RMS(Int)=    0.0762961821
Transforming coordinates:
 Iter   0:  RMS(Cart)=    0.0672869090 RMS(Int)=    0.0762961820
done
Storing new coordinates                 .... done

                                .--------------------.
          ----------------------|Geometry convergence|-------------------------
          Item                value                   Tolerance       Converged
          ---------------------------------------------------------------------
          RMS gradient        0.0053849055            0.0001000000      NO
          MAX gradient        0.0139517756            0.0003000000      NO
          RMS step            0.0762961821            0.0020000000      NO
          MAX step            0.2015409705            0.0040000000      NO
          -------------------------------------------------------------------------
          ........................................................
          Max(Bonds)      0.1067      Max(Angles)    0.01
          Max(Dihed)        0.00      Max(Improp)    0.00
          ---------------------------------------------------------------------

The optimization has not yet converged - more geometry cycles are needed


    ---------------------------------------------------------------------------
                         Redundant Internal Coordinates
                            (Angstroem and degrees)

        Definition                    Value    dE/dq     Step     New-Value  comp.(TS mode)
    ----------------------------------------------------------------------------
     1. B(H   1,C   0)                1.0800 -0.002222  0.0047    1.0847   
     2. B(H   2,C   0)                1.0797 -0.002421  0.0050    1.0847   
     3. B(H   3,C   0)                1.0797 -0.002421  0.0050    1.0847   
     4. B(F   4,C   0)                1.9000  0.013952 -0.1067    1.7933          0.58
     5. B(F   5,C   0)                1.9000  0.013952 -0.1067    1.7933          0.58
     6. A(H   1,C   0,H   3)          120.01  0.000010   -0.00    120.00   
     7. A(H   2,C   0,H   3)          119.98 -0.000020    0.01    119.99   
     8. A(H   1,C   0,F   4)           90.00 -0.000003    0.00     90.00   
     9. A(H   2,C   0,F   4)           90.00  0.000002   -0.00     90.00   
    10. A(H   3,C   0,F   4)           90.00  0.000002   -0.00     90.00   
    11. A(H   1,C   0,F   5)           90.00 -0.000004    0.00     90.00   
    12. A(H   2,C   0,F   5)           90.00  0.000002   -0.00     90.00   
    13. A(H   3,C   0,F   5)           90.00  0.000002   -0.00     90.00   
    14. A(H   1,C   0,H   2)          120.01  0.000010   -0.00    120.00   
    ----------------------------------------------------------------------------

Geometry step timings:
Preparation and reading OPT file:      0.000 s ( 0.848 %)
Internal coordinates            :      0.000 s ( 1.074 %)
B/P matrices and projection     :      0.000 s ( 3.033 %)
Hessian update/contruction      :      0.004 s (80.124 %)
Making the step                 :      0.000 s ( 4.145 %)
Converting the step to Cartesian:      0.000 s ( 1.149 %)
Storing new data                :      0.000 s ( 2.054 %)
Checking convergence            :      0.000 s ( 1.601 %)
Final printing                  :      0.000 s ( 5.595 %)
Total time                      :      0.005 s

Time for energy+gradient        :      5.354 s
Time for complete geometry iter :     28.466 s

         *************************************************************
         *                GEOMETRY OPTIMIZATION CYCLE   2            *
         *************************************************************
---------------------------------
CARTESIAN COORDINATES (ANGSTROEM)
---------------------------------
  C     -0.000000    0.000023   -0.000000
  H     -0.000000    1.084759    0.000000
  H      0.939366   -0.542402    0.000000
  H     -0.939366   -0.542402    0.000000
  F      0.000000    0.000010    1.793349
  F      0.000000    0.000011   -1.793349

----------------------------
CARTESIAN COORDINATES (A.U.)
----------------------------
  NO LB      ZA    FRAG     MASS         X           Y           Z
   0 C     6.0000    0    12.011   -0.000000    0.000044   -0.000001
   1 H     1.0000    0     1.008   -0.000000    2.049898    0.000000
   2 H     1.0000    0     1.008    1.775144   -1.024991    0.000001
   3 H     1.0000    0     1.008   -1.775145   -1.024991    0.000000
   4 F     9.0000    0    18.998    0.000000    0.000020    3.388939
   5 F     9.0000    0    18.998    0.000000    0.000020   -3.388939

--------------------------------
INTERNAL COORDINATES (ANGSTROEM)
--------------------------------
 C      0   0   0     0.000000000000     0.00000000     0.00000000
 H      1   0   0     1.084735725010     0.00000000     0.00000000
 H      1   2   0     1.084727488978   120.00375638     0.00000000
 H      1   2   3     1.084727443914   120.00375869   179.99991703
 F      1   2   3     1.793349440028    90.00040141    89.99994227
 F      1   2   3     1.793349111854    90.00043009   269.99995303

---------------------------
INTERNAL COORDINATES (A.U.)
---------------------------
 C      0   0   0     0.000000000000     0.00000000     0.00000000
 H      1   0   0     2.049853447949     0.00000000     0.00000000
 H      1   2   0     2.049837884105   120.00375638     0.00000000
 H      1   2   3     2.049837798946   120.00375869   179.99991703
 F      1   2   3     3.388939304074    90.00040141    89.99994227
[...]
Electronic contribution:      0.000000346       0.000126652       0.000001070
Nuclear contribution   :     -0.000000477       0.000094025      -0.000000785
                        -----------------------------------------
Total Dipole Moment    :     -0.000000131       0.000220677       0.000000285
                        -----------------------------------------
Magnitude (a.u.)       :      0.000220677
Magnitude (Debye)      :      0.000560917



--------------------
Rotational spectrum 
--------------------
 
Rotational constants in cm-1:             4.730129             0.134321             0.134321 
Rotational constants in MHz :        141805.702446          4026.839035          4026.834632 

Dipole components along the rotational axes: 
x,y,z [a.u.] :     0.000000     0.000221    -0.000000 
x,y,z [Debye]:     0.000001     0.000561    -0.000000 

 

Dipole moment calculation done in   0.0 sec 

-----------
SCF HESSIAN
-----------

Occupied/Occupied contributions to the Hessian:
   => Occupied/Occupied contributions              ... done (  0.0 sec)
Perturbed density contributions to the Hessian:
   => Perturbed density contributions              ... done (  0.0 sec)
Explicit contributions to the Hessian:
   => Nuclear repulsion Hessian                    ... done (  0.0 sec)
   => HCore and overlap Hessian                    ... done (  0.1 sec)
   => RI-J Hessian                                 ... done (  0.3 sec)
   => COSX Hessian                                 ... done ( 14.7 sec)
   => XC-Hessian                                   ... done (  1.9 sec)
   => Explicit contributions done
Dipole derivatives                                 ... done (  0.0 sec)
Mass weighting the Hessian           ... done
Calculating normal modes             ... done
Scaling frequencies                  ... done

-----------------------
VIBRATIONAL FREQUENCIES
-----------------------

Scaling factor for frequencies =  1.000000000  (already applied!)

     0:       0.00 cm**-1
     1:       0.00 cm**-1
     2:       0.00 cm**-1
     3:       0.00 cm**-1
     4:       0.00 cm**-1
     5:       0.00 cm**-1
     6:    -527.72 cm**-1  ***imaginary mode***
     7:     335.28 cm**-1
     8:     335.68 cm**-1
     9:     361.40 cm**-1
    10:     994.48 cm**-1
    11:     994.69 cm**-1
    12:    1126.96 cm**-1
    13:    1310.89 cm**-1
    14:    1311.23 cm**-1
    15:    3091.35 cm**-1
    16:    3299.82 cm**-1
    17:    3299.82 cm**-1


------------
NORMAL MODES
------------

These modes are the Cartesian displacements weighted by the diagonal matrix
M(i,i)=1/sqrt(m[i]) where m[i] is the mass of the displaced atom
Thus, these vectors are normalized but *not* orthogonal

                  0          1          2          3          4          5    
      0       0.000000   0.000000   0.000000   0.000000   0.000000   0.000000
      1       0.000000   0.000000   0.000000   0.000000   0.000000   0.000000
      2       0.000000   0.000000   0.000000   0.000000   0.000000   0.000000
      3       0.000000   0.000000   0.000000   0.000000   0.000000   0.000000
      4       0.000000   0.000000   0.000000   0.000000   0.000000   0.000000
      5       0.000000   0.000000   0.000000   0.000000   0.000000   0.000000
      6       0.000000   0.000000   0.000000   0.000000   0.000000   0.000000
      7       0.000000   0.000000   0.000000   0.000000   0.000000   0.000000
      8       0.000000   0.000000   0.000000   0.000000   0.000000   0.000000
      9       0.000000   0.000000   0.000000   0.000000   0.000000   0.000000
     10       0.000000   0.000000   0.000000   0.000000   0.000000   0.000000
     11       0.000000   0.000000   0.000000   0.000000   0.000000   0.000000
     12       0.000000   0.000000   0.000000   0.000000   0.000000   0.000000
     13       0.000000   0.000000   0.000000   0.000000   0.000000   0.000000
     14       0.000000   0.000000   0.000000   0.000000   0.000000   0.000000
     15       0.000000   0.000000   0.000000   0.000000   0.000000   0.000000
     16       0.000000   0.000000   0.000000   0.000000   0.000000   0.000000
     17       0.000000   0.000000   0.000000   0.000000   0.000000   0.000000
                  6          7          8          9         10         11    
      0       0.000000   0.446438   0.000038  -0.000001   0.000000   0.000000
      1      -0.000001  -0.000038   0.446493  -0.000147  -0.000000  -0.000000
      2      -0.779937   0.000000  -0.000001   0.000000   0.000000   0.000082
      3       0.000001   0.522934   0.000044  -0.000001   0.000000   0.000001
      4      -0.000001  -0.000040   0.465586  -0.026528   0.000000   0.000000
      5       0.312051  -0.000000  -0.000002   0.000001  -0.001069  -0.815795
      6       0.000001   0.480023   0.024879  -0.022924   0.000001   0.000000
      7      -0.000002   0.024939   0.508673   0.013081  -0.000000  -0.000001
      8       0.313098  -0.000002   0.000001  -0.000004   0.707374   0.407554
      9       0.000000   0.480027  -0.024797   0.022923   0.000000   0.000000
     10      -0.000001  -0.025026   0.508668   0.013082  -0.000000  -0.000001
     11       0.313096  -0.000000  -0.000000  -0.000001  -0.706299   0.409409
     12      -0.000000  -0.180467  -0.000015   0.000000   0.019539  -0.000026
     13      -0.000024   0.000015  -0.180483   0.000056  -0.000026  -0.019540
     14       0.221657   0.000000   0.000051   0.706365  -0.000000  -0.000057
     15      -0.000000  -0.180467  -0.000015   0.000000  -0.019539   0.000026
     16       0.000025   0.000015  -0.180482   0.000056   0.000026   0.019540
     17       0.221657  -0.000000  -0.000050  -0.706365  -0.000000  -0.000057
                 12         13         14         15         16         17    
      0       0.000000  -0.000098   0.100721  -0.000000   0.001442  -0.105003
      1       0.000000  -0.100689  -0.000098  -0.000081  -0.105014  -0.001442
      2       0.013186  -0.000000  -0.000000  -0.000000  -0.000000   0.000000
      3       0.000000   0.000787  -0.805994   0.000000   0.000032  -0.002301
      4       0.000000  -0.101314  -0.000099  -0.576874   0.812293   0.011157
      5       0.576492  -0.000000  -0.000000  -0.000000   0.000000   0.000000
      6       0.000000   0.393109  -0.125145  -0.500156  -0.360524   0.603502
      7      -0.000000   0.579474  -0.392298   0.288873   0.205985  -0.349821
      8       0.575534   0.000001   0.000001   0.000001   0.000000  -0.000001
      9       0.000000  -0.392864  -0.125912   0.500159   0.343814   0.613173
     10      -0.000000   0.578707   0.393429   0.288874   0.196300   0.355344
     11       0.575538   0.000001   0.000000   0.000000   0.000000   0.000000
     12      -0.000000   0.000004  -0.003797   0.000000  -0.000013   0.000976
     13       0.000016   0.003791   0.000004   0.000003   0.000974   0.000013
     14      -0.049999  -0.000000  -0.000000  -0.001720  -0.000002  -0.000000
     15       0.000000   0.000004  -0.003797   0.000000  -0.000013   0.000976
     16      -0.000016   0.003791   0.000004   0.000003   0.000974   0.000013
     17      -0.049999   0.000000   0.000000   0.001720   0.000002   0.000000


-----------
IR SPECTRUM
-----------

 Mode   freq       eps      Int      T**2         TX        TY        TZ
       cm**-1   L/(mol*cm) km/mol    a.u.
----------------------------------------------------------------------------
  7:    335.28   0.004314   21.80  0.004016  ( 0.063370 -0.000005  0.000000)
  8:    335.68   0.004320   21.83  0.004016  ( 0.000005  0.063372 -0.000000)
  9:    361.40   0.000000    0.00  0.000000  (-0.000000 -0.000043  0.000000)
 10:    994.48   0.000000    0.00  0.000000  ( 0.000000 -0.000000  0.000000)
 11:    994.69   0.000000    0.00  0.000000  ( 0.000000 -0.000000  0.000040)
 12:   1126.96   0.000393    1.98  0.000109  ( 0.000000 -0.000000  0.010426)
 13:   1310.89   0.000311    1.57  0.000074  ( 0.000008  0.008601 -0.000000)
 14:   1311.23   0.000302    1.53  0.000072  (-0.008475  0.000008  0.000000)
 15:   3091.35   0.000000    0.00  0.000000  (-0.000000 -0.000083 -0.000000)
 16:   3299.82   0.009019   45.58  0.000853  ( 0.000401 -0.029202 -0.000000)
 17:   3299.82   0.009025   45.61  0.000853  (-0.029212 -0.000401 -0.000000)

* The epsilon (eps) is given for a Dirac delta lineshape.
** The dipole moment derivative (T) already includes vibrational overlap.

The first frequency considered to be a vibration is 7
The total number of vibrations considered is 11


--------------------------
THERMOCHEMISTRY AT 298.15K
--------------------------

Temperature         ...   298.15 K
Pressure            ...     1.00 atm
Total Mass          ...    53.03 AMU
Quasi RRHO          ...     True
Cut-Off Frequency   ...     1.00 cm^-1

Throughout the following assumptions are being made:
  (1) The electronic state is orbitally nondegenerate
  (2) There are no thermally accessible electronically excited states
  (3) Hindered rotations indicated by low frequency modes are not
      treated as such but are treated as vibrations and this may
      cause some error
  (4) All equations used are the standard statistical mechanics
      equations for an ideal gas
  (5) All vibrations are strictly harmonic

freq.     335.28  E(vib)   ...       0.24 
freq.     335.68  E(vib)   ...       0.24 
freq.     361.40  E(vib)   ...       0.22 
freq.     994.48  E(vib)   ...       0.02 
freq.     994.69  E(vib)   ...       0.02 
freq.    1126.96  E(vib)   ...       0.01 
freq.    1310.89  E(vib)   ...       0.01 
freq.    1311.23  E(vib)   ...       0.01 
freq.    3091.35  E(vib)   ...       0.00 
freq.    3299.82  E(vib)   ...       0.00 
freq.    3299.82  E(vib)   ...       0.00 

------------
INNER ENERGY
------------

The inner energy is: U= E(el) + E(ZPE) + E(vib) + E(rot) + E(trans)
    E(el)   - is the total energy from the electronic structure calculation
              = E(kin-el) + E(nuc-el) + E(el-el) + E(nuc-nuc)
    E(ZPE)  - the the zero temperature vibrational energy from the frequency calculation
    E(vib)  - the the finite temperature correction to E(ZPE) due to population
              of excited vibrational states
    E(rot)  - is the rotational thermal energy
    E(trans)- is the translational thermal energy

Summary of contributions to the inner energy U:
Electronic energy                ...   -239.24935028 Eh
Zero point energy                ...      0.03750227 Eh      23.53 kcal/mol
Thermal vibrational correction   ...      0.00122328 Eh       0.77 kcal/mol
Thermal rotational correction    ...      0.00141627 Eh       0.89 kcal/mol
Thermal translational correction ...      0.00141627 Eh       0.89 kcal/mol
-----------------------------------------------------------------------
Total thermal energy                   -239.20779218 Eh


Summary of corrections to the electronic energy:
(perhaps to be used in another calculation)
Total thermal correction                  0.00405583 Eh       2.55 kcal/mol
Non-thermal (ZPE) correction              0.03750227 Eh      23.53 kcal/mol
-----------------------------------------------------------------------
Total correction                          0.04155809 Eh      26.08 kcal/mol


--------
ENTHALPY
--------

The enthalpy is H = U + kB*T
                kB is Boltzmann's constant
Total thermal energy              ...   -239.20779218 Eh 
Thermal Enthalpy correction       ...      0.00094421 Eh       0.59 kcal/mol
-----------------------------------------------------------------------
Total Enthalpy                    ...   -239.20684798 Eh


Note: Rotational entropy computed according to Herzberg 
Infrared and Raman Spectra, Chapter V,1, Van Nostrand Reinhold, 1945 
Point Group:  D3h, Symmetry Number:   6  
Rotational constants in cm-1:     4.730133     0.134321     0.134321 

Vibrational entropy computed according to the QRRHO of S. Grimme
Chem.Eur.J. 2012 18 9955 using a reference frequency of 100.0 cm-1


-------
ENTROPY
-------

The entropy contributions are T*S = T*(S(el)+S(vib)+S(rot)+S(trans))
     S(el)   - electronic entropy
     S(vib)  - vibrational entropy
     S(rot)  - rotational entropy
     S(trans)- translational entropy
The entropies will be listed as multiplied by the temperature to get
units of energy

Electronic entropy                ...      0.00000000 Eh      0.00 kcal/mol
Vibrational entropy               ...      0.00184920 Eh      1.16 kcal/mol
Rotational entropy                ...      0.00898092 Eh      5.64 kcal/mol
Translational entropy             ...      0.01797291 Eh     11.28 kcal/mol
-----------------------------------------------------------------------
Final entropy term                ...      0.02880303 Eh     18.07 kcal/mol

In case the symmetry of your molecule has not been determined correctly
or in case you have a reason to use a different symmetry number we print 
out the resulting rotational entropy values for sn=1,12:

 non-linear molecules -----------------------------------
|  sn= 1 | S(rot)=       0.01067267 Eh      6.70 kcal/mol|
|  sn= 2 | S(rot)=       0.01001821 Eh      6.29 kcal/mol|
|  sn= 3 | S(rot)=       0.00963538 Eh      6.05 kcal/mol|
|  sn= 4 | S(rot)=       0.00936376 Eh      5.88 kcal/mol|
|  sn= 5 | S(rot)=       0.00915307 Eh      5.74 kcal/mol|
|  sn= 6 | S(rot)=       0.00898092 Eh      5.64 kcal/mol|
|  sn= 7 | S(rot)=       0.00883538 Eh      5.54 kcal/mol|
|  sn= 8 | S(rot)=       0.00870930 Eh      5.47 kcal/mol|
|  sn= 9 | S(rot)=       0.00859809 Eh      5.40 kcal/mol|
|  sn=10 | S(rot)=       0.00849861 Eh      5.33 kcal/mol|
|  sn=11 | S(rot)=       0.00840862 Eh      5.28 kcal/mol|
|  sn=12 | S(rot)=       0.00832647 Eh      5.22 kcal/mol|
 linear molecules ---------------------------------------
|  Dinfh | S(rot)=       0.00722127 Eh      4.53 kcal/mol|
|  Cinfv | S(rot)=       0.00787573 Eh      4.94 kcal/mol|
 --------------------------------------------------------


-------------------
GIBBS FREE ENERGY
-------------------

The Gibbs free energy is G = H - T*S

Total enthalpy                    ...   -239.20684798 Eh 
Total entropy correction          ...     -0.02880303 Eh    -18.07 kcal/mol
-----------------------------------------------------------------------
Final Gibbs free energy         ...   -239.23565101 Eh

For completeness - the Gibbs free energy minus the electronic energy
G-E(el)                           ...      0.01369927 Eh      8.60 kcal/mol


Maximum memory used throughout the entire PROP-calculation: 13.0 MB

--------------------------------
SUGGESTED CITATIONS FOR THIS RUN
--------------------------------

Below you find a list of papers that are relevant to this ORCA run
We neither can nor want to force you to cite these papers, but we appreciate if you do
You receive ORCA, which is the product of decades of hard work by many enthusiastic individuals, for free
The only thing we kindly ask in return is that you cite our papers,
We deeply appreciate it, if you show your appreciation for ORCA by not just citing the generic ORCA reference.

Please note that relegating all ORCA citations to the supporting information does *not* help us.
SI sections are not indexed - citations you put there will not count into any citation statistics
But we need these citations in order to attract the funding resources that allow us to do what we are doing

Therefore, if you are a happy ORCA user, please consider citing a few of the papers listed below in the main body of your paper

In addition to the list printed below, the program has created the file /home/rzhu16/orca_TS_search/sn2/TS_search/sn2.bibtex that contains the list in bibtex format
You can import this file easily into all common literature databanks and citation aid programs


List of essential papers. We consider these as the minimum necessary citations

  1. Neese, F.
     Software update: the ORCA program system, version 6.0
     WIRES Comput. Molec. Sci. 2025 15(1), e70019
     doi.org/10.1002/wcms.7019

List of papers to cite with high priority. The work reported in these papers was absolutely
necessary for this run to complete.
Our perspective: the developers of density functionals and basis sets usually get cited in chemistry papers
Good! But without the algorithms to do something with them, the functionals or basis sets would not do anything.
Hence, in our opinion, the algorithm design and method developments papers are equally worthy of getting cited

  1. Neese, F.
     An improvement of the resolution of the identity approximation for the formation of the Coulomb matrix
     J. Comp. Chem. 2003 24(14), 1740-1747
     doi.org/10.1002/jcc.10318
  2. Neese, F.; Wennmohs, F.; Hansen, A.; Becker, U.
     Efficient, approximate and parallel Hartree-Fock and hybrid DFT calculations. A 'chain-of-spheres' algorithm for the Hartree-Fock exchange
     Chem. Phys. 2009 356(1-3), 98-109
     doi.org/10.1016/j.chemphys.2008.10.036
  3. Bykov, D.; Petrenko, T.; Izsak, R.; Kossmann, S.; Becker, U.; Valeev, E.; Neese, F.
     Efficient implementation of the analytic second derivatives of Hartree-Fock and hybrid DFT energies: a detailed analysis of different approximations
     Molec. Phys. 2015 113 , 1961-1977
     doi.org/10.1080/00268976.2015.1025114
  4. Helmich-Paris, B.; de Souza, B.; Neese, F.; Izsák, R.
     An improved chain of spheres for exchange algorithm
     J. Chem. Phys. 2021 155(10), 104109
     doi.org/10.1063/5.0058766
  5. Neese, F.
     The SHARK Integral Generation and Digestion System
     J. Comp. Chem. 2022 44(3), 381
     doi.org/10.1002/jcc.26942

List of suggested additional citations. These are papers that are important in the 'surrounding' of 
of this run, or papers that preceded the highly important papers. If you like your results we are grateful for a citation.

  1. Izsak, R.; Neese, F.
     An overlap fitted chain of spheres exchange method
     J. Chem. Phys. 2011 135 , 144105
     doi.org/10.1063/1.3646921
  2. Izsak, R.; Hansen, A.; Neese, F.
     The resolution of identity and chain of spheres approximations for the LPNO-CCSD singles Fock term
     Molec. Phys. 2012 110 , 2413-2417
     doi.org/10.1080/00268976.2012.687466
  3. Neese, F.
     The ORCA program system
     WIRES Comput. Molec. Sci. 2012 2(1), 73-78
     doi.org/10.1002/wcms.81
  4. Izsak, R.; Neese, F.; Klopper, W.
     Robust fitting techniques in the chain of spheres approximation to the Fock exchange: The role of the complementary space
     J. Chem. Phys. 2013 139 , 
     doi.org/10.1063/1.4819264
  5. Neese, F.
     Software update: the ORCA program system, version 4.0
     WIRES Comput. Molec. Sci. 2018 8(1), 1-6
     doi.org/10.1002/wcms.1327
  6. Neese, F.; Wennmohs, F.; Becker, U.; Riplinger, C.
     The ORCA quantum chemistry program package
     J. Chem. Phys. 2020 152(22), 224108
     doi.org/10.1063/5.0004608
  7. Neese, F.
     Software update: The ORCA program system—Version 5.0
     WIRES Comput. Molec. Sci. 2022 12(1), e1606
     doi.org/10.1002/wcms.1606

List of optional additional citations

  1. Neese, F.
     Approximate second-order SCF convergence for spin unrestricted wavefunctions
     Chem. Phys. Lett. 2000 325(1-3), 93-98
     doi.org/10.1016/s0009-2614(00)00662-x

Timings for individual modules:

Sum of individual times          ...       43.764 sec (=   0.729 min)
Startup calculation              ...        1.229 sec (=   0.020 min)   2.8 %
SCF iterations                   ...       11.170 sec (=   0.186 min)  25.5 %
Property integrals               ...        3.980 sec (=   0.066 min)   9.1 %
SCF Response                     ...        1.456 sec (=   0.024 min)   3.3 %
Property calculations            ...       17.153 sec (=   0.286 min)  39.2 %
SCF Gradient evaluation          ...        8.228 sec (=   0.137 min)  18.8 %
Geometry relaxation              ...        0.548 sec (=   0.009 min)   1.3 %
                             ****ORCA TERMINATED NORMALLY****
TOTAL RUN TIME: 0 days 0 hours 1 minutes 7 seconds 126 msec
