
                                 *****************
                                 * O   R   C   A *
                                 *****************

                                            #,                                       
                                            ###                                      
                                            ####                                     
                                            #####                                    
                                            ######                                   
                                           ########,                                 
                                     ,,################,,,,,                         
                               ,,#################################,,                 
                          ,,##########################################,,             
                       ,#########################################, ''#####,          
                    ,#############################################,,   '####,        
                  ,##################################################,,,,####,       
                ,###########''''           ''''###############################       
              ,#####''   ,,,,##########,,,,          '''####'''          '####       
            ,##' ,,,,###########################,,,                        '##       
           ' ,,###''''                  '''############,,,                           
         ,,##''                                '''############,,,,        ,,,,,,###''
      ,#''                                            '''#######################'''  
     '                                                          ''''####''''         
             ,#######,   #######,   ,#######,      ##                                
            ,#'     '#,  ##    ##  ,#'     '#,    #''#        ,####,    ,#,          
            ##       ##  ##   ,#'  ##            #'  '#       #'       ,# #          
            ##       ##  #######   ##           ,######,      #####,      #          
            '#,     ,#'  ##    ##  '#,     ,#' ,#      #,     #,   #      #          
             '#######'   ##     ##  '#######'  #'      '#     '####' #    #          



                #########################################################
                #                        -***-                          #
                #          Department of theory and spectroscopy        #
                #                                                       #
                #                      Frank Neese                      #
                #                                                       #
                #     Directorship, Architecture, Infrastructure        #
                #                    SHARK, DRIVERS                     #
                #        Core code/Algorithms in most modules           #
                #                                                       #
                #        Max Planck Institute fuer Kohlenforschung      #
                #                Kaiser Wilhelm Platz 1                 #
                #                 D-45470 Muelheim/Ruhr                 #
                #                      Germany                          #
                #                                                       #
                #                  All rights reserved                  #
                #                        -***-                          #
                #########################################################


                         Program Version 6.1.0  -  RELEASE   -
                                (GIT: $679e74b$)
                          ($2025-06-10 18:02:51 +0200$)


 With contributions from (in alphabetic order):
[Max-Planck-Institut fuer Kohlenforschung]                               
  Daniel Aravena         : Magnetic Suceptibility                        
  Michael Atanasov       : Ab Initio Ligand Field Theory (pilot matlab implementation)
  Alexander A. Auer      : GIAO ZORA, VPT2 properties, NMR spectrum      
  Ute Becker             : All parallelization in ORCA, NUMFREQ, NUMCALC 
  Giovanni Bistoni       : ED, misc. LED, open-shell LED, HFLD           
  Dmytro Bykov           : pre 5.0 version of the SCF Hessian            
  Marcos Casanova-Páez   : Triplet and SCS-CIS(D). UHF-(DLPNO)-IP/EA/STEOM-CCSD. UHF-CVS-IP/STEOM-CCSD   
  Vijay G. Chilkuri      : MRCI spin determinant printing, contributions to CSF-ICE 
  Pauline Colinet        : FMM embedding                                 
  Dipayan Datta          : RHF DLPNO-CCSD density                        
  Achintya Kumar Dutta   : EOM-CC, STEOM-CC                              
  Nicolas Foglia         : Exact transition moments, OPA infrastructure, MCD improvements    
  Dmitry Ganyushin       : Spin-Orbit,Spin-Spin,Magnetic field MRCI      
  Miquel Garcia-Rates    : C-PCM and meta-GGA Hessian, CCSD/C-PCM, Gaussian charge scheme 
  Tiago L. C. Gouveia    : GS-ROHF, GS-ROCIS                             
  Yang Guo               : DLPNO-NEVPT2, F12-NEVPT2, CIM, IAO-localization        
  Andreas Hansen         : Spin unrestricted coupled pair/coupled cluster methods 
  Ingolf Harden          : AUTO-CI MPn and infrastructure                
  Benjamin Helmich-Paris : MC-RPA, TRAH-(SCF,CASSCF), AVAS, COSX integrals, SCF dyn. polar., MC-PDFT, srDFT 
  Lee Huntington         : MR-EOM, pCC                                   
  Robert Izsak           : Overlap fitted RIJCOSX, COSX-SCS-MP3, EOM     
  Riya Kayal             : Wick's Theorem for AUTO-CI, AUTO-CI UHF-CCSDT 
  Emily Kempfer          : AUTO-CI RHF CISDT and CCSDT, approximate NEVPT4
  Christian Kollmar      : KDIIS, OOCD, Brueckner-CCSD(T), CCSD density, CASPT2, CASPT2-K, improved NEVPT2 
  Axel Koslowski         : Symmetry handling                             
  Simone Kossmann        : meta-GGA functionals, TD-DFT gradient, OOMP2, (MP2 Hessian; deprecated post 5.0) 
  Lucas Lang             : DCDCAS, Hyperfine gauge corrections, ICE-SOC+SSC
  Marvin Lechner         : AUTO-CI (C++ implementation), FIC-MRCC        
  Spencer Leger          : CASSCF response                               
  Dagmar Lenk            : GEPOL surface, SMD, ORCA-2-JSON               
  Dimitrios Liakos       : Extrapolation schemes; Compound Job, Property file
  Dimitrios Manganas     : Further ROCIS development; embedding schemes. LFT, Crystal Embedding 
  Dimitrios Pantazis     : SARC Basis sets                               
  Anastasios Papadopoulos: AUTO-CI, single reference methods and gradients 
  Taras Petrenko         : pre 6.0 DFT Hessian and TD-DFT gradient,  ECA, NRVS 
  Petra Pikulova         : Analytic Raman intensities                    
  Peter Pinski           : DLPNO-MP2, DLPNO-MP2 Gradient                 
  Shashank Vittal Rao    : ES-AILFT, MagRelax                            
  Christoph Reimann      : Effective Core Potentials                     
  Marius Retegan         : Local ZFS, SOC                                
  Christoph Riplinger    : Optimizer, TS searches, QM/MM, DLPNO-CCSD(T), (RO)-DLPNO pert. Triples 
  Michael Roemelt        : Original ROCIS implementation, recursive CI coupling coefficients
  Masaaki Saitow         : Open-shell DLPNO-CCSD energy and density      
  Barbara Sandhoefer     : DKH picture change effects                    
  Yorick L. A. Schmerwitz: GMF and freeze-and-release deltaSCF, NEB S-IDPP initial path                    
  Kantharuban Sivalingam : CASSCF convergence/infrastructure, NEVPT2, NEVPT3, NEVPT4(SD), FIC-MRCI and CEPA variants
  Bernardo de Souza      : ESD, SOC TD-DFT                               
  Georgi L. Stoychev     : AutoAux, RI-MP2 NMR, DLPNO-MP2 response, X2C  
  Van Anh Tran           : RI-MP2 g-tensors                              
  Willem Van den Heuvel  : Paramagnetic NMR                              
  Zikuan Wang            : NOTCH, Electric field optimization            
  Frank Wennmohs         : Technical directorship and infrastructure     
  Hang Xu                : AUTO-CI-Response properties                   
                                                                         
[FACCTs GmbH]                                                            
  Markus Bursch, Nicolas Foglia, Miquel Garcia-Rates, Ingolf Harden, Hagen Neugebauer, Anastasios Papadopoulos, 
  Christoph Riplinger, Bernardo de Souza, Georgi L. Stoychev                                                    
                                                                 
  APM, various basis sets, CI-OPT, improved COSX, DLPNO-Multilevel,           
  DOCKER, DRACO, updates on ESD, Fragmentator, GOAT, IRC, LR-CPCM, L-BFGS, MBIS, meta-GGA TD-DFT gradient, ML-optimized integration grids, 
  MM, NACMEs, nearIR, NEB, NEB-TS, NL-DFT gradient (VV10), 2- and 3-layer-ONIOM, interface openCOSMO-RS, QMMM,   
  Crystal-QMMM, RESP, rigid body optimization, SF, symmetry and pop. for TD-DFT, various functionals, SOLVATOR                                   
                                                                         
[Other institutions]                                                     
  V. Asgeirsson          : NEB                                           
  Christoph Bannwarth    : sTDA-DFT, sTD-DFT, PBEh-3c, B97-3c, D3        
  Giovanni Bistoni       : ETS/NOCV, ADLD/ADEX, COVALED                  
  Martin Brehm           : Molecular dynamics                            
  Ronald Cardenas        : ETS/NOCV                                      
  Martina Colucci        : COVALED                                       
  Sebastian Ehlert       : rSCAN, r2SCAN, r2SCAN-3c, D4, dhf basis sets  
  Marvin Friede          : D4 for Fr, Ra, Ac-Lr                          
  Lars Goerigk           : TD-DFT with DH, B97 family of functionals     
  Stefan Grimme          : VdW corrections, initial TS optimization, DFT functionals, gCP, sTDA/sTD-DF 
  Waldemar Hujo          : DFT-NL                                        
  H. Jonsson             : NEB                                           
  Holger Kruse           : gCP                                           
  Marcel Mueller         : wB97X-3c, vDZP basis set                      
  Hagen Neugebauer       : wr2SCAN, Native XTB                           
  Gianluca Regni         : ADLD/ADEX                                     
  Tobias Risthaus        : pre 6.0 range-separated hybrid DFT and stability analysis
  Lukas Wittmann         : regularized MP2, r2SCAN double-hybrids, wr2SCAN        
                                                                         
We gratefully acknowledge several colleagues who have allowed us to      
interface, adapt or use parts of their codes:                            
  Ed Valeev, F. Pavosevic, A. Kumar             : LibInt (2-el integral package), F12 methods 
  Garnet Chan, S. Sharma, J. Yang, R. Olivares  : DMRG                   
  Ulf Ekstrom                                   : XCFun DFT Library      
  Mihaly Kallay                                 : mrcc  (arbitrary order and MRCC methods)
  Frank Weinhold                                : gennbo (NPA and NBO analysis)           
  Simon Mueller                                 : openCOSMO-RS                            
  Christopher J. Cramer and Donald G. Truhlar   : smd solvation model                     
  S Lehtola, MJT Oliveira, MAL Marques          : LibXC Library                           
  Liviu Ungur et al                             : ANISO software                          


 Your calculation uses the libint2 library for the computation of 2-el integrals
 For citations please refer to: http://libint.valeyev.net

 Your ORCA version has been built with support for libXC version: 7.0.0
 For citations please refer to: https://libxc.gitlab.io

 This ORCA versions uses:
   CBLAS   interface :  Fast vector & matrix operations
   LAPACKE interface :  Fast linear algebra routines
   SCALAPACK package :  Parallel linear algebra routines
   Shared memory     :  Shared parallel matrices
   BLAS/LAPACK       :  OpenBLAS 0.3.29  USE64BITINT DYNAMIC_ARCH NO_AFFINITY SkylakeX SINGLE_THREADED
        Core in use  :  SkylakeX
   Copyright (c) 2011-2014, The OpenBLAS Project


  ***********************************
  * Starting time: Sun Mar 15 22:00:15 2026
  * Host name:     midway3-login3.rcc.local
  * Process ID:    3199272
  * Working dir.:  /home/rzhu16/orca_TS_search/runs/da_br/geo_opt_reactant_product
  ***********************************

Your calculation utilizes the semiempirical GFN2-xTB method
Please cite in your paper:
Bannwarth, C.; Ehlert S.; Grimme, S. J. Chem. Theory Comput. 2019, 15, 1652.
   

================================================================================

================================================================================
                                        WARNINGS
                       Please study these warnings very carefully!
================================================================================


WARNING: Analytical Hessian for XTB is limited in the analysis of the data.
       : If you want to obtain extensive IR and deltaG analysis, please use ! XTB NumFreq. 


WARNING: Geometry Optimization
  ===> : Switching off AutoStart
         For restart on a previous wavefunction, please use MOREAD

WARNING: Found dipole moment calculation with XTB calculation
  ===> : Switching off dipole moment calculation


WARNING: Found frequency calculation in combination with XTB calculation
  ===> : Need to redirect dipole moment calculation to properties.out


================================================================================
                                       INPUT FILE
================================================================================
NAME = product_optfreq.inp
|  1> ! XTB2 Opt Freq PAL8
|  2> 
|  3> %geom
|  4>   MaxIter 500
|  5> end
|  6> 
|  7> * xyz 0 1
|  8>   C       0.241007      0.190320      0.423465
|  9>   C       1.361757      0.088746     -0.534651
| 10>   C       2.142276      1.202892     -0.508227
| 11>   C       3.276952      1.039124      0.422583
| 12>   C       2.463661      0.906025      1.777735
| 13>   C       1.090006      0.176394      1.762140
| 14>   H      -0.462285     -0.641675      0.432271
| 15>   H      -0.297761      1.132312      0.339093
| 16>   H       1.849040     -0.879949     -0.584665
| 17>   H       1.651677      2.170460     -0.471257
| 18>   H       3.971237      1.877503      0.483998
| 19>   H       3.829156      0.112757      0.261808
| 20>   H       0.467178      0.601754      2.551369
| 21>   H       1.276090     -0.868644      2.020407
| 22>   H       3.102957      0.413368      2.514151
| 23>   Br      2.219561      2.719620      2.515360
| 24> *
| 25> 
| 26>                          ****END OF INPUT****
================================================================================

                       *****************************
                       * Geometry Optimization Run *
                       *****************************

Geometry optimization settings:
Update method            Update   .... BFGS
Choice of coordinates    CoordSys .... (2022) Redundant Internals
Initial Hessian          InHess   .... Almloef's Model
Max. no of cycles        MaxIter  .... 500

Convergence Tolerances:
Energy Change            TolE     ....  5.0000e-06 Eh
Max. Gradient            TolMAXG  ....  3.0000e-04 Eh/bohr
RMS Gradient             TolRMSG  ....  1.0000e-04 Eh/bohr
Max. Displacement        TolMAXD  ....  4.0000e-03 bohr
RMS Displacement         TolRMSD  ....  2.0000e-03 bohr
Strict Convergence                .... False

------------------------------------------------------------------------------
                        ORCA OPTIMIZATION COORDINATE SETUP
------------------------------------------------------------------------------

The optimization will be done in redundant internal coordinates (2022)
Making redundant internal coordinates   ...  (2022 redundants) done
Evaluating the initial hessian          ...  (Almloef) done
Evaluating the coordinates              ...  done
Calculating the B-matrix                .... done
Calculating the G-matrix                .... done
The number of degrees of freedom        ....   78

    -----------------------------------------------------------------
                    Redundant Internal Coordinates


    -----------------------------------------------------------------
         Definition                    Initial Value    Approx d2E/dq
    -----------------------------------------------------------------
      1. B(C   1,C   0)                  1.4780         0.452266   
      2. B(C   2,C   1)                  1.3606         0.696059   
      3. B(C   3,C   2)                  1.4767         0.454333   
      4. B(C   4,C   3)                  1.5861         0.304042   
      5. B(C   5,C   4)                  1.5555         0.340187   
      6. B(C   5,C   0)                  1.5853         0.304941   
      7. B(H   6,C   0)                  1.0895         0.360821   
      8. B(H   7,C   0)                  1.0885         0.362147   
      9. B(H   8,C   1)                  1.0855         0.366099   
     10. B(H   9,C   2)                  1.0855         0.366145   
     11. B(H  10,C   3)                  1.0903         0.359747   
     12. B(H  11,C   3)                  1.0904         0.359595   
     13. B(H  12,C   5)                  1.0917         0.357907   
     14. B(H  13,C   5)                  1.0924         0.356882   
     15. B(H  14,C   4)                  1.0926         0.356710   
     16. B(Br 15,C   4)                  1.9730         0.246640   
     17. A(C   5,C   0,H   7)          109.7644         0.314040   
     18. A(C   1,C   0,C   5)           98.0889         0.362617   
     19. A(H   6,C   0,H   7)          109.9994         0.291190   
     20. A(C   1,C   0,H   6)          116.2492         0.334835   
     21. A(C   5,C   0,H   6)          109.4019         0.313853   
     22. A(C   1,C   0,H   7)          112.6174         0.335039   
     23. A(C   0,C   1,C   2)          111.4779         0.418814   
     24. A(C   2,C   1,H   8)          118.3026         0.360927   
     25. A(C   0,C   1,H   8)          115.5693         0.335644   
     26. A(C   1,C   2,C   3)          111.2362         0.419154   
     27. A(C   3,C   2,H   9)          115.1296         0.335906   
     28. A(C   1,C   2,H   9)          118.1192         0.360935   
     29. A(C   2,C   3,C   4)           98.8506         0.362716   
     30. A(H  10,C   3,H  11)          109.8225         0.290730   
     31. A(C   2,C   3,H  11)          112.9798         0.334899   
     32. A(C   4,C   3,H  10)          110.0559         0.313551   
     33. A(C   2,C   3,H  10)          116.0739         0.334922   
     34. A(C   4,C   3,H  11)          108.3229         0.313530   
     35. A(H  14,C   4,Br 15)          103.5848         0.320916   
     36. A(C   5,C   4,Br 15)          109.0055         0.354282   
     37. A(C   3,C   4,Br 15)          107.8021         0.347622   
     38. A(C   3,C   4,H  14)          108.2819         0.313121   
     39. A(C   5,C   4,H  14)          108.1784         0.318892   
     40. A(C   3,C   4,C   5)          118.9227         0.345366   
     41. A(H  12,C   5,H  13)          107.3977         0.290151   
     42. A(C   4,C   5,H  13)          107.2127         0.318917   
     43. A(C   0,C   5,C   4)          118.5092         0.345537   
     44. A(C   0,C   5,H  13)          107.4136         0.313295   
     45. A(C   4,C   5,H  12)          108.2896         0.319067   
     46. A(C   0,C   5,H  12)          107.5495         0.313441   
     47. D(C   2,C   1,C   0,C   5)    -66.4603         0.015083   
     48. D(C   2,C   1,C   0,H   6)    177.1679         0.015083   
     49. D(H   8,C   1,C   0,H   6)    -43.9739         0.015083   
     50. D(C   2,C   1,C   0,H   7)     48.9577         0.015083   
     51. D(H   8,C   1,C   0,C   5)     72.3979         0.015083   
     52. D(C   3,C   2,C   1,C   0)     93.2416         0.034091   
     53. D(H   9,C   2,C   1,H   8)    179.2182         0.034091   
     54. D(C   3,C   2,C   1,H   8)    -44.3763         0.034091   
     55. D(H   9,C   2,C   1,C   0)    -43.1639         0.034091   
     56. D(H  10,C   3,C   2,C   1)    178.3262         0.015220   
     57. D(H  10,C   3,C   2,H   9)    -43.8755         0.015220   
     58. D(H  11,C   3,C   2,C   1)     50.1869         0.015220   
     59. D(C   4,C   3,C   2,H   9)     73.6787         0.015220   
     60. D(C   4,C   3,C   2,C   1)    -64.1195         0.015220   
     61. D(H  14,C   4,C   3,H  11)     41.1582         0.010000   
     62. D(C   5,C   4,C   3,C   2)     35.1361         0.010000   
     63. D(H  14,C   4,C   3,H  10)    -78.9197         0.010000   
     64. D(H  14,C   4,C   3,C   2)    159.0485         0.010000   
     65. D(C   5,C   4,C   3,H  11)    -82.7542         0.010000   
     66. D(C   5,C   4,C   3,H  10)    157.1679         0.010000   
     67. D(H  12,C   5,C   4,C   3)   -150.8483         0.010000   
     68. D(C   0,C   5,C   4,Br 15)     95.9367         0.010000   
     69. D(C   0,C   5,C   4,H  14)   -152.0651         0.010000   
     70. D(C   0,C   5,C   4,C   3)    -28.1021         0.010000   
     71. D(H  12,C   5,C   0,H   7)     42.1217         0.010000   
     72. D(H  12,C   5,C   0,H   6)    -78.6654         0.010000   
     73. D(H  12,C   5,C   0,C   1)    159.7558         0.010000   
     74. D(C   4,C   5,C   0,H   7)    -80.9940         0.010000   
     75. D(C   4,C   5,C   0,H   6)    158.2189         0.010000   
     76. D(H  12,C   5,C   4,H  14)     85.1886         0.010000   
     77. D(C   4,C   5,C   0,C   1)     36.6400         0.010000   
     78. D(H  12,C   5,C   4,Br 15)    -26.8096         0.010000   
    -----------------------------------------------------------------

Number of atoms                         .... 16
Number of degrees of freedom            .... 78


         *************************************************************
         *                GEOMETRY OPTIMIZATION CYCLE   1            *
         *************************************************************
---------------------------------
CARTESIAN COORDINATES (ANGSTROEM)
---------------------------------
  C     0.241007    0.190320    0.423465
  C     1.361757    0.088746   -0.534651
  C     2.142276    1.202892   -0.508227
  C     3.276952    1.039124    0.422583
  C     2.463661    0.906025    1.777735
  C     1.090006    0.176394    1.762140
  H    -0.462285   -0.641675    0.432271
  H    -0.297761    1.132312    0.339093
  H     1.849040   -0.879949   -0.584665
  H     1.651677    2.170460   -0.471257
  H     3.971237    1.877503    0.483998
  H     3.829156    0.112757    0.261808
  H     0.467178    0.601754    2.551369
  H     1.276090   -0.868644    2.020407
  H     3.102957    0.413368    2.514151
  Br    2.219561    2.719620    2.515360

----------------------------
CARTESIAN COORDINATES (A.U.)
----------------------------
  NO LB    ZA    FRAG    MASS        X           Y           Z
   0 C   6.0000    0    12.011    0.455437    0.359653    0.800233
   1 C   6.0000    0    12.011    2.573348    0.167706   -1.010344
   2 C   6.0000    0    12.011    4.048315    2.273136   -0.960410
   3 C   6.0000    0    12.011    6.192542    1.963660    0.798566
   4 C   6.0000    0    12.011    4.655645    1.712139    3.359432
   5 C   6.0000    0    12.011    2.059813    0.333336    3.329962
   6 H   1.0000    0     1.008   -0.873592   -1.212590    0.816874
   7 H   1.0000    0     1.008   -0.562687    2.139760    0.640793
   8 H   1.0000    0     1.008    3.494179   -1.662863   -1.104857
   9 H   1.0000    0     1.008    3.121217    4.101575   -0.890547
  10 H   1.0000    0     1.008    7.504550    3.547966    0.914624
  11 H   1.0000    0     1.008    7.236056    0.213080    0.494745
  12 H   1.0000    0     1.008    0.882838    1.137150    4.821389
  13 H   1.0000    0     1.008    2.411461   -1.641499    3.818016
  14 H   1.0000    0     1.008    5.863739    0.781152    4.751057
  15 Br 35.0000    0    79.900    4.194362    5.139337    4.753342

      -----------------------------------------------------------      
     |                   =====================                   |     
     |                           x T B                           |     
     |                   =====================                   |     
     |                         S. Grimme                         |     
     |          Mulliken Center for Theoretical Chemistry        |     
     |                    University of Bonn                     |     
      -----------------------------------------------------------      

   * xtb version 6.7.1 (edcfbbe) compiled by 'albert@albert-system' on 2024-07-22

   xtb is free software: you can redistribute it and/or modify it under
   the terms of the GNU Lesser General Public License as published by
   the Free Software Foundation, either version 3 of the License, or
   (at your option) any later version.
   
   xtb is distributed in the hope that it will be useful,
   but WITHOUT ANY WARRANTY; without even the implied warranty of
   MERCHANTABILITY or FITNESS FOR A PARTICULAR PURPOSE.  See the
   GNU Lesser General Public License for more details.
   
   Cite this work as:
   * C. Bannwarth, E. Caldeweyher, S. Ehlert, A. Hansen, P. Pracht,
     J. Seibert, S. Spicher, S. Grimme, WIREs Comput. Mol. Sci., 2020, 11,
     e01493. DOI: 10.1002/wcms.1493
   
   for GFN2-xTB:
   * C. Bannwarth, S. Ehlert and S. Grimme., J. Chem. Theory Comput., 2019,
     15, 1652-1671. DOI: 10.1021/acs.jctc.8b01176
   for GFN1-xTB:
   * S. Grimme, C. Bannwarth, P. Shushkov, J. Chem. Theory Comput., 2017,
     13, 1989-2009. DOI: 10.1021/acs.jctc.7b00118
   for GFN0-xTB:
   * P. Pracht, E. Caldeweyher, S. Ehlert, S. Grimme, ChemRxiv, 2019, preprint.
     DOI: 10.26434/chemrxiv.8326202.v1
   for GFN-FF:
   * S. Spicher and S. Grimme, Angew. Chem. Int. Ed., 2020, 59, 15665-15673.
     DOI: 10.1002/anie.202004239
   
   for ALPB and GBSA implicit solvation:
   * S. Ehlert, M. Stahn, S. Spicher, S. Grimme, J. Chem. Theory Comput.,
     2021, 17, 4250-4261. DOI: 10.1021/acs.jctc.1c00471
   
   for ddCOSMO and CPCM-X implicit solvation:
   * M. Stahn, S. Ehlert, S. Grimme, J. Phys. Chem. A,
     2023, XX, XXXX-XXXX. DOI: 10.1021/acs.jpca.3c04382
   
   for DFT-D4:
   * E. Caldeweyher, C. Bannwarth and S. Grimme, J. Chem. Phys., 2017,
     147, 034112. DOI: 10.1063/1.4993215
   * E. Caldeweyher, S. Ehlert, A. Hansen, H. Neugebauer, S. Spicher,
     C. Bannwarth and S. Grimme, J. Chem. Phys., 2019, 150, 154122.
     DOI: 10.1063/1.5090222
   * E. Caldeweyher, J.-M. Mewes, S. Ehlert and S. Grimme, Phys. Chem. Chem. Phys.
     2020, 22, 8499-8512. DOI: 10.1039/D0CP00502A
   
   for sTDA-xTB:
   * S. Grimme and C. Bannwarth, J. Chem. Phys., 2016, 145, 054103.
     DOI: 10.1063/1.4959605
   
   in the mass-spec context:
   * V. Asgeirsson, C. Bauer and S. Grimme, Chem. Sci., 2017, 8, 4879.
     DOI: 10.1039/c7sc00601b
   * J. Koopman and S. Grimme, ACS Omega 2019, 4, 12, 15120-15133.
     DOI: 10.1021/acsomega.9b02011
   
   for metadynamics refer to:
   * S. Grimme, J. Chem. Theory Comput., 2019, 155, 2847-2862
     DOI: 10.1021/acs.jctc.9b00143
   
   for SPH calculations refer to:
   * S. Spicher and S. Grimme, J. Chem. Theory Comput., 2021, 17, 1701-1714
     DOI: 10.1021/acs.jctc.0c01306
   
   for ONIOM refer to:
   * C. Plett, A. Katbashev, S. Ehlert, S. Grimme, M. Bursch,
     Phys. Chem. Chem. Phys., 2023, 25, 17860-17868. DOI: 10.1039/D3CP02178E
   
   for DIPRO refer to:
   * J. Kohn, N. Gildemeister, S. Grimme, D. Fazzi, A. Hansen,
     J. Chem. Phys., 2023, just accepted.
   
   for PTB refer to:
   * S. Grimme, M. Mueller, A. Hansen, J. Chem. Phys., 2023, 158, 124111.
     DOI: 10.1063/5.0137838
   
   with help from (in alphabetical order)
   P. Atkinson, C. Bannwarth, F. Bohle, G. Brandenburg, E. Caldeweyher
   M. Checinski, S. Dohm, S. Ehlert, S. Ehrlich, I. Gerasimov, C. Hölzer
   A. Katbashev, J. Kohn, J. Koopman, C. Lavigne, S. Lehtola, F. März, M. Müller,
   F. Musil, H. Neugebauer, J. Pisarek, C. Plett, P. Pracht, F. Pultar,
   J. Seibert, P. Shushkov, S. Spicher, M. Stahn, M. Steiner, T. Strunk,
   J. Stückrath, T. Rose, and J. Unsleber
   
 * started run on 2026/03/15 at 22:00:15.749     
   ID    Z sym.   atoms
    1    6 C      1-6
    2    1 H      7-15
    3   35 Br     16

           -------------------------------------------------
          |                Calculation Setup                |
           -------------------------------------------------

          program call               : /software/orca-6.1.0-el8-x86_64/bin/otool_xtb product_optfreq_XTB.xyz --grad -c 0 -u 0 -P 8 --namespace product_optfreq --input product_optfreq_XTB.input.tmp --acc 0.200000
          hostname                   : midway3-login3.rcc.local
          calculation namespace      : product_optfreq
          coordinate file            : product_optfreq_XTB.xyz
          omp threads                :                     8


           -------------------------------------------------
          |                 G F N 2 - x T B                 |
           -------------------------------------------------

        Reference                      10.1021/acs.jctc.8b01176
      * Hamiltonian:
        H0-scaling (s, p, d)           1.850000    2.230000    2.230000
        zeta-weighting                 0.500000
      * Dispersion:
        s8                             2.700000
        a1                             0.520000
        a2                             5.000000
        s9                             5.000000
      * Repulsion:
        kExp                           1.500000    1.000000
        rExp                           1.000000
      * Coulomb:
        alpha                          2.000000
        third order                    shell-resolved
        anisotropic                    true
        a3                             3.000000
        a5                             4.000000
        cn-shift                       1.200000
        cn-exp                         4.000000
        max-rad                        5.000000


          ...................................................
          :                      SETUP                      :
          :.................................................:
          :  # basis functions                  43          :
          :  # atomic orbitals                  42          :
          :  # shells                           24          :
          :  # electrons                        40          :
          :  max. iterations                   250          :
          :  Hamiltonian                  GFN2-xTB          :
          :  restarted?                      false          :
          :  GBSA solvation                  false          :
          :  PC potential                    false          :
          :  electronic temp.          300.0000000     K    :
          :  accuracy                    0.2000000          :
          :  -> integral cutoff          0.3198970E+02      :
          :  -> integral neglect         0.2000000E-08      :
          :  -> SCF convergence          0.2000000E-06 Eh   :
          :  -> wf. convergence          0.2000000E-04 e    :
          :  Broyden damping             0.4000000          :
          :  net charge                          0          :
          :  unpaired electrons                  0          :
          ...................................................

 iter      E             dE          RMSdq      gap      omega  full diag
   1    -21.6417361 -0.216417E+02  0.446E+00    2.61       0.0  T
   2    -21.6786895 -0.369534E-01  0.317E+00    2.56       1.0  T
   3    -21.6787776 -0.881574E-04  0.120E+00    2.54       1.0  T
   4    -21.6860712 -0.729354E-02  0.585E-01    2.54       1.0  T
   5    -21.6859315  0.139739E-03  0.417E-01    2.54       1.0  T
   6    -21.6857273  0.204131E-03  0.361E-01    2.54       1.0  T
   7    -21.6866799 -0.952606E-03  0.221E-01    2.54       1.0  T
   8    -21.6868392 -0.159234E-03  0.821E-02    2.54       1.0  T
   9    -21.6868605 -0.213595E-04  0.192E-02    2.55       1.3  T
  10    -21.6868609 -0.353645E-06  0.421E-03    2.55       5.9  T
  11    -21.6868609 -0.606703E-07  0.178E-03    2.55      14.0  T
  12    -21.6868609 -0.462307E-08  0.469E-04    2.55      53.3  T
  13    -21.6868609 -0.675890E-09  0.271E-04    2.55      92.2  T
  14    -21.6868609 -0.105128E-09  0.139E-04    2.55     179.9  T
  15    -21.6868609 -0.364366E-10  0.822E-05    2.55     304.0  T

   *** convergence criteria satisfied after 15 iterations ***

         #    Occupation            Energy/Eh            Energy/eV
      -------------------------------------------------------------
         1        2.0000           -0.8333597             -22.6769
       ...           ...                  ...                  ...
        14        2.0000           -0.4643311             -12.6351
        15        2.0000           -0.4597840             -12.5114
        16        2.0000           -0.4548242             -12.3764
        17        2.0000           -0.4426948             -12.0463
        18        2.0000           -0.4059811             -11.0473
        19        2.0000           -0.4031278             -10.9697
        20        2.0000           -0.3570978              -9.7171 (HOMO)
        21                         -0.2635560              -7.1717 (LUMO)
        22                         -0.2219283              -6.0390
        23                         -0.0165551              -0.4505
        24                         -0.0072237              -0.1966
        25                          0.0357660               0.9732
       ...                                ...                  ...
        42                          0.5033469              13.6968
      -------------------------------------------------------------
                  HL-Gap            0.0935417 Eh            2.5454 eV
             Fermi-level           -0.3103269 Eh           -8.4444 eV

 SCC (total)                   0 d,  0 h,  0 min,  0.024 sec
 SCC setup                      ...        0 min,  0.000 sec (  0.821%)
 Dispersion                     ...        0 min,  0.000 sec (  0.373%)
 classical contributions        ...        0 min,  0.000 sec (  0.131%)
 integral evaluation            ...        0 min,  0.017 sec ( 71.513%)
 iterations                     ...        0 min,  0.005 sec ( 21.016%)
 molecular gradient             ...        0 min,  0.001 sec (  5.560%)
 printout                       ...        0 min,  0.000 sec (  0.521%)

         :::::::::::::::::::::::::::::::::::::::::::::::::::::
         ::                     SUMMARY                     ::
         :::::::::::::::::::::::::::::::::::::::::::::::::::::
         :: total energy             -21.422716938601 Eh    ::
         :: gradient norm              0.003297277740 Eh/a0 ::
         :: HOMO-LUMO gap              2.545400453280 eV    ::
         ::.................................................::
         :: SCC energy               -21.686831451992 Eh    ::
         :: -> isotropic ES            0.007616504479 Eh    ::
         :: -> anisotropic ES          0.002560722063 Eh    ::
         :: -> anisotropic XC          0.007804714969 Eh    ::
         :: -> dispersion             -0.013060544105 Eh    ::
         :: repulsion energy           0.264114513390 Eh    ::
         :: add. restraining           0.000000000000 Eh    ::
         :: total charge               0.000000000000 e     ::
         :::::::::::::::::::::::::::::::::::::::::::::::::::::


Property printout bound to 'properties.out'

           -------------------------------------------------
          | TOTAL ENERGY              -21.422716938601 Eh   |
          | GRADIENT NORM               0.003297277740 Eh/α |
          | HOMO-LUMO GAP               2.545400453280 eV   |
           -------------------------------------------------

------------------------------------------------------------------------
 * finished run on 2026/03/15 at 22:00:15.788     
------------------------------------------------------------------------
 total:
 * wall-time:     0 d,  0 h,  0 min,  0.039 sec
 *  cpu-time:     0 d,  0 h,  0 min,  0.254 sec
 * ratio c/w:     6.568 speedup
 SCF:
 * wall-time:     0 d,  0 h,  0 min,  0.024 sec
 *  cpu-time:     0 d,  0 h,  0 min,  0.175 sec
 * ratio c/w:     7.334 speedup


-------------------------   --------------------
FINAL SINGLE POINT ENERGY       -21.422716938600
-------------------------   --------------------


-------------
DIPOLE MOMENT
-------------
                                X             Y             Z
Total Dipole Moment    :      0.07900      -1.46400      -0.22000
                        -----------------------------------------
Magnitude (a.u.)       :      1.48254
Magnitude (Debye)      :      3.76833


------------------
CARTESIAN GRADIENT
------------------

   1   C   :    0.000150828   -0.000331413    0.000026883
   2   C   :    0.000098408   -0.000169012   -0.000221589
   3   C   :    0.000013492   -0.000326570   -0.000281493
   4   C   :   -0.000241114    0.000180905    0.000233536
   5   C   :    0.000344144   -0.000086545   -0.000165998
   6   C   :   -0.000192749    0.000244975   -0.000014772
   7   H   :    0.000283871   -0.000370529   -0.000054139
   8   H   :    0.000188538   -0.000342614   -0.000079045
   9   H   :    0.000140881   -0.000137081   -0.000654667
  10   H   :   -0.000255939    0.000163432   -0.000352376
  11   H   :   -0.000314905    0.000528327   -0.000222088
  12   H   :    0.000140070    0.000352793   -0.000093949
  13   H   :   -0.000591941    0.001252416   -0.000505274
  14   H   :   -0.000723017    0.000296774    0.001443407
  15   H   :    0.000328735   -0.000647524   -0.000482622
  16   Br  :    0.000630697   -0.000608334    0.001424185

Difference to translation invariance:
           :    0.0000000000   -0.0000000000    0.0000000000

Difference to rotation invariance:
           :   -0.0000011742    0.0000000768   -0.0000003876

Norm of the Cartesian gradient     ...    0.0032972777
RMS gradient                       ...    0.0004759210
MAX gradient                       ...    0.0014434068
------------------------------------------------------------------------------
                         ORCA GEOMETRY RELAXATION STEP
------------------------------------------------------------------------------

Reading the OPT-File                    .... done
Getting information on internals        .... done
Copying old internal coords+grads       .... done
Making the new internal coordinates     .... (2022 redundants) done
Validating the new internal coordinates .... (2022 redundants) done
Calculating the B-matrix                .... done
Calculating the G,G- and P matrices     .... done
Transforming gradient to internals      .... done
Projecting the internal gradient        .... done
Number of atoms                         ....  16
Number of internal coordinates          ....  78
Current Energy                          ....   -21.422716939 Eh
Current gradient norm                   ....     0.003297278 Eh/bohr
Maximum allowed component of the step   ....  0.300
Current trust radius                    ....  0.300
Evaluating the initial hessian          ....  (Almloef) done
Projecting the Hessian                  .... done
Forming the augmented Hessian           .... done
Diagonalizing the augmented Hessian     .... done
Last element of RFO vector              ....  0.961875599
Lowest eigenvalues of augmented Hessian:
 -0.001120685  0.012665124  0.017022387  0.032938326  0.047292573
Length of the computed step             ....  0.284327153
The final length of the internal step   ....  0.284327153
Converting the step to Cartesian space:
 Initial RMS(Int)=    0.0321937106
Transforming coordinates:
 Iter   0:  RMS(Cart)=    0.0554641407 RMS(Int)=    0.0320405360
 Iter   5:  RMS(Cart)=    0.0000000125 RMS(Int)=    0.0000000098
done
Storing new coordinates                 .... done

                                .--------------------.
          ----------------------|Geometry convergence|-------------------------
          Item                value                   Tolerance       Converged
          ---------------------------------------------------------------------
          RMS gradient        0.0006495967            0.0001000000      NO
          MAX gradient        0.0024614175            0.0003000000      NO
          RMS step            0.0321937106            0.0020000000      NO
          MAX step            0.0976050577            0.0040000000      NO
          -------------------------------------------------------------------------
          ........................................................
          Max(Bonds)      0.0017      Max(Angles)    0.53
          Max(Dihed)        5.59      Max(Improp)    0.00
          ---------------------------------------------------------------------

The optimization has not yet converged - more geometry cycles are needed


    ---------------------------------------------------------------------------
                         Redundant Internal Coordinates
                            (Angstroem and degrees)

        Definition                    Value    dE/dq     Step     New-Value
    ----------------------------------------------------------------------------
     1. B(C   1,C   0)                1.4780  0.000579  0.0000    1.4780   
     2. B(C   2,C   1)                1.3606  0.000261  0.0003    1.3609   
     3. B(C   3,C   2)                1.4767  0.000644 -0.0001    1.4767   
     4. B(C   4,C   3)                1.5861  0.000527 -0.0017    1.5844   
     5. B(C   5,C   4)                1.5555  0.000231 -0.0017    1.5538   
     6. B(C   5,C   0)                1.5853  0.000190 -0.0011    1.5842   
     7. B(H   6,C   0)                1.0895  0.000099 -0.0001    1.0893   
     8. B(H   7,C   0)                1.0885 -0.000384  0.0006    1.0890   
     9. B(H   8,C   1)                1.0855  0.000216 -0.0003    1.0852   
    10. B(H   9,C   2)                1.0855  0.000249 -0.0004    1.0851   
    11. B(H  10,C   3)                1.0903  0.000193 -0.0003    1.0900   
    12. B(H  11,C   3)                1.0904 -0.000215  0.0003    1.0907   
    13. B(H  12,C   5)                1.0917  0.000460 -0.0007    1.0910   
    14. B(H  13,C   5)                1.0924 -0.000066  0.0001    1.0925   
    15. B(H  14,C   4)                1.0926  0.000159 -0.0002    1.0923   
    16. B(Br 15,C   4)                1.9730 -0.000105  0.0002    1.9732   
    17. A(C   5,C   0,H   7)          109.76  0.000028    0.08    109.85   
    18. A(C   1,C   0,C   5)           98.09  0.000424   -0.39     97.70   
    19. A(H   6,C   0,H   7)          110.00  0.000187    0.03    110.03   
    20. A(C   1,C   0,H   6)          116.25 -0.000039   -0.03    116.22   
    21. A(C   5,C   0,H   6)          109.40 -0.000181    0.02    109.42   
    22. A(C   1,C   0,H   7)          112.62 -0.000399    0.25    112.87   
    23. A(C   0,C   1,C   2)          111.48 -0.000676    0.21    111.69   
    24. A(C   2,C   1,H   8)          118.30  0.000147   -0.13    118.17   
    25. A(C   0,C   1,H   8)          115.57  0.000542   -0.29    115.28   
    26. A(C   1,C   2,C   3)          111.24 -0.000156    0.05    111.29   
    27. A(C   3,C   2,H   9)          115.13  0.000214   -0.17    114.96   
    28. A(C   1,C   2,H   9)          118.12  0.000002   -0.01    118.11   
    29. A(C   2,C   3,C   4)           98.85  0.000527   -0.45     98.40   
    30. A(H  10,C   3,H  11)          109.82  0.000122    0.07    109.89   
    31. A(C   2,C   3,H  11)          112.98 -0.000542    0.23    113.21   
    32. A(C   4,C   3,H  10)          110.06 -0.000250   -0.01    110.05   
    33. A(C   2,C   3,H  10)          116.07 -0.000035    0.04    116.12   
    34. A(C   4,C   3,H  11)          108.32  0.000233    0.06    108.38   
    35. A(H  14,C   4,Br 15)          103.58 -0.001466    0.53    104.12   
    36. A(C   5,C   4,Br 15)          109.01  0.000886   -0.15    108.86   
    37. A(C   3,C   4,Br 15)          107.80  0.000376   -0.24    107.57   
    38. A(C   3,C   4,H  14)          108.28  0.000060    0.28    108.57   
    39. A(C   5,C   4,H  14)          108.18  0.000384    0.17    108.35   
    40. A(C   3,C   4,C   5)          118.92 -0.000425   -0.46    118.46   
    41. A(H  12,C   5,H  13)          107.40 -0.002461    0.51    107.91   
    42. A(C   4,C   5,H  13)          107.21  0.000793   -0.11    107.10   
    43. A(C   0,C   5,C   4)          118.51  0.000332   -0.53    117.97   
    44. A(C   0,C   5,H  13)          107.41  0.001272   -0.20    107.21   
    45. A(C   4,C   5,H  12)          108.29 -0.000418    0.19    108.48   
    46. A(C   0,C   5,H  12)          107.55  0.000146    0.24    107.79   
    47. D(C   2,C   1,C   0,C   5)    -66.46  0.000025   -0.47    -66.93   
    48. D(C   2,C   1,C   0,H   6)    177.17 -0.000007   -0.24    176.93   
    49. D(H   8,C   1,C   0,H   6)    -43.97  0.000053   -0.53    -44.50   
    50. D(C   2,C   1,C   0,H   7)     48.96  0.000140   -0.49     48.47   
    51. D(H   8,C   1,C   0,C   5)     72.40  0.000086   -0.76     71.64   
    52. D(C   3,C   2,C   1,C   0)     93.24 -0.000061   -0.60     92.64   
    53. D(H   9,C   2,C   1,H   8)    179.22 -0.000447   -0.01    179.20   
    54. D(C   3,C   2,C   1,H   8)    -44.38 -0.000288   -0.23    -44.60   
    55. D(H   9,C   2,C   1,C   0)    -43.16 -0.000220   -0.38    -43.55   
    56. D(H  10,C   3,C   2,C   1)    178.33 -0.000180   -0.45    177.88   
    57. D(H  10,C   3,C   2,H   9)    -43.88 -0.000119   -0.59    -44.46   
    58. D(H  11,C   3,C   2,C   1)     50.19  0.000192   -0.81     49.37   
    59. D(C   4,C   3,C   2,H   9)     73.68 -0.000099   -0.86     72.82   
    60. D(C   4,C   3,C   2,C   1)    -64.12 -0.000160   -0.73    -64.84   
    61. D(H  14,C   4,C   3,H  11)     41.16 -0.000325    3.23     44.39   
    62. D(C   5,C   4,C   3,C   2)     35.14 -0.000859    3.18     38.31   
    63. D(H  14,C   4,C   3,H  10)    -78.92 -0.000468    3.12    -75.80   
    64. D(H  14,C   4,C   3,C   2)    159.05 -0.000604    3.31    162.36   
    65. D(C   5,C   4,C   3,H  11)    -82.75 -0.000580    3.10    -79.65   
    66. D(C   5,C   4,C   3,H  10)    157.17 -0.000723    2.99    160.15   
    67. D(H  12,C   5,C   4,C   3)   -150.85  0.001091   -4.77   -155.62   
    68. D(C   0,C   5,C   4,Br 15)     95.94  0.002160   -5.50     90.44   
    69. D(C   0,C   5,C   4,H  14)   -152.07  0.001080   -4.86   -156.93   
    70. D(C   0,C   5,C   4,C   3)    -28.10  0.001177   -4.68    -32.78   
    71. D(H  12,C   5,C   0,H   7)     42.12 -0.000285    2.76     44.88   
    72. D(H  12,C   5,C   0,H   6)    -78.67 -0.000419    2.66    -76.00   
    73. D(H  12,C   5,C   0,C   1)    159.76 -0.000517    2.88    162.64   
    74. D(C   4,C   5,C   0,H   7)    -80.99 -0.000087    2.68    -78.31   
    75. D(C   4,C   5,C   0,H   6)    158.22 -0.000221    2.59    160.80   
    76. D(H  12,C   5,C   4,H  14)     85.19  0.000994   -4.96     80.23   
    77. D(C   4,C   5,C   0,C   1)     36.64 -0.000320    2.80     39.44   
    78. D(H  12,C   5,C   4,Br 15)    -26.81  0.002074   -5.59    -32.40   
    ----------------------------------------------------------------------------

Geometry step timings:
Preparation and reading OPT file:      0.000 s ( 1.032 %)
Internal coordinates            :      0.000 s ( 1.474 %)
B/P matrices and projection     :      0.001 s (15.650 %)
Hessian update/contruction      :      0.001 s (36.281 %)
Making the step                 :      0.001 s (16.210 %)
Converting the step to Cartesian:      0.000 s ( 2.800 %)
Storing new data                :      0.000 s ( 3.036 %)
Checking convergence            :      0.000 s ( 2.122 %)
Final printing                  :      0.001 s (21.309 %)
Total time                      :      0.003 s

Time for energy+gradient        :      0.049 s
Time for complete geometry iter :      0.054 s

         *************************************************************
         *                GEOMETRY OPTIMIZATION CYCLE   2            *
         *************************************************************
---------------------------------
CARTESIAN COORDINATES (ANGSTROEM)
---------------------------------
  C     0.238995    0.207778    0.434190
  C     1.352426    0.102706   -0.532189
  C     2.150611    1.204634   -0.501455
  C     3.282113    1.020982    0.429480
  C     2.457067    0.917449    1.778055
  C     1.103929    0.154020    1.760308
  H    -0.476897   -0.613255    0.434995
  H    -0.285792    1.160064    0.373306
  H     1.826416   -0.871854   -0.588826
  H     1.675356    2.179164   -0.458026
  H     3.993417    1.844754    0.488736
  H     3.814527    0.081037    0.278949
  H     0.485068    0.527377    2.577537
  H     1.325369   -0.897123    1.959577
  H     3.095139    0.469063    2.542920
  Br    2.144764    2.754210    2.428024

----------------------------
CARTESIAN COORDINATES (A.U.)
----------------------------
  NO LB    ZA    FRAG    MASS        X           Y           Z
   0 C   6.0000    0    12.011    0.451635    0.392644    0.820500
   1 C   6.0000    0    12.011    2.555715    0.194087   -1.005692
   2 C   6.0000    0    12.011    4.064066    2.276429   -0.947613
   3 C   6.0000    0    12.011    6.202294    1.929377    0.811600
   4 C   6.0000    0    12.011    4.643184    1.733727    3.360037
   5 C   6.0000    0    12.011    2.086123    0.291056    3.326500
   6 H   1.0000    0     1.008   -0.901204   -1.158884    0.822021
   7 H   1.0000    0     1.008   -0.540069    2.192202    0.705446
   8 H   1.0000    0     1.008    3.451427   -1.647565   -1.112720
   9 H   1.0000    0     1.008    3.165964    4.118023   -0.865543
  10 H   1.0000    0     1.008    7.546464    3.486080    0.923578
  11 H   1.0000    0     1.008    7.208412    0.153138    0.527137
  12 H   1.0000    0     1.008    0.916646    0.996597    4.870838
  13 H   1.0000    0     1.008    2.504585   -1.695317    3.703064
  14 H   1.0000    0     1.008    5.848966    0.886401    4.805423
  15 Br 35.0000    0    79.900    4.053017    5.204703    4.588300

      -----------------------------------------------------------      
     |                   =====================                   |     
     |                           x T B                           |     
     |                   =====================                   |     
     |                         S. Grimme                         |     
     |          Mulliken Center for Theoretical Chemistry        |     
     |                    University of Bonn                     |     
      -----------------------------------------------------------      

   * xtb version 6.7.1 (edcfbbe) compiled by 'albert@albert-system' on 2024-07-22

   xtb is free software: you can redistribute it and/or modify it under
   the terms of the GNU Lesser General Public License as published by
   the Free Software Foundation, either version 3 of the License, or
   (at your option) any later version.
   
   xtb is distributed in the hope that it will be useful,
   but WITHOUT ANY WARRANTY; without even the implied warranty of
   MERCHANTABILITY or FITNESS FOR A PARTICULAR PURPOSE.  See the
   GNU Lesser General Public License for more details.
   
   Cite this work as:
   * C. Bannwarth, E. Caldeweyher, S. Ehlert, A. Hansen, P. Pracht,
     J. Seibert, S. Spicher, S. Grimme, WIREs Comput. Mol. Sci., 2020, 11,
     e01493. DOI: 10.1002/wcms.1493
   
   for GFN2-xTB:
   * C. Bannwarth, S. Ehlert and S. Grimme., J. Chem. Theory Comput., 2019,
     15, 1652-1671. DOI: 10.1021/acs.jctc.8b01176
   for GFN1-xTB:
   * S. Grimme, C. Bannwarth, P. Shushkov, J. Chem. Theory Comput., 2017,
     13, 1989-2009. DOI: 10.1021/acs.jctc.7b00118
   for GFN0-xTB:
   * P. Pracht, E. Caldeweyher, S. Ehlert, S. Grimme, ChemRxiv, 2019, preprint.
     DOI: 10.26434/chemrxiv.8326202.v1
   for GFN-FF:
   * S. Spicher and S. Grimme, Angew. Chem. Int. Ed., 2020, 59, 15665-15673.
     DOI: 10.1002/anie.202004239
   
   for ALPB and GBSA implicit solvation:
   * S. Ehlert, M. Stahn, S. Spicher, S. Grimme, J. Chem. Theory Comput.,
     2021, 17, 4250-4261. DOI: 10.1021/acs.jctc.1c00471
   
   for ddCOSMO and CPCM-X implicit solvation:
   * M. Stahn, S. Ehlert, S. Grimme, J. Phys. Chem. A,
     2023, XX, XXXX-XXXX. DOI: 10.1021/acs.jpca.3c04382
   
   for DFT-D4:
   * E. Caldeweyher, C. Bannwarth and S. Grimme, J. Chem. Phys., 2017,
     147, 034112. DOI: 10.1063/1.4993215
   * E. Caldeweyher, S. Ehlert, A. Hansen, H. Neugebauer, S. Spicher,
     C. Bannwarth and S. Grimme, J. Chem. Phys., 2019, 150, 154122.
     DOI: 10.1063/1.5090222
   * E. Caldeweyher, J.-M. Mewes, S. Ehlert and S. Grimme, Phys. Chem. Chem. Phys.
     2020, 22, 8499-8512. DOI: 10.1039/D0CP00502A
   
   for sTDA-xTB:
   * S. Grimme and C. Bannwarth, J. Chem. Phys., 2016, 145, 054103.
     DOI: 10.1063/1.4959605
   
   in the mass-spec context:
   * V. Asgeirsson, C. Bauer and S. Grimme, Chem. Sci., 2017, 8, 4879.
     DOI: 10.1039/c7sc00601b
   * J. Koopman and S. Grimme, ACS Omega 2019, 4, 12, 15120-15133.
     DOI: 10.1021/acsomega.9b02011
   
   for metadynamics refer to:
   * S. Grimme, J. Chem. Theory Comput., 2019, 155, 2847-2862
     DOI: 10.1021/acs.jctc.9b00143
   
   for SPH calculations refer to:
   * S. Spicher and S. Grimme, J. Chem. Theory Comput., 2021, 17, 1701-1714
     DOI: 10.1021/acs.jctc.0c01306
   
   for ONIOM refer to:
   * C. Plett, A. Katbashev, S. Ehlert, S. Grimme, M. Bursch,
     Phys. Chem. Chem. Phys., 2023, 25, 17860-17868. DOI: 10.1039/D3CP02178E
   
   for DIPRO refer to:
   * J. Kohn, N. Gildemeister, S. Grimme, D. Fazzi, A. Hansen,
     J. Chem. Phys., 2023, just accepted.
   
   for PTB refer to:
   * S. Grimme, M. Mueller, A. Hansen, J. Chem. Phys., 2023, 158, 124111.
     DOI: 10.1063/5.0137838
   
   with help from (in alphabetical order)
   P. Atkinson, C. Bannwarth, F. Bohle, G. Brandenburg, E. Caldeweyher
   M. Checinski, S. Dohm, S. Ehlert, S. Ehrlich, I. Gerasimov, C. Hölzer
   A. Katbashev, J. Kohn, J. Koopman, C. Lavigne, S. Lehtola, F. März, M. Müller,
   F. Musil, H. Neugebauer, J. Pisarek, C. Plett, P. Pracht, F. Pultar,
   J. Seibert, P. Shushkov, S. Spicher, M. Stahn, M. Steiner, T. Strunk,
   J. Stückrath, T. Rose, and J. Unsleber
   
 * started run on 2026/03/15 at 22:00:15.802     
   ID    Z sym.   atoms
    1    6 C      1-6
    2    1 H      7-15
    3   35 Br     16

           -------------------------------------------------
          |                Calculation Setup                |
           -------------------------------------------------

          program call               : /software/orca-6.1.0-el8-x86_64/bin/otool_xtb product_optfreq_XTB.xyz --grad -c 0 -u 0 -P 8 --namespace product_optfreq --input product_optfreq_XTB.input.tmp --acc 0.200000
          hostname                   : midway3-login3.rcc.local
          calculation namespace      : product_optfreq
          coordinate file            : product_optfreq_XTB.xyz
          omp threads                :                     8


           -------------------------------------------------
          |                 G F N 2 - x T B                 |
           -------------------------------------------------

        Reference                      10.1021/acs.jctc.8b01176
      * Hamiltonian:
        H0-scaling (s, p, d)           1.850000    2.230000    2.230000
        zeta-weighting                 0.500000
      * Dispersion:
        s8                             2.700000
        a1                             0.520000
        a2                             5.000000
        s9                             5.000000
      * Repulsion:
        kExp                           1.500000    1.000000
        rExp                           1.000000
      * Coulomb:
        alpha                          2.000000
        third order                    shell-resolved
        anisotropic                    true
        a3                             3.000000
        a5                             4.000000
        cn-shift                       1.200000
        cn-exp                         4.000000
        max-rad                        5.000000

q/qsh data taken from xtbrestart
CAMM data taken from xtbrestart

          ...................................................
          :                      SETUP                      :
          :.................................................:
          :  # basis functions                  43          :
          :  # atomic orbitals                  42          :
          :  # shells                           24          :
          :  # electrons                        40          :
          :  max. iterations                   250          :
          :  Hamiltonian                  GFN2-xTB          :
          :  restarted?                       true          :
          :  GBSA solvation                  false          :
          :  PC potential                    false          :
          :  electronic temp.          300.0000000     K    :
          :  accuracy                    0.2000000          :
          :  -> integral cutoff          0.3198970E+02      :
          :  -> integral neglect         0.2000000E-08      :
          :  -> SCF convergence          0.2000000E-06 Eh   :
          :  -> wf. convergence          0.2000000E-04 e    :
          :  Broyden damping             0.4000000          :
          :  net charge                          0          :
          :  unpaired electrons                  0          :
          ...................................................

 iter      E             dE          RMSdq      gap      omega  full diag
   1    -21.6881568 -0.216882E+02  0.297E-01    2.54       0.0  T
   2    -21.6881677 -0.108890E-04  0.149E-01    2.54       1.0  T
   3    -21.6881452  0.224623E-04  0.515E-02    2.54       1.0  T
   4    -21.6881713 -0.260530E-04  0.259E-02    2.54       1.0  T
   5    -21.6881736 -0.232455E-05  0.144E-02    2.54       1.7  T
   6    -21.6881741 -0.535413E-06  0.795E-03    2.54       3.1  T
   7    -21.6881742 -0.686107E-07  0.452E-03    2.54       5.5  T
   8    -21.6881743 -0.675182E-07  0.555E-04    2.54      45.1  T
   9    -21.6881743 -0.894783E-09  0.367E-04    2.54      68.2  T
  10    -21.6881743 -0.183306E-09  0.240E-04    2.54     104.3  T
  11    -21.6881743 -0.138602E-09  0.134E-04    2.54     186.0  T
  12    -21.6881743 -0.462030E-10  0.398E-05    2.54     627.4  T

   *** convergence criteria satisfied after 12 iterations ***

         #    Occupation            Energy/Eh            Energy/eV
      -------------------------------------------------------------
         1        2.0000           -0.8331732             -22.6718
       ...           ...                  ...                  ...
        14        2.0000           -0.4643547             -12.6357
        15        2.0000           -0.4595922             -12.5061
        16        2.0000           -0.4548878             -12.3781
        17        2.0000           -0.4430924             -12.0572
        18        2.0000           -0.4058325             -11.0433
        19        2.0000           -0.4029171             -10.9639
        20        2.0000           -0.3564256              -9.6988 (HOMO)
        21                         -0.2631805              -7.1615 (LUMO)
        22                         -0.2214464              -6.0259
        23                         -0.0144001              -0.3918
        24                         -0.0045701              -0.1244
        25                          0.0358062               0.9743
       ...                                ...                  ...
        42                          0.5031580              13.6916
      -------------------------------------------------------------
                  HL-Gap            0.0932450 Eh            2.5373 eV
             Fermi-level           -0.3098031 Eh           -8.4302 eV

 SCC (total)                   0 d,  0 h,  0 min,  0.013 sec
 SCC setup                      ...        0 min,  0.000 sec (  1.475%)
 Dispersion                     ...        0 min,  0.000 sec (  0.611%)
 classical contributions        ...        0 min,  0.000 sec (  0.380%)
 integral evaluation            ...        0 min,  0.007 sec ( 53.045%)
 iterations                     ...        0 min,  0.004 sec ( 32.508%)
 molecular gradient             ...        0 min,  0.001 sec ( 10.928%)
 printout                       ...        0 min,  0.000 sec (  0.896%)

         :::::::::::::::::::::::::::::::::::::::::::::::::::::
         ::                     SUMMARY                     ::
         :::::::::::::::::::::::::::::::::::::::::::::::::::::
         :: total energy             -21.423707300932 Eh    ::
         :: gradient norm              0.003526650898 Eh/a0 ::
         :: HOMO-LUMO gap              2.537326612572 eV    ::
         ::.................................................::
         :: SCC energy               -21.688145343182 Eh    ::
         :: -> isotropic ES            0.007627591301 Eh    ::
         :: -> anisotropic ES          0.002540322125 Eh    ::
         :: -> anisotropic XC          0.007693662728 Eh    ::
         :: -> dispersion             -0.013124417188 Eh    ::
         :: repulsion energy           0.264438042250 Eh    ::
         :: add. restraining           0.000000000000 Eh    ::
         :: total charge              -0.000000000000 e     ::
         :::::::::::::::::::::::::::::::::::::::::::::::::::::


Property printout bound to 'properties.out'

           -------------------------------------------------
          | TOTAL ENERGY              -21.423707300932 Eh   |
          | GRADIENT NORM               0.003526650898 Eh/α |
          | HOMO-LUMO GAP               2.537326612572 eV   |
           -------------------------------------------------

------------------------------------------------------------------------
 * finished run on 2026/03/15 at 22:00:15.845     
------------------------------------------------------------------------
 total:
 * wall-time:     0 d,  0 h,  0 min,  0.042 sec
 *  cpu-time:     0 d,  0 h,  0 min,  0.178 sec
 * ratio c/w:     4.216 speedup
 SCF:
 * wall-time:     0 d,  0 h,  0 min,  0.014 sec
 *  cpu-time:     0 d,  0 h,  0 min,  0.102 sec
 * ratio c/w:     7.536 speedup


-------------------------   --------------------
FINAL SINGLE POINT ENERGY       -21.423707300930
-------------------------   --------------------


-------------
DIPOLE MOMENT
-------------
                                X             Y             Z
Total Dipole Moment    :      0.13400      -1.49100      -0.15300
                        -----------------------------------------
Magnitude (a.u.)       :      1.50481
Magnitude (Debye)      :      3.82492


------------------
CARTESIAN GRADIENT
------------------

   1   C   :    0.000363649   -0.000723984   -0.000373120
   2   C   :   -0.000291758   -0.000604993    0.000281174
   3   C   :    0.000633298    0.000357482    0.000585097
   4   C   :   -0.000202572    0.000344653   -0.000416341
   5   C   :    0.000928853   -0.000231096    0.000093496
   6   C   :   -0.001049210    0.000053141    0.001178304
   7   H   :    0.000399015   -0.000297791   -0.000129041
   8   H   :   -0.000120613   -0.000075000    0.000016083
   9   H   :   -0.000009598    0.000177401   -0.000404386
  10   H   :   -0.000132418    0.000008753   -0.000034480
  11   H   :   -0.000502995    0.000322813   -0.000335105
  12   H   :    0.000307826    0.000107455    0.000058234
  13   H   :   -0.000748603    0.001134210   -0.000925159
  14   H   :   -0.000403605    0.000151596    0.000498632
  15   H   :    0.000428184   -0.000843700   -0.000821494
  16   Br  :    0.000400547    0.000119059    0.000728108

Difference to translation invariance:
           :    0.0000000000    0.0000000000   -0.0000000000

Difference to rotation invariance:
           :   -0.0000000289   -0.0000000080    0.0000000374

Norm of the Cartesian gradient     ...    0.0035266509
RMS gradient                       ...    0.0005090282
MAX gradient                       ...    0.0011783042
------------------------------------------------------------------------------
                         ORCA GEOMETRY RELAXATION STEP
------------------------------------------------------------------------------

Reading the OPT-File                    .... done
Getting information on internals        .... done
Copying old internal coords+grads       .... done
Making the new internal coordinates     .... (2022 redundants) done
Validating the new internal coordinates .... (2022 redundants) done
Calculating the B-matrix                .... done
Calculating the G,G- and P matrices     .... done
Transforming gradient to internals      .... done
Projecting the internal gradient        .... done
Number of atoms                         ....  16
Number of internal coordinates          ....  78
Current Energy                          ....   -21.423707301 Eh
Current gradient norm                   ....     0.003526651 Eh/bohr
Maximum allowed component of the step   ....  0.300
Current trust radius                    ....  0.300
Updating the Hessian (BFGS)             .... done
Forming the augmented Hessian           .... done
Diagonalizing the augmented Hessian     .... done
Last element of RFO vector              ....  0.850184062
Lowest eigenvalues of augmented Hessian:
 -0.001839349  0.004705758  0.017420456  0.033037553  0.047227701
Length of the computed step             ....  0.619260699
Warning: the length of the step is outside the trust region - taking restricted step instead
The input lambda is                     ....     0.001893
   iter:   5  x=   -0.003654  g=  161.725373 f(x)=     0.293041
   iter:  10  x=   -0.006882  g=   18.384136 f(x)=     0.000000
The output lambda is                    ....    -0.006882 (12 iterations)
The final length of the internal step   ....  0.300000000
Converting the step to Cartesian space:
 Initial RMS(Int)=    0.0339683110
Transforming coordinates:
 Iter   0:  RMS(Cart)=    0.0582334913 RMS(Int)=    0.0337690571
 Iter   5:  RMS(Cart)=    0.0000000158 RMS(Int)=    0.0000000123
done
Storing new coordinates                 .... done
The predicted energy change is          ....    -0.000761064
Previously predicted energy change      ....    -0.000605642
Actually observed energy change         ....    -0.000990362
Ratio of predicted to observed change   ....     1.635227487
New trust radius                        ....     0.200000000

                                .--------------------.
          ----------------------|Geometry convergence|-------------------------
          Item                value                   Tolerance       Converged
          ---------------------------------------------------------------------
          Energy change      -0.0009903623            0.0000050000      NO
          RMS gradient        0.0004277611            0.0001000000      NO
          MAX gradient        0.0012042437            0.0003000000      NO
          RMS step            0.0339683110            0.0020000000      NO
          MAX step            0.1001962810            0.0040000000      NO
          -------------------------------------------------------------------------
          ........................................................
          Max(Bonds)      0.0050      Max(Angles)    0.60
          Max(Dihed)        5.74      Max(Improp)    0.00
          ---------------------------------------------------------------------

The optimization has not yet converged - more geometry cycles are needed


    ---------------------------------------------------------------------------
                         Redundant Internal Coordinates
                            (Angstroem and degrees)

        Definition                    Value    dE/dq     Step     New-Value
    ----------------------------------------------------------------------------
     1. B(C   1,C   0)                1.4781 -0.000047  0.0009    1.4789   
     2. B(C   2,C   1)                1.3610  0.000648 -0.0003    1.3607   
     3. B(C   3,C   2)                1.4767 -0.000327  0.0017    1.4784   
     4. B(C   4,C   3)                1.5843  0.000238 -0.0017    1.5827   
     5. B(C   5,C   4)                1.5537  0.001135 -0.0050    1.5488   
     6. B(C   5,C   0)                1.5842 -0.000107 -0.0010    1.5832   
     7. B(H   6,C   0)                1.0893 -0.000038  0.0001    1.0894   
     8. B(H   7,C   0)                1.0890 -0.000008  0.0001    1.0891   
     9. B(H   8,C   1)                1.0852 -0.000142  0.0003    1.0855   
    10. B(H   9,C   2)                1.0851  0.000064 -0.0002    1.0849   
    11. B(H  10,C   3)                1.0900 -0.000102  0.0002    1.0902   
    12. B(H  11,C   3)                1.0907  0.000050 -0.0001    1.0906   
    13. B(H  12,C   5)                1.0910  0.000120 -0.0004    1.0906   
    14. B(H  13,C   5)                1.0925 -0.000137  0.0004    1.0929   
    15. B(H  14,C   4)                1.0923  0.000021 -0.0001    1.0922   
    16. B(Br 15,C   4)                1.9732  0.000287 -0.0011    1.9722   
    17. A(C   5,C   0,H   7)          109.85 -0.000043    0.11    109.97   
    18. A(C   1,C   0,C   5)           97.68  0.000217   -0.44     97.24   
    19. A(H   6,C   0,H   7)          110.02  0.000120    0.01    110.03   
    20. A(C   1,C   0,H   6)          116.23 -0.000051   -0.01    116.22   
    21. A(C   5,C   0,H   6)          109.43  0.000002   -0.01    109.42   
    22. A(C   1,C   0,H   7)          112.87 -0.000235    0.30    113.17   
    23. A(C   0,C   1,C   2)          111.68 -0.000188    0.19    111.87   
    24. A(C   2,C   1,H   8)          118.17 -0.000124   -0.12    118.05   
    25. A(C   0,C   1,H   8)          115.28  0.000453   -0.40    114.88   
    26. A(C   1,C   2,C   3)          111.28  0.000100    0.08    111.36   
    27. A(C   3,C   2,H   9)          114.96  0.000123   -0.19    114.78   
    28. A(C   1,C   2,H   9)          118.11 -0.000082   -0.01    118.10   
    29. A(C   2,C   3,C   4)           98.38 -0.000044   -0.24     98.13   
    30. A(H  10,C   3,H  11)          109.89  0.000060   -0.01    109.89   
    31. A(C   2,C   3,H  11)          113.22 -0.000059    0.14    113.36   
    32. A(C   4,C   3,H  10)          110.06  0.000015   -0.04    110.02   
    33. A(C   2,C   3,H  10)          116.12 -0.000171    0.12    116.24   
    34. A(C   4,C   3,H  11)          108.38  0.000224   -0.01    108.37   
    35. A(H  14,C   4,Br 15)          104.12 -0.000560    0.40    104.52   
    36. A(C   5,C   4,Br 15)          108.86  0.000801   -0.25    108.61   
    37. A(C   3,C   4,Br 15)          107.58 -0.000362    0.00    107.58   
    38. A(C   3,C   4,H  14)          108.58 -0.000256    0.42    109.00   
    39. A(C   5,C   4,H  14)          108.36  0.000294    0.08    108.44   
    40. A(C   3,C   4,C   5)          118.42 -0.000003   -0.53    117.89   
    41. A(H  12,C   5,H  13)          107.91 -0.000957    0.48    108.40   
    42. A(C   4,C   5,H  13)          107.11  0.000469   -0.11    107.00   
    43. A(C   0,C   5,C   4)          117.93 -0.000025   -0.60    117.33   
    44. A(C   0,C   5,H  13)          107.22  0.000370   -0.09    107.13   
    45. A(C   4,C   5,H  12)          108.50  0.000276    0.00    108.50   
    46. A(C   0,C   5,H  12)          107.80 -0.000242    0.41    108.22   
    47. D(C   2,C   1,C   0,C   5)    -66.92  0.000158   -0.75    -67.67   
    48. D(C   2,C   1,C   0,H   6)    176.94  0.000042   -0.46    176.47   
    49. D(H   8,C   1,C   0,H   6)    -44.50  0.000140   -0.89    -45.39   
    50. D(C   2,C   1,C   0,H   7)     48.47  0.000142   -0.75     47.72   
    51. D(H   8,C   1,C   0,C   5)     71.64  0.000256   -1.18     70.46   
    52. D(C   3,C   2,C   1,C   0)     92.63  0.000379   -0.98     91.65   
    53. D(H   9,C   2,C   1,H   8)    179.21 -0.000205   -0.20    179.01   
    54. D(C   3,C   2,C   1,H   8)    -44.61  0.000016   -0.43    -45.03   
    55. D(H   9,C   2,C   1,C   0)    -43.55  0.000157   -0.76    -44.31   
    56. D(H  10,C   3,C   2,C   1)    177.88 -0.000121   -0.13    177.75   
    57. D(H  10,C   3,C   2,H   9)    -44.46 -0.000003   -0.27    -44.73   
    58. D(H  11,C   3,C   2,C   1)     49.37  0.000010   -0.37     49.00   
    59. D(C   4,C   3,C   2,H   9)     72.82 -0.000084   -0.42     72.40   
    60. D(C   4,C   3,C   2,C   1)    -64.84 -0.000202   -0.28    -65.12   
    61. D(H  14,C   4,C   3,H  11)     44.39 -0.000264    3.08     47.47   
    62. D(C   5,C   4,C   3,C   2)     38.31 -0.000450    3.05     41.36   
    63. D(H  14,C   4,C   3,H  10)    -75.81 -0.000485    3.12    -72.69   
    64. D(H  14,C   4,C   3,C   2)    162.35 -0.000273    3.12    165.47   
    65. D(C   5,C   4,C   3,H  11)    -79.65 -0.000441    3.01    -76.64   
    66. D(C   5,C   4,C   3,H  10)    160.15 -0.000661    3.05    163.20   
    67. D(H  12,C   5,C   4,C   3)   -155.61  0.001005   -5.12   -160.73   
    68. D(C   0,C   5,C   4,Br 15)     90.43  0.001091   -5.63     84.81   
    69. D(C   0,C   5,C   4,H  14)   -156.93  0.000988   -5.24   -162.17   
    70. D(C   0,C   5,C   4,C   3)    -32.78  0.000892   -5.00    -37.78   
    71. D(H  12,C   5,C   0,H   7)     44.88 -0.000185    3.05     47.93   
    72. D(H  12,C   5,C   0,H   6)    -76.01 -0.000308    2.98    -73.03   
    73. D(H  12,C   5,C   0,C   1)    162.63 -0.000358    3.21    165.84   
    74. D(C   4,C   5,C   0,H   7)    -78.31 -0.000333    3.14    -75.17   
    75. D(C   4,C   5,C   0,H   6)    160.80 -0.000456    3.06    163.87   
    76. D(H  12,C   5,C   4,H  14)     80.24  0.001101   -5.35     74.88   
    77. D(C   4,C   5,C   0,C   1)     39.44 -0.000507    3.30     42.74   
    78. D(H  12,C   5,C   4,Br 15)    -32.41  0.001204   -5.74    -38.15   
    ----------------------------------------------------------------------------

Geometry step timings:
Preparation and reading OPT file:      0.000 s ( 1.154 %)
Internal coordinates            :      0.000 s ( 1.596 %)
B/P matrices and projection     :      0.001 s (17.453 %)
Hessian update/contruction      :      0.001 s (18.812 %)
Making the step                 :      0.001 s (27.946 %)
Converting the step to Cartesian:      0.000 s ( 2.581 %)
Storing new data                :      0.000 s ( 3.226 %)
Checking convergence            :      0.000 s ( 2.581 %)
Final printing                  :      0.001 s (24.618 %)
Total time                      :      0.003 s

Time for energy+gradient        :      0.052 s
Time for complete geometry iter :      0.056 s

         *************************************************************
         *                GEOMETRY OPTIMIZATION CYCLE   3            *
         *************************************************************
---------------------------------
CARTESIAN COORDINATES (ANGSTROEM)
---------------------------------
  C     0.237809    0.229289    0.446998
  C     1.342323    0.115058   -0.530037
  C     2.159657    1.202753   -0.500057
  C     3.285518    1.004104    0.437527
  C     2.448023    0.928927    1.778217
  C     1.121283    0.130595    1.756922
  H    -0.494779   -0.576975    0.442130
  H    -0.268111    1.193114    0.411294
  H     1.801353   -0.866936   -0.587841
  H     1.701398    2.185229   -0.458682
  H     4.012938    1.814028    0.496346
  H     3.800292    0.052521    0.299940
  H     0.512273    0.447440    2.604290
  H     1.379755   -0.922649    1.892422
  H     3.081425    0.526413    2.571807
  Br    2.061353    2.778095    2.344305

----------------------------
CARTESIAN COORDINATES (A.U.)
----------------------------
  NO LB    ZA    FRAG    MASS        X           Y           Z
   0 C   6.0000    0    12.011    0.449393    0.433294    0.844703
   1 C   6.0000    0    12.011    2.536624    0.217428   -1.001625
   2 C   6.0000    0    12.011    4.081160    2.272873   -0.944971
   3 C   6.0000    0    12.011    6.208730    1.897481    0.826807
   4 C   6.0000    0    12.011    4.626092    1.755418    3.360342
   5 C   6.0000    0    12.011    2.118917    0.246789    3.320102
   6 H   1.0000    0     1.008   -0.934997   -1.090325    0.835505
   7 H   1.0000    0     1.008   -0.506655    2.254659    0.777233
   8 H   1.0000    0     1.008    3.404063   -1.638271   -1.110859
   9 H   1.0000    0     1.008    3.215176    4.129485   -0.866783
  10 H   1.0000    0     1.008    7.583353    3.428016    0.937958
  11 H   1.0000    0     1.008    7.181511    0.099250    0.566804
  12 H   1.0000    0     1.008    0.968056    0.845540    4.921395
  13 H   1.0000    0     1.008    2.607360   -1.743554    3.576159
  14 H   1.0000    0     1.008    5.823049    0.994777    4.860011
  15 Br 35.0000    0    79.900    3.895393    5.249838    4.430095

      -----------------------------------------------------------      
     |                   =====================                   |     
     |                           x T B                           |     
     |                   =====================                   |     
     |                         S. Grimme                         |     
     |          Mulliken Center for Theoretical Chemistry        |     
     |                    University of Bonn                     |     
      -----------------------------------------------------------      

   * xtb version 6.7.1 (edcfbbe) compiled by 'albert@albert-system' on 2024-07-22

   xtb is free software: you can redistribute it and/or modify it under
   the terms of the GNU Lesser General Public License as published by
   the Free Software Foundation, either version 3 of the License, or
   (at your option) any later version.
   
   xtb is distributed in the hope that it will be useful,
   but WITHOUT ANY WARRANTY; without even the implied warranty of
   MERCHANTABILITY or FITNESS FOR A PARTICULAR PURPOSE.  See the
   GNU Lesser General Public License for more details.
   
   Cite this work as:
   * C. Bannwarth, E. Caldeweyher, S. Ehlert, A. Hansen, P. Pracht,
     J. Seibert, S. Spicher, S. Grimme, WIREs Comput. Mol. Sci., 2020, 11,
     e01493. DOI: 10.1002/wcms.1493
   
   for GFN2-xTB:
   * C. Bannwarth, S. Ehlert and S. Grimme., J. Chem. Theory Comput., 2019,
     15, 1652-1671. DOI: 10.1021/acs.jctc.8b01176
   for GFN1-xTB:
   * S. Grimme, C. Bannwarth, P. Shushkov, J. Chem. Theory Comput., 2017,
     13, 1989-2009. DOI: 10.1021/acs.jctc.7b00118
   for GFN0-xTB:
   * P. Pracht, E. Caldeweyher, S. Ehlert, S. Grimme, ChemRxiv, 2019, preprint.
     DOI: 10.26434/chemrxiv.8326202.v1
   for GFN-FF:
   * S. Spicher and S. Grimme, Angew. Chem. Int. Ed., 2020, 59, 15665-15673.
     DOI: 10.1002/anie.202004239
   
   for ALPB and GBSA implicit solvation:
   * S. Ehlert, M. Stahn, S. Spicher, S. Grimme, J. Chem. Theory Comput.,
     2021, 17, 4250-4261. DOI: 10.1021/acs.jctc.1c00471
   
   for ddCOSMO and CPCM-X implicit solvation:
   * M. Stahn, S. Ehlert, S. Grimme, J. Phys. Chem. A,
     2023, XX, XXXX-XXXX. DOI: 10.1021/acs.jpca.3c04382
   
   for DFT-D4:
   * E. Caldeweyher, C. Bannwarth and S. Grimme, J. Chem. Phys., 2017,
[...]
     44       0.178380   0.210241  -0.059761  -0.131164   0.012528  -0.013874
     45      -0.000243  -0.000079   0.000022   0.000007   0.000103   0.000067
     46      -0.000171  -0.000246   0.000188  -0.000129   0.000437   0.000077
     47      -0.000001  -0.000148  -0.000166  -0.000260  -0.000138  -0.000093
                 36         37         38         39         40         41    
      0       0.065722  -0.073164   0.035434  -0.001455   0.002278   0.012502
      1      -0.008073   0.009952   0.032655  -0.000913   0.009040   0.011543
      2      -0.007900   0.014487  -0.046896   0.000125   0.000068   0.001959
      3      -0.008698  -0.001729  -0.341134   0.000459  -0.001432   0.001704
      4      -0.005914  -0.016108  -0.326624  -0.000739   0.003895  -0.002660
      5       0.010137  -0.013511   0.056396   0.000057   0.000106  -0.000222
      6      -0.003682   0.012552   0.336008  -0.000529  -0.000361  -0.000023
      7       0.001783   0.019275   0.319726   0.000784   0.000774   0.000312
      8      -0.006149   0.000839   0.069025   0.000125  -0.000007   0.000078
      9       0.030752   0.012085  -0.027926  -0.003149  -0.001394   0.007626
     10      -0.003160  -0.005072  -0.026784   0.000797   0.005173   0.006044
     11       0.004515  -0.000660  -0.043362   0.001920   0.000728   0.000746
     12      -0.000498   0.001143   0.009943   0.045408   0.008235   0.003233
     13      -0.004053  -0.001577   0.001956  -0.023062  -0.006592  -0.001984
     14       0.003860   0.001544  -0.015327   0.058384   0.009942   0.006228
     15      -0.019435  -0.019325  -0.010005  -0.002017   0.031568  -0.034626
     16      -0.036803  -0.035222   0.002297   0.012958  -0.074514   0.000086
     17       0.037252   0.037874  -0.022681  -0.001708  -0.012772   0.057628
     18      -0.315112   0.358671   0.049982   0.014084  -0.053120  -0.156651
     19       0.320851  -0.367307  -0.004175   0.014844  -0.050904  -0.168379
     20      -0.006230   0.004221  -0.129755   0.000050  -0.000330  -0.001706
     21      -0.416339   0.460964  -0.126009  -0.001931   0.040022  -0.002964
     22      -0.218322   0.238925  -0.046070   0.000524  -0.076104   0.026141
     23       0.025420  -0.001426   0.129804  -0.000991   0.003485  -0.000649
     24       0.020050  -0.005015   0.463295  -0.003174   0.017721  -0.014807
     25       0.005441  -0.021371   0.032031   0.007209  -0.042712   0.034319
     26      -0.004127   0.029992  -0.062750   0.000322  -0.002860   0.001746
     27       0.022882  -0.030267  -0.444148   0.001719   0.003107   0.001191
     28       0.011379  -0.000092  -0.015017  -0.005403  -0.007903  -0.002942
     29       0.008432   0.012881  -0.050164  -0.001021   0.000237  -0.000735
     30      -0.152767  -0.078365  -0.067157   0.027245  -0.009645  -0.085655
     31       0.148875   0.072480   0.034907   0.033855  -0.007343  -0.096251
     32       0.028869   0.003372  -0.125018   0.003282  -0.000168  -0.006113
     33      -0.190850  -0.079929   0.095041   0.023335   0.028024  -0.005909
     34      -0.103887  -0.047185   0.018893  -0.050122  -0.056381   0.021528
     35      -0.012340   0.011775   0.125658  -0.007310  -0.006980   0.002259
     36       0.002918  -0.028554   0.015720  -0.018199  -0.143051   0.510614
     37       0.469126   0.446425  -0.103805   0.016644   0.032714  -0.236236
     38      -0.129804  -0.139400   0.030568   0.025259   0.223635  -0.730957
     39       0.261046   0.222634  -0.008894   0.051736  -0.243965  -0.081910
     40       0.034125   0.026481   0.007677  -0.186447   0.899004   0.239626
     41      -0.407432  -0.405629   0.107911   0.009882  -0.063879   0.012245
     42       0.010123   0.001873  -0.002919  -0.564364  -0.101266  -0.052140
     43      -0.001603  -0.002531   0.029938   0.311418   0.057302   0.028698
     44      -0.000572   0.002483   0.004174  -0.730756  -0.129825  -0.065071
     45      -0.000082  -0.000083  -0.000032   0.000104  -0.000016   0.000031
     46       0.000049  -0.000041   0.000091  -0.000268  -0.000079  -0.000069
     47       0.000009  -0.000022   0.000044  -0.000007  -0.000003  -0.000030
                 42         43         44         45         46         47    
      0      -0.000720  -0.006107   0.050454   0.024639   0.022860  -0.003362
      1       0.001150  -0.005132   0.054212  -0.034682  -0.060108   0.012327
      2       0.000089  -0.000032  -0.000021   0.000163   0.001048   0.000042
      3       0.002784  -0.003960   0.003932  -0.023230   0.017839  -0.005485
      4      -0.005742   0.008193  -0.006340   0.056179  -0.044033   0.008558
      5      -0.000646   0.000668  -0.000753   0.004433  -0.003307   0.001213
      6       0.002329  -0.001496   0.001239  -0.002012  -0.004682  -0.030079
      7      -0.002168   0.004183  -0.001777   0.000785   0.013570   0.072326
      8       0.000237  -0.000001   0.000199  -0.000405   0.000323  -0.000188
      9       0.039523   0.046736   0.004134  -0.000866   0.001626  -0.002147
     10       0.074288  -0.046713  -0.008211   0.008403  -0.002955   0.010364
     11       0.006495  -0.006580  -0.001416   0.000641  -0.000118   0.001555
     12       0.001504   0.004611  -0.000230   0.000060   0.000702  -0.000952
     13       0.001878  -0.002821  -0.000180   0.000159  -0.000731   0.001067
     14       0.000224   0.002951  -0.000582   0.000379   0.000427  -0.000655
     15       0.003223   0.002379   0.007839   0.001009   0.004531  -0.000992
     16       0.002485  -0.003486   0.006226  -0.000825  -0.008664   0.002812
     17      -0.007226  -0.002624  -0.012995  -0.000600  -0.002311  -0.000056
     18       0.003012   0.073960  -0.650083  -0.059752   0.057020  -0.022550
     19       0.003428   0.079824  -0.694288  -0.092214   0.024745  -0.018353
     20      -0.000932   0.000882  -0.009963  -0.000605   0.000549  -0.000568
     21       0.008437   0.001114   0.024978  -0.255631  -0.332705   0.065936
     22      -0.018264  -0.013063   0.021399   0.546201   0.700340  -0.133621
     23       0.000107   0.000765  -0.000061  -0.008134  -0.014676   0.001218
     24      -0.029413   0.046928  -0.044520   0.314747  -0.232743   0.039373
     25       0.062372  -0.103373   0.100945  -0.712022   0.531347  -0.093032
     26       0.005315  -0.008900   0.007473  -0.050404   0.036489  -0.014381
     27      -0.024606   0.030837  -0.004834  -0.001917   0.078690   0.390968
     28       0.053589  -0.064919   0.008405   0.005536  -0.175293  -0.892450
     29       0.000075   0.000276  -0.000696   0.007041  -0.005684  -0.007441
     30      -0.638363  -0.178528   0.003084  -0.028864   0.000254  -0.023280
     31      -0.693518  -0.244030  -0.003163  -0.028387  -0.001131  -0.021471
     32      -0.044922  -0.017940   0.000387  -0.001350  -0.000525  -0.001520
     33       0.149543  -0.407325  -0.054467   0.042433  -0.025293   0.041470
     34      -0.230421   0.829203   0.107045  -0.078946   0.045738  -0.080252
     35      -0.032062   0.110945   0.014371  -0.009503   0.004565  -0.012768
     36      -0.061778  -0.024452  -0.116700  -0.005386  -0.027553   0.002197
     37       0.030224   0.009752   0.057389   0.002578   0.010383  -0.000154
     38       0.089022   0.035749   0.168817   0.008740   0.040904  -0.002899
     39       0.018465  -0.007745   0.036429   0.001526  -0.022053   0.008023
     40      -0.063322   0.032631  -0.120546  -0.003393   0.085391  -0.031756
     41       0.000814  -0.003271   0.001247   0.001563  -0.007847   0.003209
     42      -0.003887  -0.038757   0.003844  -0.001990  -0.006256   0.008504
     43       0.003374   0.023016  -0.001430   0.000741   0.003321  -0.004127
     44      -0.007207  -0.050294   0.003471  -0.003165  -0.007756   0.010801
     45      -0.000013   0.000020  -0.000006  -0.000005  -0.000003   0.000025
     46      -0.000052  -0.000045   0.000010   0.000028   0.000019  -0.000065
     47      -0.000005  -0.000016   0.000006   0.000011   0.000011   0.000020


The first frequency considered to be a vibration is 6
The total number of vibrations considered is 42


--------------------------
THERMOCHEMISTRY AT 298.15K
--------------------------

Temperature         ...   298.15 K
Pressure            ...     1.00 atm
Total Mass          ...   161.04 AMU
Quasi RRHO          ...     True
Cut-Off Frequency   ...     1.00 cm^-1

Throughout the following assumptions are being made:
  (1) The electronic state is orbitally nondegenerate
  (2) There are no thermally accessible electronically excited states
  (3) Hindered rotations indicated by low frequency modes are not
      treated as such but are treated as vibrations and this may
      cause some error
  (4) All equations used are the standard statistical mechanics
      equations for an ideal gas
  (5) All vibrations are strictly harmonic

freq.     108.58  E(vib)   ...       0.45 
freq.     207.64  E(vib)   ...       0.34 
freq.     268.46  E(vib)   ...       0.29 
freq.     354.65  E(vib)   ...       0.22 
freq.     408.89  E(vib)   ...       0.19 
freq.     494.31  E(vib)   ...       0.14 
freq.     515.15  E(vib)   ...       0.13 
freq.     561.47  E(vib)   ...       0.11 
freq.     660.18  E(vib)   ...       0.08 
freq.     735.55  E(vib)   ...       0.06 
freq.     798.49  E(vib)   ...       0.05 
freq.     838.81  E(vib)   ...       0.04 
freq.     904.65  E(vib)   ...       0.03 
freq.     932.97  E(vib)   ...       0.03 
freq.     961.83  E(vib)   ...       0.03 
freq.    1027.17  E(vib)   ...       0.02 
freq.    1047.18  E(vib)   ...       0.02 
freq.    1081.34  E(vib)   ...       0.02 
freq.    1097.16  E(vib)   ...       0.02 
freq.    1117.57  E(vib)   ...       0.01 
freq.    1123.23  E(vib)   ...       0.01 
freq.    1170.67  E(vib)   ...       0.01 
freq.    1191.53  E(vib)   ...       0.01 
freq.    1219.30  E(vib)   ...       0.01 
freq.    1246.50  E(vib)   ...       0.01 
freq.    1263.24  E(vib)   ...       0.01 
freq.    1285.29  E(vib)   ...       0.01 
freq.    1295.47  E(vib)   ...       0.01 
freq.    1315.40  E(vib)   ...       0.01 
freq.    1457.55  E(vib)   ...       0.00 
freq.    1465.73  E(vib)   ...       0.00 
freq.    1470.96  E(vib)   ...       0.00 
freq.    1538.49  E(vib)   ...       0.00 
freq.    2944.19  E(vib)   ...       0.00 
freq.    2958.33  E(vib)   ...       0.00 
freq.    2979.90  E(vib)   ...       0.00 
freq.    2982.95  E(vib)   ...       0.00 
freq.    2984.56  E(vib)   ...       0.00 
freq.    2989.52  E(vib)   ...       0.00 
freq.    3003.93  E(vib)   ...       0.00 
freq.    3012.98  E(vib)   ...       0.00 
freq.    3030.37  E(vib)   ...       0.00 

------------
INNER ENERGY
------------

The inner energy is: U= E(el) + E(ZPE) + E(vib) + E(rot) + E(trans)
    E(el)   - is the total energy from the electronic structure calculation
              = E(kin-el) + E(nuc-el) + E(el-el) + E(nuc-nuc)
    E(ZPE)  - the the zero temperature vibrational energy from the frequency calculation
    E(vib)  - the the finite temperature correction to E(ZPE) due to population
              of excited vibrational states
    E(rot)  - is the rotational thermal energy
    E(trans)- is the translational thermal energy

Summary of contributions to the inner energy U:
Electronic energy                ...    -21.42469599 Eh
Zero point energy                ...      0.13225247 Eh      82.99 kcal/mol
Thermal vibrational correction   ...      0.00382404 Eh       2.40 kcal/mol
Thermal rotational correction    ...      0.00141627 Eh       0.89 kcal/mol
Thermal translational correction ...      0.00141627 Eh       0.89 kcal/mol
-----------------------------------------------------------------------
Total thermal energy                    -21.28578694 Eh


Summary of corrections to the electronic energy:
(perhaps to be used in another calculation)
Total thermal correction                  0.00665658 Eh       4.18 kcal/mol
Non-thermal (ZPE) correction              0.13225247 Eh      82.99 kcal/mol
-----------------------------------------------------------------------
Total correction                          0.13890905 Eh      87.17 kcal/mol


--------
ENTHALPY
--------

The enthalpy is H = U + kB*T
                kB is Boltzmann's constant
Total thermal energy              ...    -21.28578694 Eh 
Thermal Enthalpy correction       ...      0.00094421 Eh       0.59 kcal/mol
-----------------------------------------------------------------------
Total Enthalpy                    ...    -21.28484274 Eh


WARNING (ORCA/SYM): The number of Z matrix atoms does not agree with
the number of centers in the basis set. The point group will therefore
be determined without considering basis set information.


Note: Only C1 symmetry has been detected, increase convergence thresholds 
      if your molecule has a higher symmetry. Symmetry factor of 1.0 is   
      used for the rotational entropy correction. 
 

Note: Rotational entropy computed according to Herzberg 
Infrared and Raman Spectra, Chapter V,1, Van Nostrand Reinhold, 1945 
Point Group:  C1, Symmetry Number:   1  
Rotational constants in cm-1:     0.115196     0.041216     0.036888 

Vibrational entropy computed according to the QRRHO of S. Grimme
Chem.Eur.J. 2012 18 9955 using a reference frequency of 100.0 cm-1


-------
ENTROPY
-------

The entropy contributions are T*S = T*(S(el)+S(vib)+S(rot)+S(trans))
     S(el)   - electronic entropy
     S(vib)  - vibrational entropy
     S(rot)  - rotational entropy
     S(trans)- translational entropy
The entropies will be listed as multiplied by the temperature to get
units of energy

Electronic entropy                ...      0.00000000 Eh      0.00 kcal/mol
Vibrational entropy               ...      0.00606579 Eh      3.81 kcal/mol
Rotational entropy                ...      0.01359436 Eh      8.53 kcal/mol
Translational entropy             ...      0.01954605 Eh     12.27 kcal/mol
-----------------------------------------------------------------------
Final entropy term                ...      0.03920620 Eh     24.60 kcal/mol

In case the symmetry of your molecule has not been determined correctly
or in case you have a reason to use a different symmetry number we print 
out the resulting rotational entropy values for sn=1,12:

 non-linear molecules -----------------------------------
|  sn= 1 | S(rot)=       0.01359436 Eh      8.53 kcal/mol|
|  sn= 2 | S(rot)=       0.01293990 Eh      8.12 kcal/mol|
|  sn= 3 | S(rot)=       0.01255707 Eh      7.88 kcal/mol|
|  sn= 4 | S(rot)=       0.01228544 Eh      7.71 kcal/mol|
|  sn= 5 | S(rot)=       0.01207476 Eh      7.58 kcal/mol|
|  sn= 6 | S(rot)=       0.01190261 Eh      7.47 kcal/mol|
|  sn= 7 | S(rot)=       0.01175707 Eh      7.38 kcal/mol|
|  sn= 8 | S(rot)=       0.01163099 Eh      7.30 kcal/mol|
|  sn= 9 | S(rot)=       0.01151978 Eh      7.23 kcal/mol|
|  sn=10 | S(rot)=       0.01142030 Eh      7.17 kcal/mol|
|  sn=11 | S(rot)=       0.01133031 Eh      7.11 kcal/mol|
|  sn=12 | S(rot)=       0.01124816 Eh      7.06 kcal/mol|
 linear molecules ---------------------------------------
|  Dinfh | S(rot)=       0.00844149 Eh      5.30 kcal/mol|
|  Cinfv | S(rot)=       0.00909595 Eh      5.71 kcal/mol|
 --------------------------------------------------------


-------------------
GIBBS FREE ENERGY
-------------------

The Gibbs free energy is G = H - T*S

Total enthalpy                    ...    -21.28484274 Eh 
Total entropy correction          ...     -0.03920620 Eh    -24.60 kcal/mol
-----------------------------------------------------------------------
Final Gibbs free energy         ...    -21.32404894 Eh

For completeness - the Gibbs free energy minus the electronic energy
G-E(el)                           ...      0.10064705 Eh     63.16 kcal/mol


--------------------------------
SUGGESTED CITATIONS FOR THIS RUN
--------------------------------

Below you find a list of papers that are relevant to this ORCA run
We neither can nor want to force you to cite these papers, but we appreciate if you do
You receive ORCA, which is the product of decades of hard work by many enthusiastic individuals, for free
The only thing we kindly ask in return is that you cite our papers,
We deeply appreciate it, if you show your appreciation for ORCA by not just citing the generic ORCA reference.

Please note that relegating all ORCA citations to the supporting information does *not* help us.
SI sections are not indexed - citations you put there will not count into any citation statistics
But we need these citations in order to attract the funding resources that allow us to do what we are doing

Therefore, if you are a happy ORCA user, please consider citing a few of the papers listed below in the main body of your paper

In addition to the list printed below, the program has created the file product_optfreq.bibtex that contains the list in bibtex format
You can import this file easily into all common literature databanks and citation aid programs


List of essential papers. We consider these as the minimum necessary citations

  1. Bannwarth, C.; Ehlert, S.; Grimme, S.
     GFN2-xTB—An Accurate and Broadly Parametrized Self-Consistent Tight-Binding Quantum Chemical Method with Multipole Electrostatics and Density-Dependent Dispersion Contributions
     J. Chem. Theory Comput. 2019 15(3), 1652-1671
     doi.org/10.1021/acs.jctc.8b01176
  2. Neese, F.
     Software update: the ORCA program system, version 6.0
     WIRES Comput. Molec. Sci. 2025 15(1), e70019
     doi.org/10.1002/wcms.7019

List of papers to cite with high priority. The work reported in these papers was absolutely
necessary for this run to complete.
Our perspective: the developers of density functionals and basis sets usually get cited in chemistry papers
Good! But without the algorithms to do something with them, the functionals or basis sets would not do anything.
Hence, in our opinion, the algorithm design and method developments papers are equally worthy of getting cited

  1. Bykov, D.; Petrenko, T.; Izsak, R.; Kossmann, S.; Becker, U.; Valeev, E.; Neese, F.
     Efficient implementation of the analytic second derivatives of Hartree-Fock and hybrid DFT energies: a detailed analysis of different approximations
     Molec. Phys. 2015 113 , 1961-1977
     doi.org/10.1080/00268976.2015.1025114
  2. Bannwarth, C.; Caldeweyher, E.; Ehlert, S.; Hansen, A.; Pracht, P.; Seibert, J.; Spicher, S.; Grimme, S.
     Extended tight-binding quantum chemistry methods
     WIRES Comput. Molec. Sci. 2020 11(2), e1493
     doi.org/10.1002/wcms.1493

List of suggested additional citations. These are papers that are important in the 'surrounding' of 
of this run, or papers that preceded the highly important papers. If you like your results we are grateful for a citation.

  1. Neese, F.
     The ORCA program system
     WIRES Comput. Molec. Sci. 2012 2(1), 73-78
     doi.org/10.1002/wcms.81
  2. Neese, F.
     Software update: the ORCA program system, version 4.0
     WIRES Comput. Molec. Sci. 2018 8(1), 1-6
     doi.org/10.1002/wcms.1327
  3. Neese, F.; Wennmohs, F.; Becker, U.; Riplinger, C.
     The ORCA quantum chemistry program package
     J. Chem. Phys. 2020 152(22), 224108
     doi.org/10.1063/5.0004608
  4. Neese, F.
     Software update: The ORCA program system—Version 5.0
     WIRES Comput. Molec. Sci. 2022 12(1), e1606
     doi.org/10.1002/wcms.1606

List of optional additional citations

  1. Neese, F.
     Approximate second-order SCF convergence for spin unrestricted wavefunctions
     Chem. Phys. Lett. 2000 325(1-3), 93-98
     doi.org/10.1016/s0009-2614(00)00662-x

Timings for individual modules:

Sum of individual times          ...        0.795 sec (=   0.013 min)
Geometry relaxation              ...        0.028 sec (=   0.000 min)   3.6 %
XTB module                       ...        0.767 sec (=   0.013 min)  96.4 %
                             ****ORCA TERMINATED NORMALLY****
TOTAL RUN TIME: 0 days 0 hours 0 minutes 1 seconds 282 msec
