
                                 *****************
                                 * O   R   C   A *
                                 *****************

                                            #,                                       
                                            ###                                      
                                            ####                                     
                                            #####                                    
                                            ######                                   
                                           ########,                                 
                                     ,,################,,,,,                         
                               ,,#################################,,                 
                          ,,##########################################,,             
                       ,#########################################, ''#####,          
                    ,#############################################,,   '####,        
                  ,##################################################,,,,####,       
                ,###########''''           ''''###############################       
              ,#####''   ,,,,##########,,,,          '''####'''          '####       
            ,##' ,,,,###########################,,,                        '##       
           ' ,,###''''                  '''############,,,                           
         ,,##''                                '''############,,,,        ,,,,,,###''
      ,#''                                            '''#######################'''  
     '                                                          ''''####''''         
             ,#######,   #######,   ,#######,      ##                                
            ,#'     '#,  ##    ##  ,#'     '#,    #''#        ,####,    ,#,          
            ##       ##  ##   ,#'  ##            #'  '#       #'       ,# #          
            ##       ##  #######   ##           ,######,      #####,      #          
            '#,     ,#'  ##    ##  '#,     ,#' ,#      #,     #,   #      #          
             '#######'   ##     ##  '#######'  #'      '#     '####' #    #          



                #########################################################
                #                        -***-                          #
                #          Department of theory and spectroscopy        #
                #                                                       #
                #                      Frank Neese                      #
                #                                                       #
                #     Directorship, Architecture, Infrastructure        #
                #                    SHARK, DRIVERS                     #
                #        Core code/Algorithms in most modules           #
                #                                                       #
                #        Max Planck Institute fuer Kohlenforschung      #
                #                Kaiser Wilhelm Platz 1                 #
                #                 D-45470 Muelheim/Ruhr                 #
                #                      Germany                          #
                #                                                       #
                #                  All rights reserved                  #
                #                        -***-                          #
                #########################################################


                         Program Version 6.1.0  -  RELEASE   -
                                (GIT: $679e74b$)
                          ($2025-06-10 18:02:51 +0200$)


 With contributions from (in alphabetic order):
[Max-Planck-Institut fuer Kohlenforschung]                               
  Daniel Aravena         : Magnetic Suceptibility                        
  Michael Atanasov       : Ab Initio Ligand Field Theory (pilot matlab implementation)
  Alexander A. Auer      : GIAO ZORA, VPT2 properties, NMR spectrum      
  Ute Becker             : All parallelization in ORCA, NUMFREQ, NUMCALC 
  Giovanni Bistoni       : ED, misc. LED, open-shell LED, HFLD           
  Dmytro Bykov           : pre 5.0 version of the SCF Hessian            
  Marcos Casanova-Páez   : Triplet and SCS-CIS(D). UHF-(DLPNO)-IP/EA/STEOM-CCSD. UHF-CVS-IP/STEOM-CCSD   
  Vijay G. Chilkuri      : MRCI spin determinant printing, contributions to CSF-ICE 
  Pauline Colinet        : FMM embedding                                 
  Dipayan Datta          : RHF DLPNO-CCSD density                        
  Achintya Kumar Dutta   : EOM-CC, STEOM-CC                              
  Nicolas Foglia         : Exact transition moments, OPA infrastructure, MCD improvements    
  Dmitry Ganyushin       : Spin-Orbit,Spin-Spin,Magnetic field MRCI      
  Miquel Garcia-Rates    : C-PCM and meta-GGA Hessian, CCSD/C-PCM, Gaussian charge scheme 
  Tiago L. C. Gouveia    : GS-ROHF, GS-ROCIS                             
  Yang Guo               : DLPNO-NEVPT2, F12-NEVPT2, CIM, IAO-localization        
  Andreas Hansen         : Spin unrestricted coupled pair/coupled cluster methods 
  Ingolf Harden          : AUTO-CI MPn and infrastructure                
  Benjamin Helmich-Paris : MC-RPA, TRAH-(SCF,CASSCF), AVAS, COSX integrals, SCF dyn. polar., MC-PDFT, srDFT 
  Lee Huntington         : MR-EOM, pCC                                   
  Robert Izsak           : Overlap fitted RIJCOSX, COSX-SCS-MP3, EOM     
  Riya Kayal             : Wick's Theorem for AUTO-CI, AUTO-CI UHF-CCSDT 
  Emily Kempfer          : AUTO-CI RHF CISDT and CCSDT, approximate NEVPT4
  Christian Kollmar      : KDIIS, OOCD, Brueckner-CCSD(T), CCSD density, CASPT2, CASPT2-K, improved NEVPT2 
  Axel Koslowski         : Symmetry handling                             
  Simone Kossmann        : meta-GGA functionals, TD-DFT gradient, OOMP2, (MP2 Hessian; deprecated post 5.0) 
  Lucas Lang             : DCDCAS, Hyperfine gauge corrections, ICE-SOC+SSC
  Marvin Lechner         : AUTO-CI (C++ implementation), FIC-MRCC        
  Spencer Leger          : CASSCF response                               
  Dagmar Lenk            : GEPOL surface, SMD, ORCA-2-JSON               
  Dimitrios Liakos       : Extrapolation schemes; Compound Job, Property file
  Dimitrios Manganas     : Further ROCIS development; embedding schemes. LFT, Crystal Embedding 
  Dimitrios Pantazis     : SARC Basis sets                               
  Anastasios Papadopoulos: AUTO-CI, single reference methods and gradients 
  Taras Petrenko         : pre 6.0 DFT Hessian and TD-DFT gradient,  ECA, NRVS 
  Petra Pikulova         : Analytic Raman intensities                    
  Peter Pinski           : DLPNO-MP2, DLPNO-MP2 Gradient                 
  Shashank Vittal Rao    : ES-AILFT, MagRelax                            
  Christoph Reimann      : Effective Core Potentials                     
  Marius Retegan         : Local ZFS, SOC                                
  Christoph Riplinger    : Optimizer, TS searches, QM/MM, DLPNO-CCSD(T), (RO)-DLPNO pert. Triples 
  Michael Roemelt        : Original ROCIS implementation, recursive CI coupling coefficients
  Masaaki Saitow         : Open-shell DLPNO-CCSD energy and density      
  Barbara Sandhoefer     : DKH picture change effects                    
  Yorick L. A. Schmerwitz: GMF and freeze-and-release deltaSCF, NEB S-IDPP initial path                    
  Kantharuban Sivalingam : CASSCF convergence/infrastructure, NEVPT2, NEVPT3, NEVPT4(SD), FIC-MRCI and CEPA variants
  Bernardo de Souza      : ESD, SOC TD-DFT                               
  Georgi L. Stoychev     : AutoAux, RI-MP2 NMR, DLPNO-MP2 response, X2C  
  Van Anh Tran           : RI-MP2 g-tensors                              
  Willem Van den Heuvel  : Paramagnetic NMR                              
  Zikuan Wang            : NOTCH, Electric field optimization            
  Frank Wennmohs         : Technical directorship and infrastructure     
  Hang Xu                : AUTO-CI-Response properties                   
                                                                         
[FACCTs GmbH]                                                            
  Markus Bursch, Nicolas Foglia, Miquel Garcia-Rates, Ingolf Harden, Hagen Neugebauer, Anastasios Papadopoulos, 
  Christoph Riplinger, Bernardo de Souza, Georgi L. Stoychev                                                    
                                                                 
  APM, various basis sets, CI-OPT, improved COSX, DLPNO-Multilevel,           
  DOCKER, DRACO, updates on ESD, Fragmentator, GOAT, IRC, LR-CPCM, L-BFGS, MBIS, meta-GGA TD-DFT gradient, ML-optimized integration grids, 
  MM, NACMEs, nearIR, NEB, NEB-TS, NL-DFT gradient (VV10), 2- and 3-layer-ONIOM, interface openCOSMO-RS, QMMM,   
  Crystal-QMMM, RESP, rigid body optimization, SF, symmetry and pop. for TD-DFT, various functionals, SOLVATOR                                   
                                                                         
[Other institutions]                                                     
  V. Asgeirsson          : NEB                                           
  Christoph Bannwarth    : sTDA-DFT, sTD-DFT, PBEh-3c, B97-3c, D3        
  Giovanni Bistoni       : ETS/NOCV, ADLD/ADEX, COVALED                  
  Martin Brehm           : Molecular dynamics                            
  Ronald Cardenas        : ETS/NOCV                                      
  Martina Colucci        : COVALED                                       
  Sebastian Ehlert       : rSCAN, r2SCAN, r2SCAN-3c, D4, dhf basis sets  
  Marvin Friede          : D4 for Fr, Ra, Ac-Lr                          
  Lars Goerigk           : TD-DFT with DH, B97 family of functionals     
  Stefan Grimme          : VdW corrections, initial TS optimization, DFT functionals, gCP, sTDA/sTD-DF 
  Waldemar Hujo          : DFT-NL                                        
  H. Jonsson             : NEB                                           
  Holger Kruse           : gCP                                           
  Marcel Mueller         : wB97X-3c, vDZP basis set                      
  Hagen Neugebauer       : wr2SCAN, Native XTB                           
  Gianluca Regni         : ADLD/ADEX                                     
  Tobias Risthaus        : pre 6.0 range-separated hybrid DFT and stability analysis
  Lukas Wittmann         : regularized MP2, r2SCAN double-hybrids, wr2SCAN        
                                                                         
We gratefully acknowledge several colleagues who have allowed us to      
interface, adapt or use parts of their codes:                            
  Ed Valeev, F. Pavosevic, A. Kumar             : LibInt (2-el integral package), F12 methods 
  Garnet Chan, S. Sharma, J. Yang, R. Olivares  : DMRG                   
  Ulf Ekstrom                                   : XCFun DFT Library      
  Mihaly Kallay                                 : mrcc  (arbitrary order and MRCC methods)
  Frank Weinhold                                : gennbo (NPA and NBO analysis)           
  Simon Mueller                                 : openCOSMO-RS                            
  Christopher J. Cramer and Donald G. Truhlar   : smd solvation model                     
  S Lehtola, MJT Oliveira, MAL Marques          : LibXC Library                           
  Liviu Ungur et al                             : ANISO software                          


 Your calculation uses the libint2 library for the computation of 2-el integrals
 For citations please refer to: http://libint.valeyev.net

 Your ORCA version has been built with support for libXC version: 7.0.0
 For citations please refer to: https://libxc.gitlab.io

 This ORCA versions uses:
   CBLAS   interface :  Fast vector & matrix operations
   LAPACKE interface :  Fast linear algebra routines
   SCALAPACK package :  Parallel linear algebra routines
   Shared memory     :  Shared parallel matrices
   BLAS/LAPACK       :  OpenBLAS 0.3.29  USE64BITINT DYNAMIC_ARCH NO_AFFINITY SkylakeX SINGLE_THREADED
        Core in use  :  SkylakeX
   Copyright (c) 2011-2014, The OpenBLAS Project


  ***********************************
  * Starting time: Sun Mar 15 22:00:13 2026
  * Host name:     midway3-login3.rcc.local
  * Process ID:    3198766
  * Working dir.:  /home/rzhu16/orca_TS_search/runs/da_br/geo_opt_reactant_product
  ***********************************

Your calculation utilizes the semiempirical GFN2-xTB method
Please cite in your paper:
Bannwarth, C.; Ehlert S.; Grimme, S. J. Chem. Theory Comput. 2019, 15, 1652.
   

================================================================================

================================================================================
                                        WARNINGS
                       Please study these warnings very carefully!
================================================================================


WARNING: Analytical Hessian for XTB is limited in the analysis of the data.
       : If you want to obtain extensive IR and deltaG analysis, please use ! XTB NumFreq. 


WARNING: Geometry Optimization
  ===> : Switching off AutoStart
         For restart on a previous wavefunction, please use MOREAD

WARNING: Found dipole moment calculation with XTB calculation
  ===> : Switching off dipole moment calculation


WARNING: Found frequency calculation in combination with XTB calculation
  ===> : Need to redirect dipole moment calculation to properties.out


================================================================================
                                       INPUT FILE
================================================================================
NAME = reactant_optfreq.inp
|  1> ! XTB2 Opt Freq PAL8
|  2> 
|  3> %geom
|  4>   MaxIter 500
|  5> end
|  6> 
|  7> * xyz 0 1
|  8>   C       0.075935      0.170788     -0.038580
|  9>   C       1.322465      0.076588     -0.487726
| 10>   C       2.218819      1.216652     -0.457557
| 11>   C       3.486674      1.097226     -0.081337
| 12>   C       2.277217      0.867888      2.513607
| 13>   C       1.186941      0.130503      2.453039
| 14>   H      -0.555831     -0.687955      0.106965
| 15>   H      -0.338188      1.127559      0.234757
| 16>   H       1.754726     -0.884046     -0.736876
| 17>   H       1.773938      2.192895     -0.596582
| 18>   H       4.113559      1.952042      0.104497
| 19>   H       3.924247      0.127012      0.094850
| 20>   H       0.203530      0.556405      2.541792
| 21>   H       1.250046     -0.933295      2.306753
| 22>   H       3.280932      0.488121      2.432797
| 23>   Br      2.216710      2.748395      2.716564
| 24> *
| 25> 
| 26>                          ****END OF INPUT****
================================================================================

                       *****************************
                       * Geometry Optimization Run *
                       *****************************

Geometry optimization settings:
Update method            Update   .... BFGS
Choice of coordinates    CoordSys .... (2022) Redundant Internals
Initial Hessian          InHess   .... Almloef's Model
Max. no of cycles        MaxIter  .... 500

Convergence Tolerances:
Energy Change            TolE     ....  5.0000e-06 Eh
Max. Gradient            TolMAXG  ....  3.0000e-04 Eh/bohr
RMS Gradient             TolRMSG  ....  1.0000e-04 Eh/bohr
Max. Displacement        TolMAXD  ....  4.0000e-03 bohr
RMS Displacement         TolRMSD  ....  2.0000e-03 bohr
Strict Convergence                .... False

------------------------------------------------------------------------------
                        ORCA OPTIMIZATION COORDINATE SETUP
------------------------------------------------------------------------------

The optimization will be done in redundant internal coordinates (2022)
Making redundant internal coordinates   ...  (2022 redundants) done
Evaluating the initial hessian          ...  (Almloef) done
Evaluating the coordinates              ...  done
Calculating the B-matrix                .... done
Calculating the G-matrix                .... done
The number of degrees of freedom        ....  150

    -----------------------------------------------------------------
                    Redundant Internal Coordinates


    -----------------------------------------------------------------
         Definition                    Initial Value    Approx d2E/dq
    -----------------------------------------------------------------
      1. B(C   1,C   0)                  1.3283         0.783682   
      2. B(C   2,C   1)                  1.4506         0.500183   
      3. B(C   3,C   2)                  1.3279         0.784964   
      4. B(C   4,C   2)                  2.9921         0.010000   
      5. B(C   4,C   3)                  2.8721         0.010000   
      6. B(C   5,C   1)                  2.9444         0.010000   
      7. B(C   5,C   0)                  2.7284         0.010000   
      8. B(C   5,C   4)                  1.3176         0.815128   
      9. B(H   6,C   5)                  3.0350         0.010000   
     10. B(H   6,C   0)                  1.0760         0.379121   
     11. B(H   7,C   5)                  2.8707         0.010000   
     12. B(H   7,C   0)                  1.0778         0.376626   
     13. B(H   8,C   1)                  1.0825         0.370199   
     14. B(H   9,C   2)                  1.0818         0.371109   
     15. B(H  10,C   3)                  1.0762         0.378811   
     16. B(H  11,C   4)                  3.0186         0.010000   
     17. B(H  11,C   3)                  1.0788         0.375214   
     18. B(H  12,H   7)                  2.4376         0.010000   
     19. B(H  12,C   5)                  1.0753         0.380018   
     20. B(H  12,H   6)                  2.8379         0.010000   
     21. B(H  12,C   0)                  2.6121         0.010000   
     22. B(H  13,H   8)                  3.0856         0.010000   
     23. B(H  13,C   1)                  2.9722         0.010000   
     24. B(H  13,C   5)                  1.0757         0.379576   
     25. B(H  13,H   6)                  2.8567         0.010000   
     26. B(H  13,C   0)                  2.8457         0.010000   
     27. B(H  14,C   4)                  1.0762         0.378832   
     28. B(H  14,H  10)                  2.8736         0.010000   
     29. B(H  14,C   3)                  2.5950         0.010000   
     30. B(H  14,C   2)                  3.1643         0.010000   
     31. B(H  14,H  11)                  2.4516         0.010000   
     32. B(Br 15,C   4)                  1.8924         0.331660   
     33. A(C   1,C   0,H   6)          122.6928         0.370542   
     34. A(C   5,C   0,H   7)           86.4435         0.176765   
     35. A(C   1,C   0,C   5)           85.7339         0.208781   
     36. A(C   5,C   0,H   6)           95.9567         0.176896   
     37. A(H   6,C   0,H   7)          116.6525         0.295289   
     38. A(C   1,C   0,H   7)          120.6160         0.370122   
     39. A(C   0,C   1,C   5)           67.5295         0.189090   
     40. A(C   0,C   1,H   8)          121.0309         0.369029   
     41. A(C   2,C   1,H   8)          117.0981         0.341967   
     42. A(C   0,C   1,C   2)          121.1392         0.435595   
     43. A(C   2,C   1,C   5)           89.6149         0.179418   
     44. A(C   5,C   1,H   8)          105.3382         0.162052   
     45. A(C   3,C   2,C   4)           71.9132         0.185230   
     46. A(C   4,C   2,H   9)          103.9352         0.159247   
     47. A(C   3,C   2,H   9)          120.6787         0.369288   
     48. A(C   1,C   2,H   9)          116.9020         0.342108   
     49. A(C   1,C   2,C   3)          121.6826         0.435724   
     50. A(C   1,C   2,C   4)           86.6235         0.175898   
     51. A(C   4,C   3,H  11)           87.2164         0.166812   
     52. A(C   4,C   3,H  10)           98.7835         0.166980   
     53. A(C   2,C   3,C   4)           82.0156         0.195327   
     54. A(H  10,C   3,H  11)          116.7350         0.295076   
     55. A(C   2,C   3,H  11)          120.9593         0.369987   
     56. A(C   2,C   3,H  10)          122.2524         0.370594   
     57. A(C   3,C   4,Br 15)           91.7773         0.183923   
     58. A(C   3,C   4,H  14)           64.3797         0.166981   
     59. A(C   3,C   4,C   5)          110.5852         0.196238   
     60. A(C   2,C   4,C   3)           26.0712         0.115648   
     61. A(C   2,C   4,H  14)           89.1275         0.159576   
     62. A(C   2,C   4,C   5)           90.1969         0.186054   
     63. A(H  14,C   4,Br 15)          112.8634         0.340396   
     64. A(C   5,C   4,Br 15)          122.3164         0.434715   
     65. A(C   5,C   4,H  14)          124.8059         0.373011   
     66. A(C   2,C   4,Br 15)           89.4296         0.174909   
     67. A(H  12,C   5,H  13)          117.1658         0.295764   
     68. A(C   4,C   5,H  13)          120.7419         0.373137   
     69. A(C   4,C   5,H  12)          122.0917         0.373212   
     70. A(C   0,C   5,H  13)           85.0835         0.176920   
     71. A(C   0,C   5,H  12)           72.3702         0.176943   
     72. A(C   0,C   5,C   4)          111.7563         0.209852   
     73. A(C   0,C   5,C   1)           26.7365         0.120248   
     74. A(C   1,C   5,H  13)           80.9881         0.162467   
     75. A(C   1,C   5,H  12)           97.5724         0.162486   
     76. A(C   1,C   5,C   4)           91.0355         0.189985   
     77. D(C   5,C   1,C   0,H   6)    -94.3460         0.061803   
     78. D(H   8,C   1,C   0,H   6)      0.5433         0.061803   
     79. D(C   2,C   1,C   0,H   7)      8.2888         0.061803   
     80. D(H   8,C   1,C   0,C   5)     94.8893         0.061803   
     81. D(C   2,C   1,C   0,H   6)   -169.3714         0.061803   
     82. D(H   8,C   1,C   0,H   7)    178.2035         0.061803   
     83. D(C   2,C   1,C   0,C   5)    -75.0254         0.061803   
     84. D(C   5,C   1,C   0,H   7)     83.3142         0.061803   
     85. D(C   3,C   2,C   1,C   5)     74.0492         0.022294   
     86. D(H   9,C   2,C   1,C   5)    -96.1763         0.022294   
     87. D(H   9,C   2,C   1,C   0)    -32.9598         0.022294   
     88. D(H   9,C   2,C   1,H   8)    156.7441         0.022294   
     89. D(C   3,C   2,C   1,C   0)    137.2657         0.022294   
     90. D(C   4,C   2,C   1,C   0)     70.9612         0.022294   
     91. D(C   3,C   2,C   1,H   8)    -33.0304         0.022294   
     92. D(C   4,C   2,C   1,H   8)    -99.3349         0.022294   
     93. D(C   4,C   3,C   2,H   9)     95.7862         0.058829   
     94. D(C   4,C   3,C   2,C   1)    -74.0748         0.058829   
     95. D(H  11,C   3,C   2,C   4)     81.8751         0.058829   
     96. D(H  10,C   3,C   2,C   4)    -95.3835         0.058829   
     97. D(H  10,C   3,C   2,H   9)      0.4027         0.058829   
     98. D(H  10,C   3,C   2,C   1)   -169.4583         0.058829   
     99. D(H  11,C   3,C   2,H   9)    177.6613         0.058829   
    100. D(H  11,C   3,C   2,C   1)      7.8003         0.058829   
    101. D(H  14,C   4,C   2,C   1)    107.2816         0.010000   
    102. D(C   5,C   4,C   2,H   9)     99.3695         0.010000   
    103. D(C   5,C   4,C   2,C   3)   -142.4673         0.010000   
    104. D(C   5,C   4,C   2,C   1)    -17.5255         0.010000   
    105. D(Br 15,C   4,C   2,C   1)   -139.8416         0.010000   
    106. D(Br 15,C   4,C   3,H  11)    153.1421         0.010000   
    107. D(Br 15,C   4,C   3,H  10)     36.5120         0.010000   
    108. D(Br 15,C   4,C   3,C   2)    -85.0617         0.010000   
    109. D(H  14,C   4,C   2,H   9)   -135.8235         0.010000   
    110. D(H  14,C   4,C   3,H  10)    -78.0847         0.010000   
    111. D(C   5,C   4,C   3,H  11)    -81.1971         0.010000   
    112. D(C   5,C   4,C   3,H  10)    162.1728         0.010000   
    113. D(C   5,C   4,C   3,C   2)     40.5990         0.010000   
    114. D(H  14,C   4,C   3,H  11)     38.5454         0.010000   
    115. D(H  14,C   4,C   3,C   2)    160.3415         0.010000   
    116. D(Br 15,C   4,C   2,H   9)    -22.9466         0.010000   
    117. D(Br 15,C   4,C   2,C   3)     95.2166         0.010000   
    118. D(H  14,C   4,C   2,C   3)    -17.6603         0.010000   
    119. D(H  13,C   5,C   1,H   8)    -20.7060         0.010000   
    120. D(H  13,C   5,C   1,C   2)   -138.7732         0.010000   
    121. D(H  13,C   5,C   1,C   0)     97.0049         0.010000   
    122. D(H  12,C   5,C   1,C   2)    104.7870         0.010000   
    123. D(H  12,C   5,C   1,C   0)    -19.4349         0.010000   
    124. D(C   4,C   5,C   1,H   8)    100.2766         0.010000   
    125. D(C   4,C   5,C   1,C   0)   -142.0125         0.010000   
    126. D(C   1,C   5,C   0,H   7)   -121.0857         0.010000   
    127. D(C   1,C   5,C   0,H   6)    122.4655         0.010000   
    128. D(H  13,C   5,C   0,H   7)    159.2083         0.010000   
    129. D(H  13,C   5,C   0,H   6)     42.7595         0.010000   
    130. D(C   4,C   5,C   1,C   2)    -17.7906         0.010000   
    131. D(H  13,C   5,C   0,C   1)    -79.7060         0.010000   
    132. D(H  12,C   5,C   0,H   7)     38.6661         0.010000   
    133. D(H  12,C   5,C   0,H   6)    -77.7827         0.010000   
    134. D(H  12,C   5,C   1,H   8)   -137.1458         0.010000   
    135. D(H  12,C   5,C   0,C   1)    159.7517         0.010000   
    136. D(C   4,C   5,C   0,H   7)    -79.5882         0.010000   
    137. D(C   4,C   5,C   0,H   6)    163.9630         0.010000   
    138. D(C   0,C   5,C   1,C   2)    124.2219         0.010000   
    139. D(C   4,C   5,C   0,C   1)     41.4974         0.010000   
    140. D(C   0,C   5,C   4,C   3)    -25.4467         0.074078   
    141. D(C   0,C   5,C   4,Br 15)     80.6217         0.074078   
    142. D(C   0,C   5,C   4,H  14)    -97.9021         0.074078   
    143. D(H  13,C   5,C   4,C   2)     88.6413         0.074078   
    144. D(H  13,C   5,C   4,C   3)     72.0225         0.074078   
    145. D(H  13,C   5,C   4,Br 15)    178.0909         0.074078   
    146. D(H  13,C   5,C   4,H  14)     -0.4329         0.074078   
    147. D(H  12,C   5,C   4,C   2)    -91.0901         0.074078   
    148. D(H  12,C   5,C   4,C   3)   -107.7089         0.074078   
    149. D(H  12,C   5,C   4,Br 15)     -1.6405         0.074078   
    150. D(H  12,C   5,C   4,H  14)    179.8357         0.074078   
    -----------------------------------------------------------------

Number of atoms                         .... 16
Number of degrees of freedom            .... 150


         *************************************************************
         *                GEOMETRY OPTIMIZATION CYCLE   1            *
         *************************************************************
---------------------------------
CARTESIAN COORDINATES (ANGSTROEM)
---------------------------------
  C     0.075935    0.170788   -0.038580
  C     1.322465    0.076588   -0.487726
  C     2.218819    1.216652   -0.457557
  C     3.486674    1.097226   -0.081337
  C     2.277217    0.867888    2.513607
  C     1.186941    0.130503    2.453039
  H    -0.555831   -0.687955    0.106965
  H    -0.338188    1.127559    0.234757
  H     1.754726   -0.884046   -0.736876
  H     1.773938    2.192895   -0.596582
  H     4.113559    1.952042    0.104497
  H     3.924247    0.127012    0.094850
  H     0.203530    0.556405    2.541792
  H     1.250046   -0.933295    2.306753
  H     3.280932    0.488121    2.432797
  Br    2.216710    2.748395    2.716564

----------------------------
CARTESIAN COORDINATES (A.U.)
----------------------------
  NO LB    ZA    FRAG    MASS        X           Y           Z
   0 C   6.0000    0    12.011    0.143496    0.322743   -0.072906
   1 C   6.0000    0    12.011    2.499097    0.144730   -0.921669
   2 C   6.0000    0    12.011    4.192960    2.299139   -0.864657
   3 C   6.0000    0    12.011    6.588859    2.073457   -0.153705
   4 C   6.0000    0    12.011    4.303316    1.640071    4.750029
   5 C   6.0000    0    12.011    2.242993    0.246615    4.635572
   6 H   1.0000    0     1.008   -1.050368   -1.300047    0.202135
   7 H   1.0000    0     1.008   -0.639083    2.130778    0.443626
   8 H   1.0000    0     1.008    3.315952   -1.670605   -1.392494
   9 H   1.0000    0     1.008    3.352257    4.143971   -1.127377
  10 H   1.0000    0     1.008    7.773500    3.688825    0.197471
  11 H   1.0000    0     1.008    7.415752    0.240018    0.179241
  12 H   1.0000    0     1.008    0.384616    1.051453    4.803291
  13 H   1.0000    0     1.008    2.362245   -1.763672    4.359131
  14 H   1.0000    0     1.008    6.200063    0.922415    4.597320
  15 Br 35.0000    0    79.900    4.188975    5.193714    5.133562

      -----------------------------------------------------------      
     |                   =====================                   |     
     |                           x T B                           |     
     |                   =====================                   |     
     |                         S. Grimme                         |     
     |          Mulliken Center for Theoretical Chemistry        |     
     |                    University of Bonn                     |     
      -----------------------------------------------------------      

   * xtb version 6.7.1 (edcfbbe) compiled by 'albert@albert-system' on 2024-07-22

   xtb is free software: you can redistribute it and/or modify it under
   the terms of the GNU Lesser General Public License as published by
   the Free Software Foundation, either version 3 of the License, or
   (at your option) any later version.
   
   xtb is distributed in the hope that it will be useful,
   but WITHOUT ANY WARRANTY; without even the implied warranty of
   MERCHANTABILITY or FITNESS FOR A PARTICULAR PURPOSE.  See the
   GNU Lesser General Public License for more details.
   
   Cite this work as:
   * C. Bannwarth, E. Caldeweyher, S. Ehlert, A. Hansen, P. Pracht,
     J. Seibert, S. Spicher, S. Grimme, WIREs Comput. Mol. Sci., 2020, 11,
     e01493. DOI: 10.1002/wcms.1493
   
   for GFN2-xTB:
   * C. Bannwarth, S. Ehlert and S. Grimme., J. Chem. Theory Comput., 2019,
     15, 1652-1671. DOI: 10.1021/acs.jctc.8b01176
   for GFN1-xTB:
   * S. Grimme, C. Bannwarth, P. Shushkov, J. Chem. Theory Comput., 2017,
     13, 1989-2009. DOI: 10.1021/acs.jctc.7b00118
   for GFN0-xTB:
   * P. Pracht, E. Caldeweyher, S. Ehlert, S. Grimme, ChemRxiv, 2019, preprint.
     DOI: 10.26434/chemrxiv.8326202.v1
   for GFN-FF:
   * S. Spicher and S. Grimme, Angew. Chem. Int. Ed., 2020, 59, 15665-15673.
     DOI: 10.1002/anie.202004239
   
   for ALPB and GBSA implicit solvation:
   * S. Ehlert, M. Stahn, S. Spicher, S. Grimme, J. Chem. Theory Comput.,
     2021, 17, 4250-4261. DOI: 10.1021/acs.jctc.1c00471
   
   for ddCOSMO and CPCM-X implicit solvation:
   * M. Stahn, S. Ehlert, S. Grimme, J. Phys. Chem. A,
     2023, XX, XXXX-XXXX. DOI: 10.1021/acs.jpca.3c04382
   
   for DFT-D4:
   * E. Caldeweyher, C. Bannwarth and S. Grimme, J. Chem. Phys., 2017,
     147, 034112. DOI: 10.1063/1.4993215
   * E. Caldeweyher, S. Ehlert, A. Hansen, H. Neugebauer, S. Spicher,
     C. Bannwarth and S. Grimme, J. Chem. Phys., 2019, 150, 154122.
     DOI: 10.1063/1.5090222
   * E. Caldeweyher, J.-M. Mewes, S. Ehlert and S. Grimme, Phys. Chem. Chem. Phys.
     2020, 22, 8499-8512. DOI: 10.1039/D0CP00502A
   
   for sTDA-xTB:
   * S. Grimme and C. Bannwarth, J. Chem. Phys., 2016, 145, 054103.
     DOI: 10.1063/1.4959605
   
   in the mass-spec context:
   * V. Asgeirsson, C. Bauer and S. Grimme, Chem. Sci., 2017, 8, 4879.
     DOI: 10.1039/c7sc00601b
   * J. Koopman and S. Grimme, ACS Omega 2019, 4, 12, 15120-15133.
     DOI: 10.1021/acsomega.9b02011
   
   for metadynamics refer to:
   * S. Grimme, J. Chem. Theory Comput., 2019, 155, 2847-2862
     DOI: 10.1021/acs.jctc.9b00143
   
   for SPH calculations refer to:
   * S. Spicher and S. Grimme, J. Chem. Theory Comput., 2021, 17, 1701-1714
     DOI: 10.1021/acs.jctc.0c01306
   
   for ONIOM refer to:
   * C. Plett, A. Katbashev, S. Ehlert, S. Grimme, M. Bursch,
     Phys. Chem. Chem. Phys., 2023, 25, 17860-17868. DOI: 10.1039/D3CP02178E
   
   for DIPRO refer to:
   * J. Kohn, N. Gildemeister, S. Grimme, D. Fazzi, A. Hansen,
     J. Chem. Phys., 2023, just accepted.
   
   for PTB refer to:
   * S. Grimme, M. Mueller, A. Hansen, J. Chem. Phys., 2023, 158, 124111.
     DOI: 10.1063/5.0137838
   
   with help from (in alphabetical order)
   P. Atkinson, C. Bannwarth, F. Bohle, G. Brandenburg, E. Caldeweyher
   M. Checinski, S. Dohm, S. Ehlert, S. Ehrlich, I. Gerasimov, C. Hölzer
   A. Katbashev, J. Kohn, J. Koopman, C. Lavigne, S. Lehtola, F. März, M. Müller,
   F. Musil, H. Neugebauer, J. Pisarek, C. Plett, P. Pracht, F. Pultar,
   J. Seibert, P. Shushkov, S. Spicher, M. Stahn, M. Steiner, T. Strunk,
   J. Stückrath, T. Rose, and J. Unsleber
   
 * started run on 2026/03/15 at 22:00:13.572     
   ID    Z sym.   atoms
    1    6 C      1-6
    2    1 H      7-15
    3   35 Br     16

           -------------------------------------------------
          |                Calculation Setup                |
           -------------------------------------------------

          program call               : /software/orca-6.1.0-el8-x86_64/bin/otool_xtb reactant_optfreq_XTB.xyz --grad -c 0 -u 0 -P 8 --namespace reactant_optfreq --input reactant_optfreq_XTB.input.tmp --acc 0.200000
          hostname                   : midway3-login3.rcc.local
          calculation namespace      : reactant_optfreq
          coordinate file            : reactant_optfreq_XTB.xyz
          omp threads                :                     8


molecular fragmentation (1/2 indicates fragments):
1111221111112222
# atoms in fragment 1/2:    10     6
 fragment masses (1/2) :       54.09      106.95
CMA distance (Bohr)    :   6.233
constraining FC (au)   :  0.0500

           -------------------------------------------------
          |                 G F N 2 - x T B                 |
           -------------------------------------------------

        Reference                      10.1021/acs.jctc.8b01176
      * Hamiltonian:
        H0-scaling (s, p, d)           1.850000    2.230000    2.230000
        zeta-weighting                 0.500000
      * Dispersion:
        s8                             2.700000
        a1                             0.520000
        a2                             5.000000
        s9                             5.000000
      * Repulsion:
        kExp                           1.500000    1.000000
        rExp                           1.000000
      * Coulomb:
        alpha                          2.000000
        third order                    shell-resolved
        anisotropic                    true
        a3                             3.000000
        a5                             4.000000
        cn-shift                       1.200000
        cn-exp                         4.000000
        max-rad                        5.000000


          ...................................................
          :                      SETUP                      :
          :.................................................:
          :  # basis functions                  43          :
          :  # atomic orbitals                  42          :
          :  # shells                           24          :
          :  # electrons                        40          :
          :  max. iterations                   250          :
          :  Hamiltonian                  GFN2-xTB          :
          :  restarted?                      false          :
          :  GBSA solvation                  false          :
          :  PC potential                    false          :
          :  electronic temp.          300.0000000     K    :
          :  accuracy                    0.2000000          :
          :  -> integral cutoff          0.3198970E+02      :
          :  -> integral neglect         0.2000000E-08      :
          :  -> SCF convergence          0.2000000E-06 Eh   :
          :  -> wf. convergence          0.2000000E-04 e    :
          :  Broyden damping             0.4000000          :
          :  net charge                          0          :
          :  unpaired electrons                  0          :
          ...................................................

 iter      E             dE          RMSdq      gap      omega  full diag
   1    -21.7069863 -0.217070E+02  0.556E+00    3.95       0.0  T
   2    -21.7402301 -0.332438E-01  0.365E+00    3.83       1.0  T
   3    -21.7161920  0.240381E-01  0.185E+00    3.84       1.0  T
   4    -21.7480524 -0.318604E-01  0.725E-01    3.89       1.0  T
   5    -21.7496593 -0.160686E-02  0.434E-01    3.90       1.0  T
   6    -21.7497876 -0.128354E-03  0.288E-01    3.90       1.0  T
   7    -21.7501625 -0.374828E-03  0.204E-01    3.90       1.0  T
   8    -21.7502949 -0.132406E-03  0.964E-02    3.90       1.0  T
   9    -21.7503166 -0.216945E-04  0.206E-02    3.91       1.2  T
  10    -21.7503166 -0.812975E-07  0.125E-02    3.91       2.0  T
  11    -21.7503177 -0.110792E-05  0.379E-03    3.91       6.6  T
  12    -21.7503178 -0.565446E-07  0.153E-03    3.91      16.3  T
  13    -21.7503178 -0.317953E-08  0.852E-04    3.91      29.3  T
  14    -21.7503178 -0.960728E-09  0.539E-04    3.91      46.4  T
  15    -21.7503178 -0.570790E-09  0.781E-05    3.91     320.3  T
  16    -21.7503178 -0.129781E-10  0.314E-05    3.91     795.5  T

   *** convergence criteria satisfied after 16 iterations ***

         #    Occupation            Energy/Eh            Energy/eV
      -------------------------------------------------------------
         1        2.0000           -0.8357253             -22.7412
       ...           ...                  ...                  ...
        14        2.0000           -0.4627544             -12.5922
        15        2.0000           -0.4601921             -12.5225
        16        2.0000           -0.4416096             -12.0168
        17        2.0000           -0.4299305             -11.6990
        18        2.0000           -0.4093694             -11.1395
        19        2.0000           -0.4052928             -11.0286
        20        2.0000           -0.3932626             -10.7012 (HOMO)
        21                         -0.2494831              -6.7888 (LUMO)
        22                         -0.2352308              -6.4010
        23                         -0.1995672              -5.4305
        24                         -0.1695405              -4.6134
        25                          0.0393394               1.0705
       ...                                ...                  ...
        42                          0.6472020              17.6113
      -------------------------------------------------------------
                  HL-Gap            0.1437795 Eh            3.9124 eV
             Fermi-level           -0.3213729 Eh           -8.7450 eV

 SCC (total)                   0 d,  0 h,  0 min,  0.015 sec
 SCC setup                      ...        0 min,  0.000 sec (  1.268%)
 Dispersion                     ...        0 min,  0.000 sec (  0.560%)
 classical contributions        ...        0 min,  0.000 sec (  0.207%)
 integral evaluation            ...        0 min,  0.008 sec ( 52.741%)
 iterations                     ...        0 min,  0.005 sec ( 34.110%)
 molecular gradient             ...        0 min,  0.002 sec ( 10.200%)
 printout                       ...        0 min,  0.000 sec (  0.813%)

         :::::::::::::::::::::::::::::::::::::::::::::::::::::
         ::                     SUMMARY                     ::
         :::::::::::::::::::::::::::::::::::::::::::::::::::::
         :: total energy             -21.401425373017 Eh    ::
         :: gradient norm              0.007466020091 Eh/a0 ::
         :: HOMO-LUMO gap              3.912438590800 eV    ::
         ::.................................................::
         :: SCC energy               -21.750261203759 Eh    ::
         :: -> isotropic ES            0.005987019838 Eh    ::
         :: -> anisotropic ES          0.002728095777 Eh    ::
         :: -> anisotropic XC          0.014875064438 Eh    ::
         :: -> dispersion             -0.013414018012 Eh    ::
         :: repulsion energy           0.348835830741 Eh    ::
         :: add. restraining           0.000000000000 Eh    ::
         :: total charge               0.000000000000 e     ::
         :::::::::::::::::::::::::::::::::::::::::::::::::::::


Property printout bound to 'properties.out'

           -------------------------------------------------
          | TOTAL ENERGY              -21.401425373017 Eh   |
          | GRADIENT NORM               0.007466020091 Eh/α |
          | HOMO-LUMO GAP               3.912438590800 eV   |
           -------------------------------------------------

------------------------------------------------------------------------
 * finished run on 2026/03/15 at 22:00:13.599     
------------------------------------------------------------------------
 total:
 * wall-time:     0 d,  0 h,  0 min,  0.027 sec
 *  cpu-time:     0 d,  0 h,  0 min,  0.188 sec
 * ratio c/w:     6.957 speedup
 SCF:
 * wall-time:     0 d,  0 h,  0 min,  0.015 sec
 *  cpu-time:     0 d,  0 h,  0 min,  0.114 sec
 * ratio c/w:     7.558 speedup


-------------------------   --------------------
FINAL SINGLE POINT ENERGY       -21.401425373020
-------------------------   --------------------


-------------
DIPOLE MOMENT
-------------
                                X             Y             Z
Total Dipole Moment    :     -0.07300      -1.30900      -0.27900
                        -----------------------------------------
Magnitude (a.u.)       :      1.34039
Magnitude (Debye)      :      3.40701


------------------
CARTESIAN GRADIENT
------------------

   1   C   :    0.000808138   -0.000085941    0.001577314
   2   C   :   -0.000125626   -0.000058697   -0.000331772
   3   C   :    0.000045172    0.000192517   -0.000380257
   4   C   :   -0.000737957   -0.000022293    0.001347410
   5   C   :    0.000054033   -0.000158414   -0.001708126
   6   C   :   -0.000067620    0.000222893   -0.001936889
   7   H   :    0.001198030   -0.000007247    0.003365387
   8   H   :    0.001244560    0.000042480    0.001538499
   9   H   :    0.000144513   -0.000192309   -0.000509387
  10   H   :   -0.000181894   -0.000026215   -0.000409765
  11   H   :   -0.001034984   -0.000157025    0.002993098
  12   H   :   -0.000966339   -0.000155531    0.001393835
  13   H   :   -0.000025823    0.000431576   -0.001615159
  14   H   :   -0.000410945    0.000208551   -0.002302695
  15   H   :   -0.000128231   -0.000198705   -0.001666082
  16   Br  :    0.000184973   -0.000035639   -0.001355411

Difference to translation invariance:
           :   -0.0000000000    0.0000000000   -0.0000000000

Difference to rotation invariance:
           :   -0.0000000520   -0.0000000276    0.0000000536

Norm of the Cartesian gradient     ...    0.0074660201
RMS gradient                       ...    0.0010776272
MAX gradient                       ...    0.0033653869
------------------------------------------------------------------------------
                         ORCA GEOMETRY RELAXATION STEP
------------------------------------------------------------------------------

Reading the OPT-File                    .... done
Getting information on internals        .... done
Copying old internal coords+grads       .... done
Making the new internal coordinates     .... (2022 redundants) done
Validating the new internal coordinates .... (2022 redundants) done
Calculating the B-matrix                .... done
Calculating the G,G- and P matrices     .... done
Transforming gradient to internals      .... done
Projecting the internal gradient        .... done
Number of atoms                         ....  16
Number of internal coordinates          .... 150
Current Energy                          ....   -21.401425373 Eh
Current gradient norm                   ....     0.007466020 Eh/bohr
Maximum allowed component of the step   ....  0.300
Current trust radius                    ....  0.300
Evaluating the initial hessian          ....  (Almloef) done
Projecting the Hessian                  .... done
Forming the augmented Hessian           .... done
Diagonalizing the augmented Hessian     .... done
Last element of RFO vector              ....  0.964772471
Lowest eigenvalues of augmented Hessian:
 -0.001090580  0.011181159  0.014339285  0.017577104  0.024606233
Length of the computed step             ....  0.272691950
The final length of the internal step   ....  0.272691950
Converting the step to Cartesian space:
 Initial RMS(Int)=    0.0222652044
Transforming coordinates:
 Iter   0:  RMS(Cart)=    0.0227823422 RMS(Int)=    0.5131467675
done
Storing new coordinates                 .... done

                                .--------------------.
          ----------------------|Geometry convergence|-------------------------
          Item                value                   Tolerance       Converged
          ---------------------------------------------------------------------
          RMS gradient        0.0004723913            0.0001000000      NO
          MAX gradient        0.0022240766            0.0003000000      NO
          RMS step            0.0222652044            0.0020000000      NO
          MAX step            0.0856529419            0.0040000000      NO
          -------------------------------------------------------------------------
          ........................................................
          Max(Bonds)      0.0453      Max(Angles)    0.79
          Max(Dihed)        1.37      Max(Improp)    0.00
          ---------------------------------------------------------------------

The optimization has not yet converged - more geometry cycles are needed


    ---------------------------------------------------------------------------
                         Redundant Internal Coordinates
                            (Angstroem and degrees)

        Definition                    Value    dE/dq     Step     New-Value
    ----------------------------------------------------------------------------
     1. B(C   1,C   0)                1.3283 -0.000225  0.0002    1.3285   
     2. B(C   2,C   1)                1.4506 -0.000167  0.0004    1.4510   
     3. B(C   3,C   2)                1.3279 -0.000277  0.0003    1.3281   
     4. B(C   4,C   2)                2.9921 -0.000319  0.0256    3.0177   
     5. B(C   4,C   3)                2.8721 -0.001382  0.0402    2.9123   
     6. B(C   5,C   1)                2.9444  0.000069  0.0210    2.9654   
     7. B(C   5,C   0)                2.7284 -0.000614  0.0313    2.7597   
     8. B(C   5,C   4)                1.3176 -0.002224  0.0013    1.3190   
     9. B(H   6,C   5)                3.0350 -0.000968  0.0361    3.0711   
    10. B(H   6,C   0)                1.0760  0.000759 -0.0008    1.0752   
    11. B(H   7,C   5)                2.8707 -0.000942  0.0342    2.9049   
    12. B(H   7,C   0)                1.0778  0.000299 -0.0003    1.0775   
    13. B(H   8,C   1)                1.0825  0.000319 -0.0006    1.0818   
    14. B(H   9,C   2)                1.0818  0.000104 -0.0001    1.0817   
    15. B(H  10,C   3)                1.0762  0.000490 -0.0003    1.0759   
    16. B(H  11,C   4)                3.0186 -0.001298  0.0403    3.0589   
    17. B(H  11,C   3)                1.0788  0.000440 -0.0004    1.0784   
    18. B(H  12,H   7)                2.4376 -0.000960  0.0376    2.4752   
    19. B(H  12,C   5)                1.0753 -0.000097  0.0001    1.0754   
    20. B(H  12,H   6)                2.8379 -0.000860  0.0351    2.8730   
    21. B(H  12,C   0)                2.6121 -0.000541  0.0307    2.6429   
    22. B(H  13,H   8)                3.0856  0.000096  0.0159    3.1015   
    23. B(H  13,C   1)                2.9722 -0.000112  0.0196    2.9918   
    24. B(H  13,C   5)                1.0757  0.000309 -0.0004    1.0752   
    25. B(H  13,H   6)                2.8567 -0.001164  0.0377    2.8944   
    26. B(H  13,C   0)                2.8457 -0.000576  0.0292    2.8750   
    27. B(H  14,C   4)                1.0762 -0.000503  0.0004    1.0766   
    28. B(H  14,H  10)                2.8736 -0.001616  0.0453    2.9189   
    29. B(H  14,C   3)                2.5950 -0.000590  0.0360    2.6310   
    30. B(H  14,C   2)                3.1643  0.000087  0.0194    3.1837   
    31. B(H  14,H  11)                2.4516 -0.000728  0.0414    2.4930   
    32. B(Br 15,C   4)                1.8924 -0.000187  0.0003    1.8927   
    33. A(C   1,C   0,H   6)          122.69  0.000073   -0.10    122.60   
    34. A(C   5,C   0,H   7)           86.44 -0.000242    0.30     86.74   
    35. A(C   1,C   0,C   5)           85.73  0.000303   -0.33     85.41   
    36. A(C   5,C   0,H   6)           95.96 -0.000403    0.43     96.38   
    37. A(H   6,C   0,H   7)          116.65  0.000153   -0.06    116.60   
    38. A(C   1,C   0,H   7)          120.62 -0.000238    0.17    120.78   
    39. A(C   0,C   1,C   5)           67.53 -0.000263    0.54     68.07   
    40. A(C   0,C   1,H   8)          121.03  0.000152   -0.10    120.93   
    41. A(C   2,C   1,H   8)          117.10  0.000281   -0.07    117.03   
    42. A(C   0,C   1,C   2)          121.14 -0.000494    0.25    121.39   
    43. A(C   2,C   1,C   5)           89.61 -0.000324    0.17     89.79   
    44. A(C   5,C   1,H   8)          105.34  0.000118   -0.26    105.08   
    45. A(C   3,C   2,C   4)           71.91 -0.000425    0.75     72.66   
    46. A(C   4,C   2,H   9)          103.94  0.000016   -0.12    103.81   
    47. A(C   3,C   2,H   9)          120.68  0.000070   -0.04    120.64   
    48. A(C   1,C   2,H   9)          116.90  0.000206    0.01    116.91   
    49. A(C   1,C   2,C   3)          121.68 -0.000346    0.12    121.81   
    50. A(C   1,C   2,C   4)           86.62 -0.000060   -0.10     86.52   
    51. A(C   4,C   3,H  11)           87.22 -0.000075    0.16     87.38   
    52. A(C   4,C   3,H  10)           98.78 -0.000898    0.79     99.58   
    53. A(C   2,C   3,C   4)           82.02  0.000422   -0.48     81.53   
    54. A(H  10,C   3,H  11)          116.74  0.000285   -0.07    116.67   
    55. A(C   2,C   3,H  11)          120.96 -0.000106    0.09    121.05   
    56. A(C   2,C   3,H  10)          122.25 -0.000203   -0.00    122.25   
    57. A(C   3,C   4,Br 15)           91.78 -0.000853    0.50     92.28   
    58. A(C   3,C   4,H  14)           64.38  0.000325   -0.07     64.31   
    59. A(C   3,C   4,C   5)          110.59  0.000173   -0.31    110.27   
    60. A(C   2,C   4,C   3)           26.07  0.000003   -0.27     25.80   
    61. A(C   2,C   4,H  14)           89.13  0.000287   -0.27     88.86   
    62. A(C   2,C   4,C   5)           90.20  0.000168   -0.05     90.15   
    63. A(H  14,C   4,Br 15)          112.86  0.000086   -0.08    112.78   
    64. A(C   5,C   4,Br 15)          122.32  0.000166   -0.05    122.27   
    65. A(C   5,C   4,H  14)          124.81 -0.000260    0.13    124.94   
    66. A(C   2,C   4,Br 15)           89.43 -0.000853    0.45     89.88   
    67. A(H  12,C   5,H  13)          117.17  0.000316   -0.12    117.04   
    68. A(C   4,C   5,H  13)          120.74 -0.000050    0.00    120.74   
    69. A(C   4,C   5,H  12)          122.09 -0.000266    0.12    122.21   
    70. A(C   0,C   5,H  13)           85.08 -0.000051    0.02     85.10   
    71. A(C   0,C   5,H  12)           72.37  0.000016    0.10     72.47   
    72. A(C   0,C   5,C   4)          111.76  0.000105   -0.15    111.60   
    73. A(C   0,C   5,C   1)           26.74 -0.000040   -0.21     26.52   
    74. A(C   1,C   5,H  13)           80.99 -0.000121    0.00     80.99   
    75. A(C   1,C   5,H  12)           97.57 -0.000049   -0.06     97.51   
    76. A(C   1,C   5,C   4)           91.04  0.000165    0.04     91.08   
    77. D(C   5,C   1,C   0,H   6)    -94.35  0.000288   -0.30    -94.65   
    78. D(H   8,C   1,C   0,H   6)      0.54  0.000227   -0.27      0.27   
    79. D(C   2,C   1,C   0,H   7)      8.29  0.000261   -0.35      7.94   
    80. D(H   8,C   1,C   0,C   5)     94.89 -0.000061    0.03     94.92   
    81. D(C   2,C   1,C   0,H   6)   -169.37  0.000615   -0.78   -170.15   
    82. D(H   8,C   1,C   0,H   7)    178.20 -0.000126    0.15    178.35   
    83. D(C   2,C   1,C   0,C   5)    -75.03  0.000327   -0.48    -75.50   
    84. D(C   5,C   1,C   0,H   7)     83.31 -0.000065    0.12     83.44   
    85. D(C   3,C   2,C   1,C   5)     74.05 -0.000459    0.68     74.73   
    86. D(H   9,C   2,C   1,C   5)    -96.18 -0.000014    0.07    -96.11   
    87. D(H   9,C   2,C   1,C   0)    -32.96 -0.000398    0.76    -32.20   
    88. D(H   9,C   2,C   1,H   8)    156.74 -0.000017    0.28    157.02   
    89. D(C   3,C   2,C   1,C   0)    137.27 -0.000843    1.37    138.64   
    90. D(C   4,C   2,C   1,C   0)     70.96 -0.000397    0.57     71.53   
    91. D(C   3,C   2,C   1,H   8)    -33.03 -0.000461    0.89    -32.14   
    92. D(C   4,C   2,C   1,H   8)    -99.33 -0.000015    0.09    -99.25   
    93. D(C   4,C   3,C   2,H   9)     95.79 -0.000239    0.28     96.07   
    94. D(C   4,C   3,C   2,C   1)    -74.07  0.000212   -0.36    -74.43   
    95. D(H  11,C   3,C   2,C   4)     81.88  0.000200   -0.13     81.75   
    96. D(H  10,C   3,C   2,C   4)    -95.38  0.000785   -0.64    -96.03   
    97. D(H  10,C   3,C   2,H   9)      0.40  0.000547   -0.36      0.05   
    98. D(H  10,C   3,C   2,C   1)   -169.46  0.000997   -1.00   -170.46   
    99. D(H  11,C   3,C   2,H   9)    177.66 -0.000039    0.16    177.82   
   100. D(H  11,C   3,C   2,C   1)      7.80  0.000412   -0.49      7.31   
   101. D(H  14,C   4,C   2,C   1)    107.28 -0.000521    0.31    107.59   
   102. D(C   5,C   4,C   2,H   9)     99.37 -0.000057    0.15     99.52   
   103. D(C   5,C   4,C   2,C   3)   -142.47 -0.000032    0.22   -142.25   
   104. D(C   5,C   4,C   2,C   1)    -17.53 -0.000256    0.18    -17.35   
   105. D(Br 15,C   4,C   2,C   1)   -139.84 -0.000422    0.22   -139.62   
   106. D(Br 15,C   4,C   3,H  11)    153.14  0.000349   -0.08    153.07   
   107. D(Br 15,C   4,C   3,H  10)     36.51  0.000092   -0.05     36.46   
   108. D(Br 15,C   4,C   3,C   2)    -85.06  0.000195    0.05    -85.01   
   109. D(H  14,C   4,C   2,H   9)   -135.82 -0.000322    0.28   -135.54   
   110. D(H  14,C   4,C   3,H  10)    -78.08 -0.000382    0.29    -77.80   
   111. D(C   5,C   4,C   3,H  11)    -81.20  0.000173    0.02    -81.18   
   112. D(C   5,C   4,C   3,H  10)    162.17 -0.000084    0.05    162.22   
   113. D(C   5,C   4,C   3,C   2)     40.60  0.000019    0.15     40.75   
   114. D(H  14,C   4,C   3,H  11)     38.55 -0.000125    0.26     38.81   
   115. D(H  14,C   4,C   3,C   2)    160.34 -0.000280    0.39    160.73   
   116. D(Br 15,C   4,C   2,H   9)    -22.95 -0.000224    0.20    -22.75   
   117. D(Br 15,C   4,C   2,C   3)     95.22 -0.000199    0.27     95.49   
   118. D(H  14,C   4,C   2,C   3)    -17.66 -0.000297    0.36    -17.30   
   119. D(H  13,C   5,C   1,H   8)    -20.71  0.000042    0.10    -20.60   
   120. D(H  13,C   5,C   1,C   2)   -138.77 -0.000168    0.16   -138.61   
   121. D(H  13,C   5,C   1,C   0)     97.00  0.000145    0.13     97.13   
   122. D(H  12,C   5,C   1,C   2)    104.79 -0.000486    0.28    105.07   
   123. D(H  12,C   5,C   1,C   0)    -19.43 -0.000173    0.25    -19.19   
   124. D(C   4,C   5,C   1,H   8)    100.28 -0.000028    0.10    100.37   
   125. D(C   4,C   5,C   1,C   0)   -142.01  0.000075    0.12   -141.89   
   126. D(C   1,C   5,C   0,H   7)   -121.09  0.000246   -0.17   -121.25   
   127. D(C   1,C   5,C   0,H   6)    122.47  0.000106   -0.13    122.33   
   128. D(H  13,C   5,C   0,H   7)    159.21  0.000426   -0.08    159.13   
   129. D(H  13,C   5,C   0,H   6)     42.76  0.000285   -0.04     42.72   
   130. D(C   4,C   5,C   1,C   2)    -17.79 -0.000239    0.15    -17.64   
   131. D(H  13,C   5,C   0,C   1)    -79.71  0.000179    0.09    -79.61   
   132. D(H  12,C   5,C   0,H   7)     38.67  0.000065    0.10     38.76   
   133. D(H  12,C   5,C   0,H   6)    -77.78 -0.000075    0.14    -77.65   
   134. D(H  12,C   5,C   1,H   8)   -137.15 -0.000276    0.22   -136.92   
   135. D(H  12,C   5,C   0,C   1)    159.75 -0.000181    0.27    160.02   
   136. D(C   4,C   5,C   0,H   7)    -79.59  0.000365   -0.09    -79.68   
   137. D(C   4,C   5,C   0,H   6)    163.96  0.000225   -0.05    163.91   
   138. D(C   0,C   5,C   1,C   2)    124.22 -0.000313    0.03    124.26   
   139. D(C   4,C   5,C   0,C   1)     41.50  0.000119    0.08     41.58   
   140. D(C   0,C   5,C   4,C   3)    -25.45  0.000084    0.07    -25.37   
   141. D(C   0,C   5,C   4,Br 15)     80.62 -0.000811    0.47     81.09   
   142. D(C   0,C   5,C   4,H  14)    -97.90 -0.000376    0.32    -97.58   
   143. D(H  13,C   5,C   4,C   2)     88.64  0.000073   -0.11     88.53   
   144. D(H  13,C   5,C   4,C   3)     72.02  0.000065   -0.00     72.02   
   145. D(H  13,C   5,C   4,Br 15)    178.09 -0.000830    0.39    178.48   
   146. D(H  13,C   5,C   4,H  14)     -0.43 -0.000395    0.25     -0.18   
   147. D(H  12,C   5,C   4,C   2)    -91.09  0.000096   -0.11    -91.20   
   148. D(H  12,C   5,C   4,C   3)   -107.71  0.000088   -0.00   -107.71   
   149. D(H  12,C   5,C   4,Br 15)     -1.64 -0.000807    0.39     -1.25   
   150. D(H  12,C   5,C   4,H  14)    179.84 -0.000372    0.25    180.09   
    ----------------------------------------------------------------------------

Geometry step timings:
Preparation and reading OPT file:      0.000 s ( 0.654 %)
Internal coordinates            :      0.000 s ( 1.047 %)
B/P matrices and projection     :      0.001 s (22.318 %)
Hessian update/contruction      :      0.001 s (20.897 %)
Making the step                 :      0.001 s (26.841 %)
Converting the step to Cartesian:      0.000 s ( 2.654 %)
Storing new data                :      0.000 s ( 1.850 %)
Checking convergence            :      0.000 s ( 1.271 %)
Final printing                  :      0.001 s (22.411 %)
Total time                      :      0.005 s

Time for energy+gradient        :      0.037 s
Time for complete geometry iter :      0.044 s

         *************************************************************
         *                GEOMETRY OPTIMIZATION CYCLE   2            *
         *************************************************************
---------------------------------
CARTESIAN COORDINATES (ANGSTROEM)
---------------------------------
  C     0.071831    0.171604   -0.051501
  C     1.322889    0.076981   -0.488440
  C     2.220935    1.216348   -0.461370
  C     3.493249    1.096300   -0.099791
  C     2.275254    0.869288    2.535797
  C     1.185172    0.129386    2.473308
  H    -0.561372   -0.686974    0.082725
  H    -0.347862    1.127095    0.216540
  H     1.755269   -0.884037   -0.733142
  H     1.777065    2.192908   -0.600251
  H     4.125464    1.950514    0.068190
  H     3.932882    0.127146    0.074393
  H     0.199956    0.551538    2.560766
  H     1.250173   -0.933781    2.326541
  H     3.280849    0.493859    2.452480
  Br    2.209966    2.748604    2.750719

----------------------------
CARTESIAN COORDINATES (A.U.)
----------------------------
  NO LB    ZA    FRAG    MASS        X           Y           Z
   0 C   6.0000    0    12.011    0.135741    0.324285   -0.097322
   1 C   6.0000    0    12.011    2.499899    0.145474   -0.923018
   2 C   6.0000    0    12.011    4.196959    2.298565   -0.871863
   3 C   6.0000    0    12.011    6.601283    2.071706   -0.188577
   4 C   6.0000    0    12.011    4.299606    1.642715    4.791962
   5 C   6.0000    0    12.011    2.239651    0.244504    4.673874
   6 H   1.0000    0     1.008   -1.060840   -1.298193    0.156328
   7 H   1.0000    0     1.008   -0.657364    2.129901    0.409201
   8 H   1.0000    0     1.008    3.316977   -1.670589   -1.385437
   9 H   1.0000    0     1.008    3.358165    4.143995   -1.134311
  10 H   1.0000    0     1.008    7.795997    3.685937    0.128860
  11 H   1.0000    0     1.008    7.432070    0.240271    0.140582
  12 H   1.0000    0     1.008    0.377863    1.042256    4.839147
  13 H   1.0000    0     1.008    2.362484   -1.764590    4.396525
  14 H   1.0000    0     1.008    6.199907    0.933259    4.634516
  15 Br 35.0000    0    79.900    4.176230    5.194108    5.198105

      -----------------------------------------------------------      
     |                   =====================                   |     
     |                           x T B                           |     
     |                   =====================                   |     
     |                         S. Grimme                         |     
     |          Mulliken Center for Theoretical Chemistry        |     
     |                    University of Bonn                     |     
      -----------------------------------------------------------      

   * xtb version 6.7.1 (edcfbbe) compiled by 'albert@albert-system' on 2024-07-22

   xtb is free software: you can redistribute it and/or modify it under
   the terms of the GNU Lesser General Public License as published by
   the Free Software Foundation, either version 3 of the License, or
   (at your option) any later version.
   
   xtb is distributed in the hope that it will be useful,
   but WITHOUT ANY WARRANTY; without even the implied warranty of
   MERCHANTABILITY or FITNESS FOR A PARTICULAR PURPOSE.  See the
   GNU Lesser General Public License for more details.
   
   Cite this work as:
   * C. Bannwarth, E. Caldeweyher, S. Ehlert, A. Hansen, P. Pracht,
     J. Seibert, S. Spicher, S. Grimme, WIREs Comput. Mol. Sci., 2020, 11,
     e01493. DOI: 10.1002/wcms.1493
   
   for GFN2-xTB:
   * C. Bannwarth, S. Ehlert and S. Grimme., J. Chem. Theory Comput., 2019,
     15, 1652-1671. DOI: 10.1021/acs.jctc.8b01176
   for GFN1-xTB:
   * S. Grimme, C. Bannwarth, P. Shushkov, J. Chem. Theory Comput., 2017,
     13, 1989-2009. DOI: 10.1021/acs.jctc.7b00118
   for GFN0-xTB:
   * P. Pracht, E. Caldeweyher, S. Ehlert, S. Grimme, ChemRxiv, 2019, preprint.
     DOI: 10.26434/chemrxiv.8326202.v1
   for GFN-FF:
   * S. Spicher and S. Grimme, Angew. Chem. Int. Ed., 2020, 59, 15665-15673.
     DOI: 10.1002/anie.202004239
   
   for ALPB and GBSA implicit solvation:
   * S. Ehlert, M. Stahn, S. Spicher, S. Grimme, J. Chem. Theory Comput.,
     2021, 17, 4250-4261. DOI: 10.1021/acs.jctc.1c00471
   
   for ddCOSMO and CPCM-X implicit solvation:
   * M. Stahn, S. Ehlert, S. Grimme, J. Phys. Chem. A,
     2023, XX, XXXX-XXXX. DOI: 10.1021/acs.jpca.3c04382
   
   for DFT-D4:
   * E. Caldeweyher, C. Bannwarth and S. Grimme, J. Chem. Phys., 2017,
     147, 034112. DOI: 10.1063/1.4993215
   * E. Caldeweyher, S. Ehlert, A. Hansen, H. Neugebauer, S. Spicher,
     C. Bannwarth and S. Grimme, J. Chem. Phys., 2019, 150, 154122.
     DOI: 10.1063/1.5090222
   * E. Caldeweyher, J.-M. Mewes, S. Ehlert and S. Grimme, Phys. Chem. Chem. Phys.
     2020, 22, 8499-8512. DOI: 10.1039/D0CP00502A
   
   for sTDA-xTB:
   * S. Grimme and C. Bannwarth, J. Chem. Phys., 2016, 145, 054103.
     DOI: 10.1063/1.4959605
   
   in the mass-spec context:
   * V. Asgeirsson, C. Bauer and S. Grimme, Chem. Sci., 2017, 8, 4879.
     DOI: 10.1039/c7sc00601b
   * J. Koopman and S. Grimme, ACS Omega 2019, 4, 12, 15120-15133.
     DOI: 10.1021/acsomega.9b02011
   
   for metadynamics refer to:
   * S. Grimme, J. Chem. Theory Comput., 2019, 155, 2847-2862
     DOI: 10.1021/acs.jctc.9b00143
   
   for SPH calculations refer to:
   * S. Spicher and S. Grimme, J. Chem. Theory Comput., 2021, 17, 1701-1714
     DOI: 10.1021/acs.jctc.0c01306
   
   for ONIOM refer to:
   * C. Plett, A. Katbashev, S. Ehlert, S. Grimme, M. Bursch,
     Phys. Chem. Chem. Phys., 2023, 25, 17860-17868. DOI: 10.1039/D3CP02178E
   
   for DIPRO refer to:
   * J. Kohn, N. Gildemeister, S. Grimme, D. Fazzi, A. Hansen,
     J. Chem. Phys., 2023, just accepted.
   
   for PTB refer to:
   * S. Grimme, M. Mueller, A. Hansen, J. Chem. Phys., 2023, 158, 124111.
     DOI: 10.1063/5.0137838
   
   with help from (in alphabetical order)
   P. Atkinson, C. Bannwarth, F. Bohle, G. Brandenburg, E. Caldeweyher
   M. Checinski, S. Dohm, S. Ehlert, S. Ehrlich, I. Gerasimov, C. Hölzer
   A. Katbashev, J. Kohn, J. Koopman, C. Lavigne, S. Lehtola, F. März, M. Müller,
   F. Musil, H. Neugebauer, J. Pisarek, C. Plett, P. Pracht, F. Pultar,
   J. Seibert, P. Shushkov, S. Spicher, M. Stahn, M. Steiner, T. Strunk,
   J. Stückrath, T. Rose, and J. Unsleber
   
 * started run on 2026/03/15 at 22:00:13.615     
   ID    Z sym.   atoms
    1    6 C      1-6
    2    1 H      7-15
    3   35 Br     16

           -------------------------------------------------
          |                Calculation Setup                |
           -------------------------------------------------

          program call               : /software/orca-6.1.0-el8-x86_64/bin/otool_xtb reactant_optfreq_XTB.xyz --grad -c 0 -u 0 -P 8 --namespace reactant_optfreq --input reactant_optfreq_XTB.input.tmp --acc 0.200000
          hostname                   : midway3-login3.rcc.local
          calculation namespace      : reactant_optfreq
          coordinate file            : reactant_optfreq_XTB.xyz
          omp threads                :                     8


molecular fragmentation (1/2 indicates fragments):
1111221111112222
# atoms in fragment 1/2:    10     6
 fragment masses (1/2) :       54.09      106.95
CMA distance (Bohr)    :   6.300
constraining FC (au)   :  0.0500

           -------------------------------------------------
          |                 G F N 2 - x T B                 |
           -------------------------------------------------

        Reference                      10.1021/acs.jctc.8b01176
      * Hamiltonian:
        H0-scaling (s, p, d)           1.850000    2.230000    2.230000
        zeta-weighting                 0.500000
      * Dispersion:
        s8                             2.700000
        a1                             0.520000
        a2                             5.000000
        s9                             5.000000
      * Repulsion:
        kExp                           1.500000    1.000000
        rExp                           1.000000
      * Coulomb:
        alpha                          2.000000
        third order                    shell-resolved
        anisotropic                    true
        a3                             3.000000
        a5                             4.000000
        cn-shift                       1.200000
        cn-exp                         4.000000
        max-rad                        5.000000

q/qsh data taken from xtbrestart
CAMM data taken from xtbrestart

          ...................................................
          :                      SETUP                      :
          :.................................................:
          :  # basis functions                  43          :
          :  # atomic orbitals                  42          :
          :  # shells                           24          :
          :  # electrons                        40          :
          :  max. iterations                   250          :
          :  Hamiltonian                  GFN2-xTB          :
          :  restarted?                       true          :
          :  GBSA solvation                  false          :
          :  PC potential                    false          :
          :  electronic temp.          300.0000000     K    :
          :  accuracy                    0.2000000          :
          :  -> integral cutoff          0.3198970E+02      :
          :  -> integral neglect         0.2000000E-08      :
          :  -> SCF convergence          0.2000000E-06 Eh   :
          :  -> wf. convergence          0.2000000E-04 e    :
          :  Broyden damping             0.4000000          :
          :  net charge                          0          :
          :  unpaired electrons                  0          :
          ...................................................

 iter      E             dE          RMSdq      gap      omega  full diag
   1    -21.7509977 -0.217510E+02  0.780E-02    3.90       0.0  T
   2    -21.7509985 -0.809567E-06  0.455E-02    3.91       1.0  T
   3    -21.7509965  0.200099E-05  0.148E-02    3.91       1.7  T
   4    -21.7509988 -0.233533E-05  0.431E-03    3.91       5.8  T
   5    -21.7509988 -0.258363E-07  0.291E-03    3.91       8.6  T
   6    -21.7509988 -0.169640E-07  0.222E-03    3.91      11.3  T
   7    -21.7509989 -0.870832E-08  0.160E-03    3.91      15.6  T
   8    -21.7509989 -0.917626E-08  0.537E-04    3.91      46.6  T
   9    -21.7509989 -0.420748E-09  0.243E-04    3.91     102.7  T
  10    -21.7509989 -0.235442E-09  0.179E-04    3.91     139.8  T
  11    -21.7509989 -0.884413E-10  0.983E-05    3.91     254.2  T

   *** convergence criteria satisfied after 11 iterations ***

         #    Occupation            Energy/Eh            Energy/eV
      -------------------------------------------------------------
         1        2.0000           -0.8359056             -22.7461
       ...           ...                  ...                  ...
        14        2.0000           -0.4629097             -12.5964
        15        2.0000           -0.4600434             -12.5184
        16        2.0000           -0.4418111             -12.0223
        17        2.0000           -0.4302218             -11.7069
        18        2.0000           -0.4096253             -11.1465
        19        2.0000           -0.4051636             -11.0251
        20        2.0000           -0.3934784             -10.7071 (HOMO)
        21                         -0.2498673              -6.7992 (LUMO)
        22                         -0.2362563              -6.4289
        23                         -0.1998213              -5.4374
        24                         -0.1683096              -4.5799
        25                          0.0392637               1.0684
       ...                                ...                  ...
        42                          0.6477987              17.6275
      -------------------------------------------------------------
                  HL-Gap            0.1436111 Eh            3.9079 eV
             Fermi-level           -0.3216729 Eh           -8.7532 eV

 SCC (total)                   0 d,  0 h,  0 min,  0.012 sec
 SCC setup                      ...        0 min,  0.000 sec (  1.493%)
 Dispersion                     ...        0 min,  0.000 sec (  0.581%)
 classical contributions        ...        0 min,  0.000 sec (  0.246%)
 integral evaluation            ...        0 min,  0.007 sec ( 55.119%)
 iterations                     ...        0 min,  0.004 sec ( 30.767%)
 molecular gradient             ...        0 min,  0.001 sec ( 10.747%)
 printout                       ...        0 min,  0.000 sec (  0.912%)

         :::::::::::::::::::::::::::::::::::::::::::::::::::::
         ::                     SUMMARY                     ::
         :::::::::::::::::::::::::::::::::::::::::::::::::::::
         :: total energy             -21.402433776848 Eh    ::
         :: gradient norm              0.007282212079 Eh/a0 ::
         :: HOMO-LUMO gap              3.907855931754 eV    ::
         ::.................................................::
         :: SCC energy               -21.750940343674 Eh    ::
         :: -> isotropic ES            0.005982783044 Eh    ::
         :: -> anisotropic ES          0.002755792083 Eh    ::
         :: -> anisotropic XC          0.014939151436 Eh    ::
         :: -> dispersion             -0.013317898430 Eh    ::
         :: repulsion energy           0.348506566827 Eh    ::
         :: add. restraining           0.000000000000 Eh    ::
         :: total charge               0.000000000000 e     ::
         :::::::::::::::::::::::::::::::::::::::::::::::::::::


Property printout bound to 'properties.out'

           -------------------------------------------------
          | TOTAL ENERGY              -21.402433776848 Eh   |
          | GRADIENT NORM               0.007282212079 Eh/α |
          | HOMO-LUMO GAP               3.907855931754 eV   |
           -------------------------------------------------

------------------------------------------------------------------------
 * finished run on 2026/03/15 at 22:00:13.638     
------------------------------------------------------------------------
 total:
 * wall-time:     0 d,  0 h,  0 min,  0.022 sec
 *  cpu-time:     0 d,  0 h,  0 min,  0.157 sec
 * ratio c/w:     7.046 speedup
 SCF:
 * wall-time:     0 d,  0 h,  0 min,  0.012 sec
 *  cpu-time:     0 d,  0 h,  0 min,  0.093 sec
 * ratio c/w:     7.559 speedup


-------------------------   --------------------
FINAL SINGLE POINT ENERGY       -21.402433776850
-------------------------   --------------------


-------------
DIPOLE MOMENT
-------------
                                X             Y             Z
Total Dipole Moment    :     -0.06900      -1.30200      -0.27900
                        -----------------------------------------
Magnitude (a.u.)       :      1.33334
Magnitude (Debye)      :      3.38909


------------------
CARTESIAN GRADIENT
------------------

   1   C   :    0.000169167   -0.000239587    0.001954197
   2   C   :    0.000387017   -0.000678925   -0.000913666
   3   C   :   -0.000373514    0.000522346   -0.000701135
   4   C   :   -0.000213073   -0.000240688    0.001635114
   5   C   :    0.001584839    0.000541108   -0.001428456
   6   C   :   -0.001639671   -0.000826173   -0.001746257
   7   H   :    0.001359317    0.000449624    0.002947038
   8   H   :    0.001025465   -0.000184177    0.001270106
   9   H   :   -0.000072239    0.000146570   -0.000434697
  10   H   :   -0.000077268   -0.000063252   -0.000441390
  11   H   :   -0.000907501   -0.000349193    0.002500315
  12   H   :   -0.000875149    0.000135011    0.001155444
  13   H   :   -0.000150550    0.000178283   -0.001513856
  14   H   :   -0.000519478    0.000489867   -0.001896624
  15   H   :    0.000205514   -0.000067659   -0.001486609
  16   Br  :    0.000097123    0.000186845   -0.000899525

Difference to translation invariance:
           :   -0.0000000000   -0.0000000000    0.0000000000

Difference to rotation invariance:
           :   -0.0000006392    0.0000000107   -0.0000001287

Norm of the Cartesian gradient     ...    0.0072822121
RMS gradient                       ...    0.0010510968
MAX gradient                       ...    0.0029470382
------------------------------------------------------------------------------
                         ORCA GEOMETRY RELAXATION STEP
------------------------------------------------------------------------------

Reading the OPT-File                    .... done
Getting information on internals        .... done
Copying old internal coords+grads       .... done
Making the new internal coordinates     .... (2022 redundants) done
Validating the new internal coordinates .... (2022 redundants) done
Calculating the B-matrix                .... done
Calculating the G,G- and P matrices     .... done
Transforming gradient to internals      .... done
Projecting the internal gradient        .... done
Number of atoms                         ....  16
Number of internal coordinates          .... 150
Current Energy                          ....   -21.402433777 Eh
Current gradient norm                   ....     0.007282212 Eh/bohr
Maximum allowed component of the step   ....  0.300
Current trust radius                    ....  0.300
Updating the Hessian (BFGS)             .... done
Forming the augmented Hessian           .... done
Diagonalizing the augmented Hessian     .... done
Last element of RFO vector              ....  0.804245568
Lowest eigenvalues of augmented Hessian:
 -0.002611940  0.004374230  0.014319814  0.017597595  0.023287891
Length of the computed step             ....  0.738949821
Warning: the length of the step is outside the trust region - taking restricted step instead
The input lambda is                     ....     0.000927
   iter:   5  x=   -0.004867  g=  199.948256 f(x)=     0.394984
   iter:  10  x=   -0.009386  g=   15.561858 f(x)=     0.000007
The output lambda is                    ....    -0.009386 (12 iterations)
The final length of the internal step   ....  0.300000000
Converting the step to Cartesian space:
 Initial RMS(Int)=    0.0244948974
Transforming coordinates:
 Iter   0:  RMS(Cart)=    0.0266628284 RMS(Int)=    0.0245411886
done
Storing new coordinates                 .... done
The predicted energy change is          ....    -0.000980564
Previously predicted energy change      ....    -0.000585838
Actually observed energy change         ....    -0.001008404
Ratio of predicted to observed change   ....     1.721300224
New trust radius                        ....     0.200000000

                                .--------------------.
          ----------------------|Geometry convergence|-------------------------
          Item                value                   Tolerance       Converged
          ---------------------------------------------------------------------
          Energy change      -0.0010084038            0.0000050000      NO
          RMS gradient        0.0003554091            0.0001000000      NO
          MAX gradient        0.0015208685            0.0003000000      NO
          RMS step            0.0244948974            0.0020000000      NO
          MAX step            0.1026002513            0.0040000000      NO
          -------------------------------------------------------------------------
          ........................................................
          Max(Bonds)      0.0543      Max(Angles)    1.29
          Max(Dihed)        2.13      Max(Improp)    0.00
          ---------------------------------------------------------------------

The optimization has not yet converged - more geometry cycles are needed


    ---------------------------------------------------------------------------
                         Redundant Internal Coordinates
                            (Angstroem and degrees)

        Definition                    Value    dE/dq     Step     New-Value
    ----------------------------------------------------------------------------
     1. B(C   1,C   0)                1.3285  0.000269 -0.0005    1.3281   
     2. B(C   2,C   1)                1.4510  0.000228  0.0000    1.4510   
     3. B(C   3,C   2)                1.3281  0.000159 -0.0003    1.3278   
     4. B(C   4,C   2)                3.0177 -0.000088  0.0198    3.0375   
     5. B(C   4,C   3)                2.9123 -0.001177  0.0442    2.9564   
     6. B(C   5,C   1)                2.9654  0.000208  0.0142    2.9796   
     7. B(C   5,C   0)                2.7597 -0.000549  0.0323    2.7920   
[...]
     43      -0.889000  -0.005848  -0.002093   0.020617  -0.001583   0.003643
     44       0.019016  -0.000139   0.001343   0.003072  -0.000944  -0.000094
     45      -0.003031  -0.000027  -0.000005   0.000057  -0.000017   0.000009
     46       0.002341   0.000056   0.000005   0.000622   0.000012  -0.000039
     47       0.000189  -0.000016  -0.000003  -0.000005   0.000003  -0.000008
                 36         37         38         39         40         41    
      0       0.032196  -0.336504   0.313301   0.001457  -0.001891  -0.000701
      1      -0.001953   0.019515  -0.027193  -0.006947   0.007588  -0.000543
      2      -0.000831   0.010655  -0.010465  -0.000420   0.000458  -0.000008
      3      -0.030578   0.311555  -0.400634  -0.033488   0.014687   0.000026
      4      -0.000491  -0.004653  -0.038873   0.066003  -0.026316   0.000409
      5       0.000846  -0.009360   0.007997   0.004394  -0.001742   0.000010
      6      -0.028556   0.340352   0.375584   0.011453   0.034913  -0.000218
      7       0.001059  -0.000528   0.039316  -0.024427  -0.066610   0.002297
      8      -0.000322   0.001648   0.001367  -0.000794  -0.002318   0.000107
      9       0.031299  -0.358483  -0.287066   0.000112  -0.005265  -0.012022
     10      -0.002280   0.020725   0.025420  -0.000264   0.014184   0.009307
     11       0.000035  -0.000661  -0.000319  -0.000013   0.000491   0.000290
     12       0.375614   0.031853  -0.001753   0.000838  -0.000069   0.077239
     13       0.308789   0.026499  -0.001841  -0.000155  -0.000180  -0.019503
     14      -0.023913  -0.002261   0.000335  -0.000050   0.000057  -0.005219
     15      -0.409904  -0.034871   0.001895  -0.000191  -0.000254  -0.007224
     16      -0.301697  -0.025539   0.002005  -0.000707   0.000841   0.009396
     17       0.026096   0.002259  -0.000045  -0.000005   0.000023   0.000486
     18      -0.007646   0.077183  -0.064318   0.046592  -0.028114   0.006401
     19       0.030063  -0.304096   0.265398   0.055672  -0.031278   0.008518
     20       0.000234  -0.017229   0.016835   0.001727  -0.000972   0.000258
     21      -0.018710   0.191182  -0.156774  -0.032171   0.032489   0.000885
     22      -0.027677   0.287034  -0.262648   0.053938  -0.066246  -0.002133
     23      -0.001145   0.009439  -0.009310   0.003788  -0.004319  -0.000220
     24       0.001245  -0.011868   0.203794   0.389273  -0.147089   0.001499
     25       0.018741  -0.184425   0.255500  -0.836582   0.311562  -0.004041
     26       0.000971  -0.009390   0.013573  -0.054412   0.020478  -0.000206
     27       0.001645  -0.025940  -0.199353  -0.150500  -0.387400   0.011478
     28       0.018305  -0.201083  -0.240116   0.326873   0.827940  -0.025743
     29       0.002058  -0.007814  -0.003413   0.011611   0.029294  -0.001125
     30      -0.009896   0.083375   0.061630  -0.010746  -0.048518   0.045677
     31       0.030426  -0.321509  -0.242231  -0.014516  -0.053282   0.071263
     32       0.001627  -0.011366  -0.006625  -0.000605  -0.002049   0.002693
     33      -0.018833   0.199711   0.140321   0.001382   0.072855   0.087930
     34      -0.026601   0.306127   0.240826   0.004962  -0.140486  -0.184516
     35      -0.000442   0.011396   0.008663   0.000270  -0.005005  -0.006692
     36      -0.155014  -0.013201  -0.000368   0.001576   0.002590   0.048872
     37       0.414038   0.033935  -0.003290  -0.000814  -0.000807  -0.011202
     38       0.009800   0.001698  -0.002369  -0.000193  -0.000119  -0.003094
     39       0.362291   0.029419  -0.001327  -0.000864   0.000965   0.012463
     40      -0.234666  -0.019607   0.001349   0.007616  -0.008982  -0.152421
     41      -0.023095  -0.001103   0.000803   0.000129  -0.000300  -0.001113
     42       0.268154   0.023746  -0.000222  -0.008528   0.000574  -0.905966
     43      -0.200013  -0.014808   0.003868   0.002804  -0.000412   0.304672
     44      -0.017400  -0.003313  -0.002495   0.000491  -0.000116   0.061724
     45      -0.000841  -0.000054   0.000010   0.000002  -0.000003   0.000131
     46      -0.000800  -0.000136  -0.000060   0.000011   0.000025  -0.000260
     47       0.000058   0.000006  -0.000028   0.000001  -0.000010  -0.000007
                 42         43         44         45         46         47    
      0       0.004797   0.058596   0.000713  -0.022209   0.011359  -0.000177
      1      -0.005432  -0.026765  -0.002673  -0.078681   0.043677  -0.003223
      2      -0.000424  -0.003021  -0.000153  -0.003584   0.002020  -0.000156
      3      -0.001515  -0.002428  -0.000220   0.003716  -0.003762   0.000499
      4       0.003508  -0.003066   0.000290  -0.009912   0.007527  -0.001054
      5       0.000232  -0.000081   0.000006  -0.000616   0.000513  -0.000090
      6      -0.000480   0.000453   0.000044  -0.001510  -0.006036   0.000498
      7       0.008571  -0.003276  -0.000039   0.004118   0.012252  -0.001007
      8       0.000323  -0.000116   0.000000   0.000152   0.000420  -0.000017
      9      -0.052293   0.005686  -0.000580   0.017616   0.029468  -0.000547
     10       0.039622  -0.001651  -0.001134   0.040239   0.073792  -0.002908
     11       0.001301  -0.000048  -0.000045   0.001533   0.002801  -0.000121
     12      -0.017063   0.002335  -0.011060  -0.000218   0.000162   0.012130
     13       0.004386  -0.000510   0.000198   0.000131  -0.000055  -0.006539
     14       0.001113  -0.000150   0.000719   0.000022  -0.000045  -0.000817
     15       0.001949  -0.001894   0.042218  -0.001452   0.003792   0.064529
     16      -0.003056  -0.000005   0.048632   0.000340  -0.001933  -0.068997
     17      -0.000135   0.000095  -0.002483   0.000092  -0.000255  -0.004069
     18      -0.012629  -0.299918   0.005319   0.462706  -0.246566   0.013372
     19      -0.021923  -0.435268   0.005460   0.584553  -0.311837   0.016492
     20      -0.000791  -0.015044   0.000147   0.018629  -0.009994   0.000483
     21      -0.041096  -0.351929  -0.013767  -0.210972   0.123008  -0.012263
     22       0.088435   0.759986   0.027641   0.383780  -0.224811   0.023111
     23       0.005834   0.049888   0.002038   0.026046  -0.015250   0.001598
     24       0.018180  -0.013611   0.002658  -0.033318   0.031753  -0.004966
     25      -0.042467   0.032917  -0.005273   0.075530  -0.076979   0.011459
     26      -0.002734   0.002176  -0.000229   0.004826  -0.004934   0.000878
     27       0.040529  -0.015491  -0.000260   0.010663   0.048933  -0.004847
     28      -0.092072   0.036375   0.000661  -0.020729  -0.114271   0.010993
     29      -0.003373   0.001272   0.000151  -0.000771  -0.004112   0.000244
     30       0.203387  -0.030635   0.008297  -0.280550  -0.488898   0.014740
     31       0.315436  -0.044222   0.010900  -0.363156  -0.633277   0.018733
     32       0.012040  -0.001663   0.000431  -0.014078  -0.024488   0.000713
     33       0.381443  -0.030829  -0.001748   0.079861   0.161978  -0.009409
     34      -0.799033   0.064384   0.002668  -0.132901  -0.274649   0.017076
     35      -0.028350   0.002276   0.000152  -0.004741  -0.009748   0.000662
     36      -0.014473   0.022117  -0.548265   0.017623  -0.045772  -0.747305
     37       0.003841  -0.008604   0.237835  -0.007291   0.017852   0.274985
     38       0.000947  -0.000976   0.033693  -0.000978   0.002816   0.045862
     39      -0.003685  -0.001255   0.094535  -0.000966   0.000587  -0.036254
     40       0.043105   0.005838  -0.787116   0.002305   0.006423   0.576381
     41       0.000231  -0.000035  -0.007656  -0.000076   0.000215   0.003498
     42       0.200372  -0.026437   0.082276   0.003322  -0.001980  -0.128774
     43      -0.067719   0.008715  -0.028676  -0.000930   0.001088   0.045520
     44      -0.013130   0.001695  -0.005520  -0.000136   0.000161   0.008813
     45      -0.000028   0.000004   0.000002  -0.000000   0.000001  -0.000013
     46       0.000066   0.000002  -0.000045   0.000004  -0.000016   0.000037
     47       0.000008  -0.000000   0.000001  -0.000001   0.000004   0.000001


The first frequency considered to be a vibration is 7
The total number of vibrations considered is 41


--------------------------
THERMOCHEMISTRY AT 298.15K
--------------------------

Temperature         ...   298.15 K
Pressure            ...     1.00 atm
Total Mass          ...   161.04 AMU
Quasi RRHO          ...     True
Cut-Off Frequency   ...     1.00 cm^-1

Throughout the following assumptions are being made:
  (1) The electronic state is orbitally nondegenerate
  (2) There are no thermally accessible electronically excited states
  (3) Hindered rotations indicated by low frequency modes are not
      treated as such but are treated as vibrations and this may
      cause some error
  (4) All equations used are the standard statistical mechanics
      equations for an ideal gas
  (5) All vibrations are strictly harmonic

freq.      26.99  E(vib)   ...       0.55 
freq.      33.24  E(vib)   ...       0.55 
freq.      49.83  E(vib)   ...       0.52 
freq.      69.14  E(vib)   ...       0.50 
freq.      75.83  E(vib)   ...       0.49 
freq.     152.61  E(vib)   ...       0.40 
freq.     296.24  E(vib)   ...       0.27 
freq.     332.99  E(vib)   ...       0.24 
freq.     501.58  E(vib)   ...       0.14 
freq.     509.95  E(vib)   ...       0.14 
freq.     566.69  E(vib)   ...       0.11 
freq.     585.16  E(vib)   ...       0.11 
freq.     742.45  E(vib)   ...       0.06 
freq.     861.62  E(vib)   ...       0.04 
freq.     887.45  E(vib)   ...       0.04 
freq.     892.05  E(vib)   ...       0.03 
freq.     913.05  E(vib)   ...       0.03 
freq.     974.36  E(vib)   ...       0.03 
freq.     983.03  E(vib)   ...       0.02 
freq.     993.20  E(vib)   ...       0.02 
freq.    1005.24  E(vib)   ...       0.02 
freq.    1043.83  E(vib)   ...       0.02 
freq.    1198.19  E(vib)   ...       0.01 
freq.    1231.25  E(vib)   ...       0.01 
freq.    1264.39  E(vib)   ...       0.01 
freq.    1293.52  E(vib)   ...       0.01 
freq.    1375.95  E(vib)   ...       0.01 
freq.    1397.33  E(vib)   ...       0.00 
freq.    1423.52  E(vib)   ...       0.00 
freq.    1660.92  E(vib)   ...       0.00 
freq.    1664.12  E(vib)   ...       0.00 
freq.    1674.43  E(vib)   ...       0.00 
freq.    3048.12  E(vib)   ...       0.00 
freq.    3062.70  E(vib)   ...       0.00 
freq.    3090.48  E(vib)   ...       0.00 
freq.    3092.26  E(vib)   ...       0.00 
freq.    3099.19  E(vib)   ...       0.00 
freq.    3110.44  E(vib)   ...       0.00 
freq.    3127.50  E(vib)   ...       0.00 
freq.    3129.26  E(vib)   ...       0.00 
freq.    3142.51  E(vib)   ...       0.00 

------------
INNER ENERGY
------------

The inner energy is: U= E(el) + E(ZPE) + E(vib) + E(rot) + E(trans)
    E(el)   - is the total energy from the electronic structure calculation
              = E(kin-el) + E(nuc-el) + E(el-el) + E(nuc-nuc)
    E(ZPE)  - the the zero temperature vibrational energy from the frequency calculation
    E(vib)  - the the finite temperature correction to E(ZPE) due to population
              of excited vibrational states
    E(rot)  - is the rotational thermal energy
    E(trans)- is the translational thermal energy

Summary of contributions to the inner energy U:
Electronic energy                ...    -21.40927296 Eh
Zero point energy                ...      0.12434833 Eh      78.03 kcal/mol
Thermal vibrational correction   ...      0.00699263 Eh       4.39 kcal/mol
Thermal rotational correction    ...      0.00141627 Eh       0.89 kcal/mol
Thermal translational correction ...      0.00141627 Eh       0.89 kcal/mol
-----------------------------------------------------------------------
Total thermal energy                    -21.27509946 Eh


Summary of corrections to the electronic energy:
(perhaps to be used in another calculation)
Total thermal correction                  0.00982518 Eh       6.17 kcal/mol
Non-thermal (ZPE) correction              0.12434833 Eh      78.03 kcal/mol
-----------------------------------------------------------------------
Total correction                          0.13417350 Eh      84.19 kcal/mol


--------
ENTHALPY
--------

The enthalpy is H = U + kB*T
                kB is Boltzmann's constant
Total thermal energy              ...    -21.27509946 Eh 
Thermal Enthalpy correction       ...      0.00094421 Eh       0.59 kcal/mol
-----------------------------------------------------------------------
Total Enthalpy                    ...    -21.27415525 Eh


WARNING (ORCA/SYM): The number of Z matrix atoms does not agree with
the number of centers in the basis set. The point group will therefore
be determined without considering basis set information.


Note: Only C1 symmetry has been detected, increase convergence thresholds 
      if your molecule has a higher symmetry. Symmetry factor of 1.0 is   
      used for the rotational entropy correction. 
 

Note: Rotational entropy computed according to Herzberg 
Infrared and Raman Spectra, Chapter V,1, Van Nostrand Reinhold, 1945 
Point Group:  C1, Symmetry Number:   1  
Rotational constants in cm-1:     0.076916     0.029539     0.025708 

Vibrational entropy computed according to the QRRHO of S. Grimme
Chem.Eur.J. 2012 18 9955 using a reference frequency of 100.0 cm-1


-------
ENTROPY
-------

The entropy contributions are T*S = T*(S(el)+S(vib)+S(rot)+S(trans))
     S(el)   - electronic entropy
     S(vib)  - vibrational entropy
     S(rot)  - rotational entropy
     S(trans)- translational entropy
The entropies will be listed as multiplied by the temperature to get
units of energy

Electronic entropy                ...      0.00000000 Eh      0.00 kcal/mol
Vibrational entropy               ...      0.01311441 Eh      8.23 kcal/mol
Rotational entropy                ...      0.01411276 Eh      8.86 kcal/mol
Translational entropy             ...      0.01954605 Eh     12.27 kcal/mol
-----------------------------------------------------------------------
Final entropy term                ...      0.04677323 Eh     29.35 kcal/mol

In case the symmetry of your molecule has not been determined correctly
or in case you have a reason to use a different symmetry number we print 
out the resulting rotational entropy values for sn=1,12:

 non-linear molecules -----------------------------------
|  sn= 1 | S(rot)=       0.01411276 Eh      8.86 kcal/mol|
|  sn= 2 | S(rot)=       0.01345831 Eh      8.45 kcal/mol|
|  sn= 3 | S(rot)=       0.01307548 Eh      8.20 kcal/mol|
|  sn= 4 | S(rot)=       0.01280385 Eh      8.03 kcal/mol|
|  sn= 5 | S(rot)=       0.01259316 Eh      7.90 kcal/mol|
|  sn= 6 | S(rot)=       0.01242102 Eh      7.79 kcal/mol|
|  sn= 7 | S(rot)=       0.01227547 Eh      7.70 kcal/mol|
|  sn= 8 | S(rot)=       0.01214940 Eh      7.62 kcal/mol|
|  sn= 9 | S(rot)=       0.01203819 Eh      7.55 kcal/mol|
|  sn=10 | S(rot)=       0.01193871 Eh      7.49 kcal/mol|
|  sn=11 | S(rot)=       0.01184872 Eh      7.44 kcal/mol|
|  sn=12 | S(rot)=       0.01176656 Eh      7.38 kcal/mol|
 linear molecules ---------------------------------------
|  Dinfh | S(rot)=       0.00878240 Eh      5.51 kcal/mol|
|  Cinfv | S(rot)=       0.00943685 Eh      5.92 kcal/mol|
 --------------------------------------------------------


-------------------
GIBBS FREE ENERGY
-------------------

The Gibbs free energy is G = H - T*S

Total enthalpy                    ...    -21.27415525 Eh 
Total entropy correction          ...     -0.04677323 Eh    -29.35 kcal/mol
-----------------------------------------------------------------------
Final Gibbs free energy         ...    -21.32092848 Eh

For completeness - the Gibbs free energy minus the electronic energy
G-E(el)                           ...      0.08834448 Eh     55.44 kcal/mol


--------------------------------
SUGGESTED CITATIONS FOR THIS RUN
--------------------------------

Below you find a list of papers that are relevant to this ORCA run
We neither can nor want to force you to cite these papers, but we appreciate if you do
You receive ORCA, which is the product of decades of hard work by many enthusiastic individuals, for free
The only thing we kindly ask in return is that you cite our papers,
We deeply appreciate it, if you show your appreciation for ORCA by not just citing the generic ORCA reference.

Please note that relegating all ORCA citations to the supporting information does *not* help us.
SI sections are not indexed - citations you put there will not count into any citation statistics
But we need these citations in order to attract the funding resources that allow us to do what we are doing

Therefore, if you are a happy ORCA user, please consider citing a few of the papers listed below in the main body of your paper

In addition to the list printed below, the program has created the file reactant_optfreq.bibtex that contains the list in bibtex format
You can import this file easily into all common literature databanks and citation aid programs


List of essential papers. We consider these as the minimum necessary citations

  1. Bannwarth, C.; Ehlert, S.; Grimme, S.
     GFN2-xTB—An Accurate and Broadly Parametrized Self-Consistent Tight-Binding Quantum Chemical Method with Multipole Electrostatics and Density-Dependent Dispersion Contributions
     J. Chem. Theory Comput. 2019 15(3), 1652-1671
     doi.org/10.1021/acs.jctc.8b01176
  2. Neese, F.
     Software update: the ORCA program system, version 6.0
     WIRES Comput. Molec. Sci. 2025 15(1), e70019
     doi.org/10.1002/wcms.7019

List of papers to cite with high priority. The work reported in these papers was absolutely
necessary for this run to complete.
Our perspective: the developers of density functionals and basis sets usually get cited in chemistry papers
Good! But without the algorithms to do something with them, the functionals or basis sets would not do anything.
Hence, in our opinion, the algorithm design and method developments papers are equally worthy of getting cited

  1. Bykov, D.; Petrenko, T.; Izsak, R.; Kossmann, S.; Becker, U.; Valeev, E.; Neese, F.
     Efficient implementation of the analytic second derivatives of Hartree-Fock and hybrid DFT energies: a detailed analysis of different approximations
     Molec. Phys. 2015 113 , 1961-1977
     doi.org/10.1080/00268976.2015.1025114
  2. Bannwarth, C.; Caldeweyher, E.; Ehlert, S.; Hansen, A.; Pracht, P.; Seibert, J.; Spicher, S.; Grimme, S.
     Extended tight-binding quantum chemistry methods
     WIRES Comput. Molec. Sci. 2020 11(2), e1493
     doi.org/10.1002/wcms.1493

List of suggested additional citations. These are papers that are important in the 'surrounding' of 
of this run, or papers that preceded the highly important papers. If you like your results we are grateful for a citation.

  1. Neese, F.
     The ORCA program system
     WIRES Comput. Molec. Sci. 2012 2(1), 73-78
     doi.org/10.1002/wcms.81
  2. Neese, F.
     Software update: the ORCA program system, version 4.0
     WIRES Comput. Molec. Sci. 2018 8(1), 1-6
     doi.org/10.1002/wcms.1327
  3. Neese, F.; Wennmohs, F.; Becker, U.; Riplinger, C.
     The ORCA quantum chemistry program package
     J. Chem. Phys. 2020 152(22), 224108
     doi.org/10.1063/5.0004608
  4. Neese, F.
     Software update: The ORCA program system—Version 5.0
     WIRES Comput. Molec. Sci. 2022 12(1), e1606
     doi.org/10.1002/wcms.1606

List of optional additional citations

  1. Neese, F.
     Approximate second-order SCF convergence for spin unrestricted wavefunctions
     Chem. Phys. Lett. 2000 325(1-3), 93-98
     doi.org/10.1016/s0009-2614(00)00662-x

Timings for individual modules:

Sum of individual times          ...        1.586 sec (=   0.026 min)
Geometry relaxation              ...        0.144 sec (=   0.002 min)   9.1 %
XTB module                       ...        1.442 sec (=   0.024 min)  90.9 %
                             ****ORCA TERMINATED NORMALLY****
TOTAL RUN TIME: 0 days 0 hours 0 minutes 2 seconds 153 msec
