
                                 *****************
                                 * O   R   C   A *
                                 *****************

                                            #,                                       
                                            ###                                      
                                            ####                                     
                                            #####                                    
                                            ######                                   
                                           ########,                                 
                                     ,,################,,,,,                         
                               ,,#################################,,                 
                          ,,##########################################,,             
                       ,#########################################, ''#####,          
                    ,#############################################,,   '####,        
                  ,##################################################,,,,####,       
                ,###########''''           ''''###############################       
              ,#####''   ,,,,##########,,,,          '''####'''          '####       
            ,##' ,,,,###########################,,,                        '##       
           ' ,,###''''                  '''############,,,                           
         ,,##''                                '''############,,,,        ,,,,,,###''
      ,#''                                            '''#######################'''  
     '                                                          ''''####''''         
             ,#######,   #######,   ,#######,      ##                                
            ,#'     '#,  ##    ##  ,#'     '#,    #''#        ,####,    ,#,          
            ##       ##  ##   ,#'  ##            #'  '#       #'       ,# #          
            ##       ##  #######   ##           ,######,      #####,      #          
            '#,     ,#'  ##    ##  '#,     ,#' ,#      #,     #,   #      #          
             '#######'   ##     ##  '#######'  #'      '#     '####' #    #          



                #########################################################
                #                        -***-                          #
                #          Department of theory and spectroscopy        #
                #                                                       #
                #                      Frank Neese                      #
                #                                                       #
                #     Directorship, Architecture, Infrastructure        #
                #                    SHARK, DRIVERS                     #
                #        Core code/Algorithms in most modules           #
                #                                                       #
                #        Max Planck Institute fuer Kohlenforschung      #
                #                Kaiser Wilhelm Platz 1                 #
                #                 D-45470 Muelheim/Ruhr                 #
                #                      Germany                          #
                #                                                       #
                #                  All rights reserved                  #
                #                        -***-                          #
                #########################################################


                         Program Version 6.1.0  -  RELEASE   -
                                (GIT: $679e74b$)
                          ($2025-06-10 18:02:51 +0200$)


 With contributions from (in alphabetic order):
[Max-Planck-Institut fuer Kohlenforschung]                               
  Daniel Aravena         : Magnetic Suceptibility                        
  Michael Atanasov       : Ab Initio Ligand Field Theory (pilot matlab implementation)
  Alexander A. Auer      : GIAO ZORA, VPT2 properties, NMR spectrum      
  Ute Becker             : All parallelization in ORCA, NUMFREQ, NUMCALC 
  Giovanni Bistoni       : ED, misc. LED, open-shell LED, HFLD           
  Dmytro Bykov           : pre 5.0 version of the SCF Hessian            
  Marcos Casanova-Páez   : Triplet and SCS-CIS(D). UHF-(DLPNO)-IP/EA/STEOM-CCSD. UHF-CVS-IP/STEOM-CCSD   
  Vijay G. Chilkuri      : MRCI spin determinant printing, contributions to CSF-ICE 
  Pauline Colinet        : FMM embedding                                 
  Dipayan Datta          : RHF DLPNO-CCSD density                        
  Achintya Kumar Dutta   : EOM-CC, STEOM-CC                              
  Nicolas Foglia         : Exact transition moments, OPA infrastructure, MCD improvements    
  Dmitry Ganyushin       : Spin-Orbit,Spin-Spin,Magnetic field MRCI      
  Miquel Garcia-Rates    : C-PCM and meta-GGA Hessian, CCSD/C-PCM, Gaussian charge scheme 
  Tiago L. C. Gouveia    : GS-ROHF, GS-ROCIS                             
  Yang Guo               : DLPNO-NEVPT2, F12-NEVPT2, CIM, IAO-localization        
  Andreas Hansen         : Spin unrestricted coupled pair/coupled cluster methods 
  Ingolf Harden          : AUTO-CI MPn and infrastructure                
  Benjamin Helmich-Paris : MC-RPA, TRAH-(SCF,CASSCF), AVAS, COSX integrals, SCF dyn. polar., MC-PDFT, srDFT 
  Lee Huntington         : MR-EOM, pCC                                   
  Robert Izsak           : Overlap fitted RIJCOSX, COSX-SCS-MP3, EOM     
  Riya Kayal             : Wick's Theorem for AUTO-CI, AUTO-CI UHF-CCSDT 
  Emily Kempfer          : AUTO-CI RHF CISDT and CCSDT, approximate NEVPT4
  Christian Kollmar      : KDIIS, OOCD, Brueckner-CCSD(T), CCSD density, CASPT2, CASPT2-K, improved NEVPT2 
  Axel Koslowski         : Symmetry handling                             
  Simone Kossmann        : meta-GGA functionals, TD-DFT gradient, OOMP2, (MP2 Hessian; deprecated post 5.0) 
  Lucas Lang             : DCDCAS, Hyperfine gauge corrections, ICE-SOC+SSC
  Marvin Lechner         : AUTO-CI (C++ implementation), FIC-MRCC        
  Spencer Leger          : CASSCF response                               
  Dagmar Lenk            : GEPOL surface, SMD, ORCA-2-JSON               
  Dimitrios Liakos       : Extrapolation schemes; Compound Job, Property file
  Dimitrios Manganas     : Further ROCIS development; embedding schemes. LFT, Crystal Embedding 
  Dimitrios Pantazis     : SARC Basis sets                               
  Anastasios Papadopoulos: AUTO-CI, single reference methods and gradients 
  Taras Petrenko         : pre 6.0 DFT Hessian and TD-DFT gradient,  ECA, NRVS 
  Petra Pikulova         : Analytic Raman intensities                    
  Peter Pinski           : DLPNO-MP2, DLPNO-MP2 Gradient                 
  Shashank Vittal Rao    : ES-AILFT, MagRelax                            
  Christoph Reimann      : Effective Core Potentials                     
  Marius Retegan         : Local ZFS, SOC                                
  Christoph Riplinger    : Optimizer, TS searches, QM/MM, DLPNO-CCSD(T), (RO)-DLPNO pert. Triples 
  Michael Roemelt        : Original ROCIS implementation, recursive CI coupling coefficients
  Masaaki Saitow         : Open-shell DLPNO-CCSD energy and density      
  Barbara Sandhoefer     : DKH picture change effects                    
  Yorick L. A. Schmerwitz: GMF and freeze-and-release deltaSCF, NEB S-IDPP initial path                    
  Kantharuban Sivalingam : CASSCF convergence/infrastructure, NEVPT2, NEVPT3, NEVPT4(SD), FIC-MRCI and CEPA variants
  Bernardo de Souza      : ESD, SOC TD-DFT                               
  Georgi L. Stoychev     : AutoAux, RI-MP2 NMR, DLPNO-MP2 response, X2C  
  Van Anh Tran           : RI-MP2 g-tensors                              
  Willem Van den Heuvel  : Paramagnetic NMR                              
  Zikuan Wang            : NOTCH, Electric field optimization            
  Frank Wennmohs         : Technical directorship and infrastructure     
  Hang Xu                : AUTO-CI-Response properties                   
                                                                         
[FACCTs GmbH]                                                            
  Markus Bursch, Nicolas Foglia, Miquel Garcia-Rates, Ingolf Harden, Hagen Neugebauer, Anastasios Papadopoulos, 
  Christoph Riplinger, Bernardo de Souza, Georgi L. Stoychev                                                    
                                                                 
  APM, various basis sets, CI-OPT, improved COSX, DLPNO-Multilevel,           
  DOCKER, DRACO, updates on ESD, Fragmentator, GOAT, IRC, LR-CPCM, L-BFGS, MBIS, meta-GGA TD-DFT gradient, ML-optimized integration grids, 
  MM, NACMEs, nearIR, NEB, NEB-TS, NL-DFT gradient (VV10), 2- and 3-layer-ONIOM, interface openCOSMO-RS, QMMM,   
  Crystal-QMMM, RESP, rigid body optimization, SF, symmetry and pop. for TD-DFT, various functionals, SOLVATOR                                   
                                                                         
[Other institutions]                                                     
  V. Asgeirsson          : NEB                                           
  Christoph Bannwarth    : sTDA-DFT, sTD-DFT, PBEh-3c, B97-3c, D3        
  Giovanni Bistoni       : ETS/NOCV, ADLD/ADEX, COVALED                  
  Martin Brehm           : Molecular dynamics                            
  Ronald Cardenas        : ETS/NOCV                                      
  Martina Colucci        : COVALED                                       
  Sebastian Ehlert       : rSCAN, r2SCAN, r2SCAN-3c, D4, dhf basis sets  
  Marvin Friede          : D4 for Fr, Ra, Ac-Lr                          
  Lars Goerigk           : TD-DFT with DH, B97 family of functionals     
  Stefan Grimme          : VdW corrections, initial TS optimization, DFT functionals, gCP, sTDA/sTD-DF 
  Waldemar Hujo          : DFT-NL                                        
  H. Jonsson             : NEB                                           
  Holger Kruse           : gCP                                           
  Marcel Mueller         : wB97X-3c, vDZP basis set                      
  Hagen Neugebauer       : wr2SCAN, Native XTB                           
  Gianluca Regni         : ADLD/ADEX                                     
  Tobias Risthaus        : pre 6.0 range-separated hybrid DFT and stability analysis
  Lukas Wittmann         : regularized MP2, r2SCAN double-hybrids, wr2SCAN        
                                                                         
We gratefully acknowledge several colleagues who have allowed us to      
interface, adapt or use parts of their codes:                            
  Ed Valeev, F. Pavosevic, A. Kumar             : LibInt (2-el integral package), F12 methods 
  Garnet Chan, S. Sharma, J. Yang, R. Olivares  : DMRG                   
  Ulf Ekstrom                                   : XCFun DFT Library      
  Mihaly Kallay                                 : mrcc  (arbitrary order and MRCC methods)
  Frank Weinhold                                : gennbo (NPA and NBO analysis)           
  Simon Mueller                                 : openCOSMO-RS                            
  Christopher J. Cramer and Donald G. Truhlar   : smd solvation model                     
  S Lehtola, MJT Oliveira, MAL Marques          : LibXC Library                           
  Liviu Ungur et al                             : ANISO software                          


 Your calculation uses the libint2 library for the computation of 2-el integrals
 For citations please refer to: http://libint.valeyev.net

 Your ORCA version has been built with support for libXC version: 7.0.0
 For citations please refer to: https://libxc.gitlab.io

 This ORCA versions uses:
   CBLAS   interface :  Fast vector & matrix operations
   LAPACKE interface :  Fast linear algebra routines
   SCALAPACK package :  Parallel linear algebra routines
   Shared memory     :  Shared parallel matrices
   BLAS/LAPACK       :  OpenBLAS 0.3.29  USE64BITINT DYNAMIC_ARCH NO_AFFINITY SkylakeX SINGLE_THREADED
        Core in use  :  SkylakeX
   Copyright (c) 2011-2014, The OpenBLAS Project


  ***********************************
  * Starting time: Thu Mar 12 12:45:03 2026
  * Host name:     midway3-login4.rcc.local
  * Process ID:    2774491
  * Working dir.:  /home/rzhu16/orca_TS_search/sn2_f_cl/IRC
  ***********************************



***************************************
The coordinates will be read from file: ../TS_search/sn2_f_cl.xyz
***************************************


Your calculation utilizes the semiempirical GFN2-xTB method
Please cite in your paper:
Bannwarth, C.; Ehlert S.; Grimme, S. J. Chem. Theory Comput. 2019, 15, 1652.
   

================================================================================

================================================================================
                                        WARNINGS
                       Please study these warnings very carefully!
================================================================================

WARNING: SinglePoint found together with IRC
         Switching on EnGrad - energy plus gradient calculation

WARNING: Found dipole moment calculation with XTB calculation
  ===> : Switching off dipole moment calculation


================================================================================
                                       INPUT FILE
================================================================================
NAME = sn2_f_cl.inp
|  1> ! XTB2 IRC PAL8
|  2> 
|  3> %irc
|  4>   Direction both
|  5>   MaxIter 20
|  6> end
|  7> 
|  8> * xyzfile -1 1 ../TS_search/sn2_f_cl.xyz
|  9> 
| 10>                          ****END OF INPUT****
================================================================================

                     *******************************
                     * Energy+Gradient Calculation *
                     *******************************

      -----------------------------------------------------------      
     |                   =====================                   |     
     |                           x T B                           |     
     |                   =====================                   |     
     |                         S. Grimme                         |     
     |          Mulliken Center for Theoretical Chemistry        |     
     |                    University of Bonn                     |     
      -----------------------------------------------------------      

   * xtb version 6.7.1 (edcfbbe) compiled by 'albert@albert-system' on 2024-07-22

   xtb is free software: you can redistribute it and/or modify it under
   the terms of the GNU Lesser General Public License as published by
   the Free Software Foundation, either version 3 of the License, or
   (at your option) any later version.
   
   xtb is distributed in the hope that it will be useful,
   but WITHOUT ANY WARRANTY; without even the implied warranty of
   MERCHANTABILITY or FITNESS FOR A PARTICULAR PURPOSE.  See the
   GNU Lesser General Public License for more details.
   
   Cite this work as:
   * C. Bannwarth, E. Caldeweyher, S. Ehlert, A. Hansen, P. Pracht,
     J. Seibert, S. Spicher, S. Grimme, WIREs Comput. Mol. Sci., 2020, 11,
     e01493. DOI: 10.1002/wcms.1493
   
   for GFN2-xTB:
   * C. Bannwarth, S. Ehlert and S. Grimme., J. Chem. Theory Comput., 2019,
     15, 1652-1671. DOI: 10.1021/acs.jctc.8b01176
   for GFN1-xTB:
   * S. Grimme, C. Bannwarth, P. Shushkov, J. Chem. Theory Comput., 2017,
     13, 1989-2009. DOI: 10.1021/acs.jctc.7b00118
   for GFN0-xTB:
   * P. Pracht, E. Caldeweyher, S. Ehlert, S. Grimme, ChemRxiv, 2019, preprint.
     DOI: 10.26434/chemrxiv.8326202.v1
   for GFN-FF:
   * S. Spicher and S. Grimme, Angew. Chem. Int. Ed., 2020, 59, 15665-15673.
     DOI: 10.1002/anie.202004239
   
   for ALPB and GBSA implicit solvation:
   * S. Ehlert, M. Stahn, S. Spicher, S. Grimme, J. Chem. Theory Comput.,
     2021, 17, 4250-4261. DOI: 10.1021/acs.jctc.1c00471
   
   for ddCOSMO and CPCM-X implicit solvation:
   * M. Stahn, S. Ehlert, S. Grimme, J. Phys. Chem. A,
     2023, XX, XXXX-XXXX. DOI: 10.1021/acs.jpca.3c04382
   
   for DFT-D4:
   * E. Caldeweyher, C. Bannwarth and S. Grimme, J. Chem. Phys., 2017,
     147, 034112. DOI: 10.1063/1.4993215
   * E. Caldeweyher, S. Ehlert, A. Hansen, H. Neugebauer, S. Spicher,
     C. Bannwarth and S. Grimme, J. Chem. Phys., 2019, 150, 154122.
     DOI: 10.1063/1.5090222
   * E. Caldeweyher, J.-M. Mewes, S. Ehlert and S. Grimme, Phys. Chem. Chem. Phys.
     2020, 22, 8499-8512. DOI: 10.1039/D0CP00502A
   
   for sTDA-xTB:
   * S. Grimme and C. Bannwarth, J. Chem. Phys., 2016, 145, 054103.
     DOI: 10.1063/1.4959605
   
   in the mass-spec context:
   * V. Asgeirsson, C. Bauer and S. Grimme, Chem. Sci., 2017, 8, 4879.
     DOI: 10.1039/c7sc00601b
   * J. Koopman and S. Grimme, ACS Omega 2019, 4, 12, 15120-15133.
     DOI: 10.1021/acsomega.9b02011
   
   for metadynamics refer to:
   * S. Grimme, J. Chem. Theory Comput., 2019, 155, 2847-2862
     DOI: 10.1021/acs.jctc.9b00143
   
   for SPH calculations refer to:
   * S. Spicher and S. Grimme, J. Chem. Theory Comput., 2021, 17, 1701-1714
     DOI: 10.1021/acs.jctc.0c01306
   
   for ONIOM refer to:
   * C. Plett, A. Katbashev, S. Ehlert, S. Grimme, M. Bursch,
     Phys. Chem. Chem. Phys., 2023, 25, 17860-17868. DOI: 10.1039/D3CP02178E
   
   for DIPRO refer to:
   * J. Kohn, N. Gildemeister, S. Grimme, D. Fazzi, A. Hansen,
     J. Chem. Phys., 2023, just accepted.
   
   for PTB refer to:
   * S. Grimme, M. Mueller, A. Hansen, J. Chem. Phys., 2023, 158, 124111.
     DOI: 10.1063/5.0137838
   
   with help from (in alphabetical order)
   P. Atkinson, C. Bannwarth, F. Bohle, G. Brandenburg, E. Caldeweyher
   M. Checinski, S. Dohm, S. Ehlert, S. Ehrlich, I. Gerasimov, C. Hölzer
   A. Katbashev, J. Kohn, J. Koopman, C. Lavigne, S. Lehtola, F. März, M. Müller,
   F. Musil, H. Neugebauer, J. Pisarek, C. Plett, P. Pracht, F. Pultar,
   J. Seibert, P. Shushkov, S. Spicher, M. Stahn, M. Steiner, T. Strunk,
   J. Stückrath, T. Rose, and J. Unsleber
   
 * started run on 2026/03/12 at 12:45:04.697     
   ID    Z sym.   atoms
    1    6 C      1
    2    1 H      2-4
    3    9 F      5
    4   17 Cl     6

           -------------------------------------------------
          |                Calculation Setup                |
           -------------------------------------------------

          program call               : /software/orca-6.1.0-el8-x86_64/bin/otool_xtb sn2_f_cl_XTB.xyz --grad -c -1 -u 0 -P 8 --namespace sn2_f_cl --input sn2_f_cl_XTB.input.tmp --acc 0.200000
          hostname                   : midway3-login4.rcc.local
          calculation namespace      : sn2_f_cl
          coordinate file            : sn2_f_cl_XTB.xyz
          omp threads                :                     8


molecular fragmentation (1/2 indicates fragments):
111121
# atoms in fragment 1/2:     5     1
 fragment masses (1/2) :       50.49       19.00
CMA distance (Bohr)    :   7.040
constraining FC (au)   :  0.0500

           -------------------------------------------------
          |                 G F N 2 - x T B                 |
           -------------------------------------------------

        Reference                      10.1021/acs.jctc.8b01176
      * Hamiltonian:
        H0-scaling (s, p, d)           1.850000    2.230000    2.230000
        zeta-weighting                 0.500000
      * Dispersion:
        s8                             2.700000
        a1                             0.520000
        a2                             5.000000
        s9                             5.000000
      * Repulsion:
        kExp                           1.500000    1.000000
        rExp                           1.000000
      * Coulomb:
        alpha                          2.000000
        third order                    shell-resolved
        anisotropic                    true
        a3                             3.000000
        a5                             4.000000
        cn-shift                       1.200000
        cn-exp                         4.000000
        max-rad                        5.000000


          ...................................................
          :                      SETUP                      :
          :.................................................:
          :  # basis functions                  21          :
          :  # atomic orbitals                  20          :
          :  # shells                           10          :
          :  # electrons                        22          :
          :  max. iterations                   250          :
          :  Hamiltonian                  GFN2-xTB          :
          :  restarted?                      false          :
          :  GBSA solvation                  false          :
          :  PC potential                    false          :
          :  electronic temp.          300.0000000     K    :
          :  accuracy                    0.2000000          :
          :  -> integral cutoff          0.3198970E+02      :
          :  -> integral neglect         0.2000000E-08      :
          :  -> SCF convergence          0.2000000E-06 Eh   :
          :  -> wf. convergence          0.2000000E-04 e    :
          :  Broyden damping             0.4000000          :
          :  net charge                         -1          :
          :  unpaired electrons                  0          :
          ...................................................

 iter      E             dE          RMSdq      gap      omega  full diag
   1    -13.1388122 -0.131388E+02  0.565E+00    5.17       0.0  T
   2    -13.1961931 -0.573808E-01  0.303E+00    2.86       1.0  T
   3    -13.1978434 -0.165032E-02  0.160E+00    2.35       1.0  T
   4    -13.1983513 -0.507919E-03  0.409E-01    1.76       1.0  T
   5    -13.1985565 -0.205240E-03  0.262E-01    2.07       1.0  T
   6    -13.1987018 -0.145221E-03  0.216E-01    1.91       1.0  T
   7    -13.1988634 -0.161657E-03  0.431E-02    1.88       1.0  T
   8    -13.1988653 -0.188046E-05  0.189E-02    1.87       2.2  T
   9    -13.1988662 -0.852066E-06  0.603E-03    1.87       6.8  T
  10    -13.1988662 -0.794360E-07  0.311E-03    1.88      13.1  T
  11    -13.1988662 -0.169422E-07  0.126E-03    1.88      32.3  T
  12    -13.1988663 -0.528093E-08  0.166E-04    1.87     245.3  T
  13    -13.1988663 -0.448548E-10  0.238E-05    1.87    1717.6  T

   *** convergence criteria satisfied after 13 iterations ***

         #    Occupation            Energy/Eh            Energy/eV
      -------------------------------------------------------------
         1        2.0000           -0.9133641             -24.8539
       ...           ...                  ...                  ...
         5        2.0000           -0.3425558              -9.3214
         6        2.0000           -0.3289545              -8.9513
         7        2.0000           -0.2723053              -7.4098
         8        2.0000           -0.2694753              -7.3328
         9        2.0000           -0.0863376              -2.3494
        10        2.0000           -0.0852158              -2.3188
        11        2.0000           -0.0849066              -2.3104 (HOMO)
        12                         -0.0160254              -0.4361 (LUMO)
        13                          0.1701127               4.6290
        14                          0.1704873               4.6392
        15                          0.1728259               4.7028
        16                          0.1732198               4.7136
       ...                                ...                  ...
        20                          0.4007395              10.9047
      -------------------------------------------------------------
                  HL-Gap            0.0688811 Eh            1.8744 eV
             Fermi-level           -0.0504660 Eh           -1.3732 eV

 SCC (total)                   0 d,  0 h,  0 min,  0.067 sec
 SCC setup                      ...        0 min,  0.000 sec (  0.254%)
 Dispersion                     ...        0 min,  0.000 sec (  0.085%)
 classical contributions        ...        0 min,  0.000 sec (  0.048%)
 integral evaluation            ...        0 min,  0.064 sec ( 96.225%)
 iterations                     ...        0 min,  0.002 sec (  2.265%)
 molecular gradient             ...        0 min,  0.001 sec (  0.929%)
 printout                       ...        0 min,  0.000 sec (  0.166%)

         :::::::::::::::::::::::::::::::::::::::::::::::::::::
         ::                     SUMMARY                     ::
         :::::::::::::::::::::::::::::::::::::::::::::::::::::
         :: total energy             -13.143097497944 Eh    ::
         :: gradient norm              0.000000577548 Eh/a0 ::
         :: HOMO-LUMO gap              1.874350336623 eV    ::
         ::.................................................::
         :: SCC energy               -13.198866333862 Eh    ::
         :: -> isotropic ES            0.246152273285 Eh    ::
         :: -> anisotropic ES         -0.002388292932 Eh    ::
         :: -> anisotropic XC         -0.000668742120 Eh    ::
         :: -> dispersion             -0.002044328621 Eh    ::
         :: repulsion energy           0.055768835918 Eh    ::
         :: add. restraining           0.000000000000 Eh    ::
         :: total charge              -1.000000000000 e     ::
         :::::::::::::::::::::::::::::::::::::::::::::::::::::


Property printout bound to 'properties.out'

           -------------------------------------------------
          | TOTAL ENERGY              -13.143097497944 Eh   |
          | GRADIENT NORM               0.000000577548 Eh/α |
          | HOMO-LUMO GAP               1.874350336623 eV   |
           -------------------------------------------------

------------------------------------------------------------------------
 * finished run on 2026/03/12 at 12:45:04.790     
------------------------------------------------------------------------
 total:
 * wall-time:     0 d,  0 h,  0 min,  0.093 sec
 *  cpu-time:     0 d,  0 h,  0 min,  0.533 sec
 * ratio c/w:     5.739 speedup
 SCF:
 * wall-time:     0 d,  0 h,  0 min,  0.067 sec
 *  cpu-time:     0 d,  0 h,  0 min,  0.471 sec
 * ratio c/w:     7.008 speedup


-------------------------   --------------------
FINAL SINGLE POINT ENERGY       -13.143097497940
-------------------------   --------------------


-------------
DIPOLE MOMENT
-------------
                                X             Y             Z
Total Dipole Moment    :      0.90400       0.52300      -2.19000
                        -----------------------------------------
Magnitude (a.u.)       :      2.42628
Magnitude (Debye)      :      6.16712


------------------
CARTESIAN GRADIENT
------------------

   1   C   :   -0.000000080   -0.000000046   -0.000000344
   2   H   :   -0.000000002    0.000000047   -0.000000029
   3   H   :    0.000000041   -0.000000026   -0.000000029
   4   H   :   -0.000000027   -0.000000016   -0.000000112
   5   F   :   -0.000000001    0.000000000    0.000000101
   6   Cl  :    0.000000070    0.000000041    0.000000413

Difference to translation invariance:
           :    0.0000000000   -0.0000000000   -0.0000000000

Difference to rotation invariance:
           :   -0.0000000034    0.0000000054    0.0000000002

Norm of the Cartesian gradient     ...    0.0000005775
RMS gradient                       ...    0.0000001361
MAX gradient                       ...    0.0000004130



--------------------------------------------------------------------------------
                   Intrinsic Reaction Coordinate Calculation
--------------------------------------------------------------------------------

System:
Nr. of atoms                        .... 6
Algorithm: SD (steepest descent step) plus correction
Settings:
Max. no of cycles        MaxIter    .... 20
Direction                           .... Forward and backward
Initial displacement Hessian type   .... Compute numerically
Following Hessian mode              .... 0
Initial displacement type           .... Energy
  Initial displacement energy change.... 2.000 mEh
Coordinate system following type    .... Cartesian
Length of steepest descent step     .... 0.150 bohr
Do parabolic fit 
  if SD step is uphill              .... YES
Do Correction to SD step            .... YES
Scaling for length of correction
  compared to SD step               .... 0.333
Do parabolic fit to SD correction   .... YES
Only interpolate for parabolic fit  .... YES
Do update to length of
  SD step and correction            .... YES
Convergence Tolerances:
  Max. Gradient            TolMAXG  ....  2.0000e-03 Eh/bohr
  RMS Gradient             TolRMSG  ....  5.0000e-04 Eh/bohr
Storing full IRC trajectory in      .... sn2_f_cl_IRC_Full_trj.xyz
Storing forward trajectory in       .... sn2_f_cl_IRC_F_trj.xyz
Storing backward trajectory in      .... sn2_f_cl_IRC_B_trj.xyz



----------------------------------------------------------------------------
                           ORCA NUMERICAL FREQUENCIES
                              (8-process run)
----------------------------------------------------------------------------

Number of atoms                ... 6
Central differences            ... NOT used
Translation invariance         ... used
Number of displacements        ... 18 - 3
Numerical increment            ... 5.000e-03 bohr
IR-spectrum generation         ... on
Raman-spectrum generation      ... off
Surface Crossing Hessian       ... off

The output will be reduced. Please look at the following files:
SCF program output             ... >sn2_f_cl.lastscf
Integral program output        ... >sn2_f_cl.lastint
Gradient program output        ... >sn2_f_cl.lastgrad
Dipole moment program output   ... >sn2_f_cl.lastmom

List of participating nodes    ...  sn2_f_cl.hostnames

	<< Calculating gradient on displaced geometry   2 (of  16) >>
	<< Calculating gradient on displaced geometry   3 (of  16) >>
	<< Calculating gradient on displaced geometry   6 (of  16) >>
	<< Calculating gradient on displaced geometry   1 (of  16) >>
	<< Calculating gradient on displaced geometry   4 (of  16) >>
	<< Calculating gradient on displaced geometry   5 (of  16) >>
	<< Calculating gradient on displaced geometry   7 (of  16) >>
	<< Calculating gradient on displaced geometry   8 (of  16) >>
	<< Calculating gradient on displaced geometry   9 (of  16) >>
	<< Calculating gradient on displaced geometry  11 (of  16) >>
	<< Calculating gradient on displaced geometry  10 (of  16) >>
	<< Calculating gradient on displaced geometry  12 (of  16) >>
	<< Calculating gradient on displaced geometry  14 (of  16) >>
	<< Calculating gradient on displaced geometry  13 (of  16) >>
	<< Calculating gradient on displaced geometry  15 (of  16) >>
	<< Calculating gradient on displaced geometry  16 (of  16) >>

The first frequency considered to be a vibration is 7
The total number of vibrations considered is 11


--------------------------
THERMOCHEMISTRY AT 298.15K
--------------------------

Temperature         ...   298.15 K
Pressure            ...     1.00 atm
Total Mass          ...    69.49 AMU
Quasi RRHO          ...     True
Cut-Off Frequency   ...     1.00 cm^-1

Throughout the following assumptions are being made:
  (1) The electronic state is orbitally nondegenerate
  (2) There are no thermally accessible electronically excited states
  (3) Hindered rotations indicated by low frequency modes are not
      treated as such but are treated as vibrations and this may
      cause some error
  (4) All equations used are the standard statistical mechanics
      equations for an ideal gas
  (5) All vibrations are strictly harmonic

freq.     146.86  E(vib)   ...       0.41 
freq.     207.48  E(vib)   ...       0.34 
freq.     550.11  E(vib)   ...       0.12 
freq.     811.76  E(vib)   ...       0.05 
freq.     980.03  E(vib)   ...       0.02 
freq.    1267.58  E(vib)   ...       0.01 
freq.    1423.43  E(vib)   ...       0.00 
freq.    1435.40  E(vib)   ...       0.00 
freq.    2960.49  E(vib)   ...       0.00 
freq.    3048.47  E(vib)   ...       0.00 
freq.    3058.29  E(vib)   ...       0.00 

------------
INNER ENERGY
------------

The inner energy is: U= E(el) + E(ZPE) + E(vib) + E(rot) + E(trans)
    E(el)   - is the total energy from the electronic structure calculation
              = E(kin-el) + E(nuc-el) + E(el-el) + E(nuc-nuc)
    E(ZPE)  - the the zero temperature vibrational energy from the frequency calculation
    E(vib)  - the the finite temperature correction to E(ZPE) due to population
              of excited vibrational states
    E(rot)  - is the rotational thermal energy
    E(trans)- is the translational thermal energy

Summary of contributions to the inner energy U:
Electronic energy                ...    -13.14309750 Eh
Zero point energy                ...      0.03619984 Eh      22.72 kcal/mol
Thermal vibrational correction   ...      0.00152840 Eh       0.96 kcal/mol
Thermal rotational correction    ...      0.00141627 Eh       0.89 kcal/mol
Thermal translational correction ...      0.00141627 Eh       0.89 kcal/mol
-----------------------------------------------------------------------
Total thermal energy                    -13.10253671 Eh


Summary of corrections to the electronic energy:
(perhaps to be used in another calculation)
Total thermal correction                  0.00436094 Eh       2.74 kcal/mol
Non-thermal (ZPE) correction              0.03619984 Eh      22.72 kcal/mol
-----------------------------------------------------------------------
Total correction                          0.04056079 Eh      25.45 kcal/mol


--------
ENTHALPY
--------

The enthalpy is H = U + kB*T
                kB is Boltzmann's constant
Total thermal energy              ...    -13.10253671 Eh 
Thermal Enthalpy correction       ...      0.00094421 Eh       0.59 kcal/mol
-----------------------------------------------------------------------
Total Enthalpy                    ...    -13.10159250 Eh


WARNING (ORCA/SYM): The number of Z matrix atoms does not agree with
the number of centers in the basis set. The point group will therefore
be determined without considering basis set information.


Note: Rotational entropy computed according to Herzberg 
Infrared and Raman Spectra, Chapter V,1, Van Nostrand Reinhold, 1945 
Point Group:  Cs, Symmetry Number:   1  
Rotational constants in cm-1:     2.778116     0.074069     0.073146 

Vibrational entropy computed according to the QRRHO of S. Grimme
Chem.Eur.J. 2012 18 9955 using a reference frequency of 100.0 cm-1


-------
ENTROPY
-------

The entropy contributions are T*S = T*(S(el)+S(vib)+S(rot)+S(trans))
     S(el)   - electronic entropy
     S(vib)  - vibrational entropy
     S(rot)  - rotational entropy
     S(trans)- translational entropy
The entropies will be listed as multiplied by the temperature to get
units of energy

Electronic entropy                ...      0.00000000 Eh      0.00 kcal/mol
Vibrational entropy               ...      0.00268277 Eh      1.68 kcal/mol
Rotational entropy                ...      0.01149183 Eh      7.21 kcal/mol
Translational entropy             ...      0.01835566 Eh     11.52 kcal/mol
-----------------------------------------------------------------------
Final entropy term                ...      0.03253026 Eh     20.41 kcal/mol

In case the symmetry of your molecule has not been determined correctly
or in case you have a reason to use a different symmetry number we print 
out the resulting rotational entropy values for sn=1,12:

 non-linear molecules -----------------------------------
|  sn= 1 | S(rot)=       0.01149183 Eh      7.21 kcal/mol|
|  sn= 2 | S(rot)=       0.01083738 Eh      6.80 kcal/mol|
|  sn= 3 | S(rot)=       0.01045454 Eh      6.56 kcal/mol|
|  sn= 4 | S(rot)=       0.01018292 Eh      6.39 kcal/mol|
|  sn= 5 | S(rot)=       0.00997223 Eh      6.26 kcal/mol|
|  sn= 6 | S(rot)=       0.00980009 Eh      6.15 kcal/mol|
|  sn= 7 | S(rot)=       0.00965454 Eh      6.06 kcal/mol|
|  sn= 8 | S(rot)=       0.00952846 Eh      5.98 kcal/mol|
|  sn= 9 | S(rot)=       0.00941725 Eh      5.91 kcal/mol|
|  sn=10 | S(rot)=       0.00931778 Eh      5.85 kcal/mol|
|  sn=11 | S(rot)=       0.00922779 Eh      5.79 kcal/mol|
|  sn=12 | S(rot)=       0.00914563 Eh      5.74 kcal/mol|
 linear molecules ---------------------------------------
|  Dinfh | S(rot)=       0.00779512 Eh      4.89 kcal/mol|
|  Cinfv | S(rot)=       0.00844957 Eh      5.30 kcal/mol|
 --------------------------------------------------------


-------------------
GIBBS FREE ENERGY
-------------------

The Gibbs free energy is G = H - T*S

Total enthalpy                    ...    -13.10159250 Eh 
Total entropy correction          ...     -0.03253026 Eh    -20.41 kcal/mol
-----------------------------------------------------------------------
Final Gibbs free energy         ...    -13.13412276 Eh

For completeness - the Gibbs free energy minus the electronic energy
G-E(el)                           ...      0.00897473 Eh      5.63 kcal/mol


Reading the hessian file           ...... done
Determining length of initial displacement:
  Requested energy change (quadratic behavior): 2.000 mEh
  Resulting scaling factor for initial displacement along normalized TS mode: 1.0975

         *************************************************************
         *                          FORWARD IRC                      *
         *************************************************************

Iteration    E(Eh)      dE(kcal/mol)  max(|G|)   RMS(G) 
Convergence thresholds                0.002000  0.000500            
    0       -13.143860   -0.478183    0.011334  0.004238
    1       -13.144264   -0.732069    0.005313  0.002367
    2       -13.144457   -0.852830    0.003039  0.001410
    3       -13.144610   -0.949412    0.002075  0.000982
    4       -13.144742   -1.031950    0.001572  0.000816
    5       -13.144859   -1.105526    0.001307  0.000738
    6       -13.144972   -1.176186    0.001375  0.000712
    7       -13.145082   -1.245152    0.001406  0.000701
    8       -13.145190   -1.312898    0.001419  0.000691
    9       -13.145296   -1.379602    0.001409  0.000683
   10       -13.145400   -1.444733    0.001390  0.000670
   11       -13.145501   -1.508364    0.001357  0.000660
   12       -13.145599   -1.569687    0.001319  0.000644
   13       -13.145693   -1.628956    0.001274  0.000637
   14       -13.145782   -1.684854    0.001223  0.000618
   15       -13.145867   -1.738169    0.001172  0.000624
   16       -13.145945   -1.786548    0.001113  0.000602
   17       -13.146017   -1.832232    0.001060  0.000634
   18       -13.146038   -1.845080    0.001042  0.000547
   19       -13.146074   -1.867941    0.001011  0.000487

                      ***********************HURRAY********************
                      ***            THE IRC HAS CONVERGED          ***
                      *************************************************


         *************************************************************
         *                          BACKWARD IRC                     *
         *************************************************************

Iteration    E(Eh)      dE(kcal/mol)  max(|G|)   RMS(G) 
Convergence thresholds                0.002000  0.000500            
    0       -13.144328   -0.772234    0.011633  0.005305
    1       -13.144720   -1.018283    0.006432  0.003112
    2       -13.144903   -1.132794    0.004149  0.001978
    3       -13.145108   -1.261886    0.003877  0.001449
    4       -13.145329   -1.400477    0.003678  0.001388
    5       -13.145547   -1.537315    0.003574  0.001384
    6       -13.145770   -1.677011    0.003499  0.001421
    7       -13.146000   -1.821135    0.003482  0.001472
    8       -13.146240   -1.971810    0.003524  0.001546
    9       -13.146491   -2.129608    0.003613  0.001623
   10       -13.146758   -2.296761    0.003755  0.001724
   11       -13.147039   -2.473383    0.004077  0.001825
   12       -13.147340   -2.662340    0.004583  0.001957
   13       -13.147661   -2.863437    0.005181  0.002086
   14       -13.148007   -3.080461    0.005836  0.002256
   15       -13.148377   -3.312730    0.006589  0.002416
   16       -13.148779   -3.565169    0.007410  0.002631
   17       -13.149211   -3.836309    0.008328  0.002827
   18       -13.149683   -4.132497    0.009326  0.003092
   19       -13.150191   -4.451151    0.010420  0.003325

         *************************************************************
         *  MAXIMUM NUMBER OF ITERATIONS REACHED - STOPPING IRC RUN  *
         *************************************************************


---------------------------------------------------------------
                       IRC PATH SUMMARY              
---------------------------------------------------------------
All gradients are in Eh/Bohr.

Step        E(Eh)      dE(kcal/mol)  max(|G|)   RMS(G) 
   1       -13.150191   -4.451151    0.010420  0.003325
   2       -13.149683   -4.132497    0.009326  0.003092
   3       -13.149211   -3.836309    0.008328  0.002827
   4       -13.148779   -3.565169    0.007410  0.002631
   5       -13.148377   -3.312730    0.006589  0.002416
   6       -13.148007   -3.080461    0.005836  0.002256
   7       -13.147661   -2.863437    0.005181  0.002086
   8       -13.147340   -2.662340    0.004583  0.001957
   9       -13.147039   -2.473383    0.004077  0.001825
  10       -13.146758   -2.296761    0.003755  0.001724
  11       -13.146491   -2.129608    0.003613  0.001623
  12       -13.146240   -1.971810    0.003524  0.001546
  13       -13.146000   -1.821135    0.003482  0.001472
  14       -13.145770   -1.677011    0.003499  0.001421
  15       -13.145547   -1.537315    0.003574  0.001384
  16       -13.145329   -1.400477    0.003678  0.001388
  17       -13.145108   -1.261886    0.003877  0.001449
  18       -13.144903   -1.132794    0.004149  0.001978
  19       -13.144720   -1.018283    0.006432  0.003112
  20       -13.144328   -0.772234    0.011633  0.005305
  21       -13.143097    0.000000    0.000000  0.000000 <= TS
  22       -13.143860   -0.478183    0.011334  0.004238
  23       -13.144264   -0.732069    0.005313  0.002367
  24       -13.144457   -0.852830    0.003039  0.001410
  25       -13.144610   -0.949412    0.002075  0.000982
  26       -13.144742   -1.031950    0.001572  0.000816
  27       -13.144859   -1.105526    0.001307  0.000738
  28       -13.144972   -1.176186    0.001375  0.000712
  29       -13.145082   -1.245152    0.001406  0.000701
  30       -13.145190   -1.312898    0.001419  0.000691
  31       -13.145296   -1.379602    0.001409  0.000683
  32       -13.145400   -1.444733    0.001390  0.000670
  33       -13.145501   -1.508364    0.001357  0.000660
  34       -13.145599   -1.569687    0.001319  0.000644
  35       -13.145693   -1.628956    0.001274  0.000637
  36       -13.145782   -1.684854    0.001223  0.000618
  37       -13.145867   -1.738169    0.001172  0.000624
  38       -13.145945   -1.786548    0.001113  0.000602
  39       -13.146017   -1.832232    0.001060  0.000634
  40       -13.146038   -1.845080    0.001042  0.000547
  41       -13.146074   -1.867941    0.001011  0.000487

--------------------------------
SUGGESTED CITATIONS FOR THIS RUN
--------------------------------

Below you find a list of papers that are relevant to this ORCA run
We neither can nor want to force you to cite these papers, but we appreciate if you do
You receive ORCA, which is the product of decades of hard work by many enthusiastic individuals, for free
The only thing we kindly ask in return is that you cite our papers,
We deeply appreciate it, if you show your appreciation for ORCA by not just citing the generic ORCA reference.

Please note that relegating all ORCA citations to the supporting information does *not* help us.
SI sections are not indexed - citations you put there will not count into any citation statistics
But we need these citations in order to attract the funding resources that allow us to do what we are doing

Therefore, if you are a happy ORCA user, please consider citing a few of the papers listed below in the main body of your paper

In addition to the list printed below, the program has created the file sn2_f_cl.bibtex that contains the list in bibtex format
You can import this file easily into all common literature databanks and citation aid programs


List of essential papers. We consider these as the minimum necessary citations

  1. Bannwarth, C.; Ehlert, S.; Grimme, S.
     GFN2-xTB—An Accurate and Broadly Parametrized Self-Consistent Tight-Binding Quantum Chemical Method with Multipole Electrostatics and Density-Dependent Dispersion Contributions
     J. Chem. Theory Comput. 2019 15(3), 1652-1671
     doi.org/10.1021/acs.jctc.8b01176
  2. Neese, F.
     Software update: the ORCA program system, version 6.0
     WIRES Comput. Molec. Sci. 2025 15(1), e70019
     doi.org/10.1002/wcms.7019

List of papers to cite with high priority. The work reported in these papers was absolutely
necessary for this run to complete.
Our perspective: the developers of density functionals and basis sets usually get cited in chemistry papers
Good! But without the algorithms to do something with them, the functionals or basis sets would not do anything.
Hence, in our opinion, the algorithm design and method developments papers are equally worthy of getting cited

  1. Bannwarth, C.; Caldeweyher, E.; Ehlert, S.; Hansen, A.; Pracht, P.; Seibert, J.; Spicher, S.; Grimme, S.
     Extended tight-binding quantum chemistry methods
     WIRES Comput. Molec. Sci. 2020 11(2), e1493
     doi.org/10.1002/wcms.1493

List of suggested additional citations. These are papers that are important in the 'surrounding' of 
of this run, or papers that preceded the highly important papers. If you like your results we are grateful for a citation.

  1. Neese, F.
     The ORCA program system
     WIRES Comput. Molec. Sci. 2012 2(1), 73-78
     doi.org/10.1002/wcms.81
  2. Neese, F.
     Software update: the ORCA program system, version 4.0
     WIRES Comput. Molec. Sci. 2018 8(1), 1-6
     doi.org/10.1002/wcms.1327
  3. Neese, F.; Wennmohs, F.; Becker, U.; Riplinger, C.
     The ORCA quantum chemistry program package
     J. Chem. Phys. 2020 152(22), 224108
     doi.org/10.1063/5.0004608
  4. Neese, F.
     Software update: The ORCA program system—Version 5.0
     WIRES Comput. Molec. Sci. 2022 12(1), e1606
     doi.org/10.1002/wcms.1606

List of optional additional citations

  1. Neese, F.
     Approximate second-order SCF convergence for spin unrestricted wavefunctions
     Chem. Phys. Lett. 2000 325(1-3), 93-98
     doi.org/10.1016/s0009-2614(00)00662-x

Timings for individual modules:

Sum of individual times          ...       25.197 sec (=   0.420 min)
Numerical frequency calculation  ...        1.859 sec (=   0.031 min)   7.4 %
XTB module                       ...       23.338 sec (=   0.389 min)  92.6 %
                             ****ORCA TERMINATED NORMALLY****
TOTAL RUN TIME: 0 days 0 hours 0 minutes 26 seconds 584 msec
