
                                 *****************
                                 * O   R   C   A *
                                 *****************

                                            #,                                       
                                            ###                                      
                                            ####                                     
                                            #####                                    
                                            ######                                   
                                           ########,                                 
                                     ,,################,,,,,                         
                               ,,#################################,,                 
                          ,,##########################################,,             
                       ,#########################################, ''#####,          
                    ,#############################################,,   '####,        
                  ,##################################################,,,,####,       
                ,###########''''           ''''###############################       
              ,#####''   ,,,,##########,,,,          '''####'''          '####       
            ,##' ,,,,###########################,,,                        '##       
           ' ,,###''''                  '''############,,,                           
         ,,##''                                '''############,,,,        ,,,,,,###''
      ,#''                                            '''#######################'''  
     '                                                          ''''####''''         
             ,#######,   #######,   ,#######,      ##                                
            ,#'     '#,  ##    ##  ,#'     '#,    #''#        ,####,    ,#,          
            ##       ##  ##   ,#'  ##            #'  '#       #'       ,# #          
            ##       ##  #######   ##           ,######,      #####,      #          
            '#,     ,#'  ##    ##  '#,     ,#' ,#      #,     #,   #      #          
             '#######'   ##     ##  '#######'  #'      '#     '####' #    #          



                #########################################################
                #                        -***-                          #
                #          Department of theory and spectroscopy        #
                #                                                       #
                #                      Frank Neese                      #
                #                                                       #
                #     Directorship, Architecture, Infrastructure        #
                #                    SHARK, DRIVERS                     #
                #        Core code/Algorithms in most modules           #
                #                                                       #
                #        Max Planck Institute fuer Kohlenforschung      #
                #                Kaiser Wilhelm Platz 1                 #
                #                 D-45470 Muelheim/Ruhr                 #
                #                      Germany                          #
                #                                                       #
                #                  All rights reserved                  #
                #                        -***-                          #
                #########################################################


                         Program Version 6.1.0  -  RELEASE   -
                                (GIT: $679e74b$)
                          ($2025-06-10 18:02:51 +0200$)


 With contributions from (in alphabetic order):
[Max-Planck-Institut fuer Kohlenforschung]                               
  Daniel Aravena         : Magnetic Suceptibility                        
  Michael Atanasov       : Ab Initio Ligand Field Theory (pilot matlab implementation)
  Alexander A. Auer      : GIAO ZORA, VPT2 properties, NMR spectrum      
  Ute Becker             : All parallelization in ORCA, NUMFREQ, NUMCALC 
  Giovanni Bistoni       : ED, misc. LED, open-shell LED, HFLD           
  Dmytro Bykov           : pre 5.0 version of the SCF Hessian            
  Marcos Casanova-Páez   : Triplet and SCS-CIS(D). UHF-(DLPNO)-IP/EA/STEOM-CCSD. UHF-CVS-IP/STEOM-CCSD   
  Vijay G. Chilkuri      : MRCI spin determinant printing, contributions to CSF-ICE 
  Pauline Colinet        : FMM embedding                                 
  Dipayan Datta          : RHF DLPNO-CCSD density                        
  Achintya Kumar Dutta   : EOM-CC, STEOM-CC                              
  Nicolas Foglia         : Exact transition moments, OPA infrastructure, MCD improvements    
  Dmitry Ganyushin       : Spin-Orbit,Spin-Spin,Magnetic field MRCI      
  Miquel Garcia-Rates    : C-PCM and meta-GGA Hessian, CCSD/C-PCM, Gaussian charge scheme 
  Tiago L. C. Gouveia    : GS-ROHF, GS-ROCIS                             
  Yang Guo               : DLPNO-NEVPT2, F12-NEVPT2, CIM, IAO-localization        
  Andreas Hansen         : Spin unrestricted coupled pair/coupled cluster methods 
  Ingolf Harden          : AUTO-CI MPn and infrastructure                
  Benjamin Helmich-Paris : MC-RPA, TRAH-(SCF,CASSCF), AVAS, COSX integrals, SCF dyn. polar., MC-PDFT, srDFT 
  Lee Huntington         : MR-EOM, pCC                                   
  Robert Izsak           : Overlap fitted RIJCOSX, COSX-SCS-MP3, EOM     
  Riya Kayal             : Wick's Theorem for AUTO-CI, AUTO-CI UHF-CCSDT 
  Emily Kempfer          : AUTO-CI RHF CISDT and CCSDT, approximate NEVPT4
  Christian Kollmar      : KDIIS, OOCD, Brueckner-CCSD(T), CCSD density, CASPT2, CASPT2-K, improved NEVPT2 
  Axel Koslowski         : Symmetry handling                             
  Simone Kossmann        : meta-GGA functionals, TD-DFT gradient, OOMP2, (MP2 Hessian; deprecated post 5.0) 
  Lucas Lang             : DCDCAS, Hyperfine gauge corrections, ICE-SOC+SSC
  Marvin Lechner         : AUTO-CI (C++ implementation), FIC-MRCC        
  Spencer Leger          : CASSCF response                               
  Dagmar Lenk            : GEPOL surface, SMD, ORCA-2-JSON               
  Dimitrios Liakos       : Extrapolation schemes; Compound Job, Property file
  Dimitrios Manganas     : Further ROCIS development; embedding schemes. LFT, Crystal Embedding 
  Dimitrios Pantazis     : SARC Basis sets                               
  Anastasios Papadopoulos: AUTO-CI, single reference methods and gradients 
  Taras Petrenko         : pre 6.0 DFT Hessian and TD-DFT gradient,  ECA, NRVS 
  Petra Pikulova         : Analytic Raman intensities                    
  Peter Pinski           : DLPNO-MP2, DLPNO-MP2 Gradient                 
  Shashank Vittal Rao    : ES-AILFT, MagRelax                            
  Christoph Reimann      : Effective Core Potentials                     
  Marius Retegan         : Local ZFS, SOC                                
  Christoph Riplinger    : Optimizer, TS searches, QM/MM, DLPNO-CCSD(T), (RO)-DLPNO pert. Triples 
  Michael Roemelt        : Original ROCIS implementation, recursive CI coupling coefficients
  Masaaki Saitow         : Open-shell DLPNO-CCSD energy and density      
  Barbara Sandhoefer     : DKH picture change effects                    
  Yorick L. A. Schmerwitz: GMF and freeze-and-release deltaSCF, NEB S-IDPP initial path                    
  Kantharuban Sivalingam : CASSCF convergence/infrastructure, NEVPT2, NEVPT3, NEVPT4(SD), FIC-MRCI and CEPA variants
  Bernardo de Souza      : ESD, SOC TD-DFT                               
  Georgi L. Stoychev     : AutoAux, RI-MP2 NMR, DLPNO-MP2 response, X2C  
  Van Anh Tran           : RI-MP2 g-tensors                              
  Willem Van den Heuvel  : Paramagnetic NMR                              
  Zikuan Wang            : NOTCH, Electric field optimization            
  Frank Wennmohs         : Technical directorship and infrastructure     
  Hang Xu                : AUTO-CI-Response properties                   
                                                                         
[FACCTs GmbH]                                                            
  Markus Bursch, Nicolas Foglia, Miquel Garcia-Rates, Ingolf Harden, Hagen Neugebauer, Anastasios Papadopoulos, 
  Christoph Riplinger, Bernardo de Souza, Georgi L. Stoychev                                                    
                                                                 
  APM, various basis sets, CI-OPT, improved COSX, DLPNO-Multilevel,           
  DOCKER, DRACO, updates on ESD, Fragmentator, GOAT, IRC, LR-CPCM, L-BFGS, MBIS, meta-GGA TD-DFT gradient, ML-optimized integration grids, 
  MM, NACMEs, nearIR, NEB, NEB-TS, NL-DFT gradient (VV10), 2- and 3-layer-ONIOM, interface openCOSMO-RS, QMMM,   
  Crystal-QMMM, RESP, rigid body optimization, SF, symmetry and pop. for TD-DFT, various functionals, SOLVATOR                                   
                                                                         
[Other institutions]                                                     
  V. Asgeirsson          : NEB                                           
  Christoph Bannwarth    : sTDA-DFT, sTD-DFT, PBEh-3c, B97-3c, D3        
  Giovanni Bistoni       : ETS/NOCV, ADLD/ADEX, COVALED                  
  Martin Brehm           : Molecular dynamics                            
  Ronald Cardenas        : ETS/NOCV                                      
  Martina Colucci        : COVALED                                       
  Sebastian Ehlert       : rSCAN, r2SCAN, r2SCAN-3c, D4, dhf basis sets  
  Marvin Friede          : D4 for Fr, Ra, Ac-Lr                          
  Lars Goerigk           : TD-DFT with DH, B97 family of functionals     
  Stefan Grimme          : VdW corrections, initial TS optimization, DFT functionals, gCP, sTDA/sTD-DF 
  Waldemar Hujo          : DFT-NL                                        
  H. Jonsson             : NEB                                           
  Holger Kruse           : gCP                                           
  Marcel Mueller         : wB97X-3c, vDZP basis set                      
  Hagen Neugebauer       : wr2SCAN, Native XTB                           
  Gianluca Regni         : ADLD/ADEX                                     
  Tobias Risthaus        : pre 6.0 range-separated hybrid DFT and stability analysis
  Lukas Wittmann         : regularized MP2, r2SCAN double-hybrids, wr2SCAN        
                                                                         
We gratefully acknowledge several colleagues who have allowed us to      
interface, adapt or use parts of their codes:                            
  Ed Valeev, F. Pavosevic, A. Kumar             : LibInt (2-el integral package), F12 methods 
  Garnet Chan, S. Sharma, J. Yang, R. Olivares  : DMRG                   
  Ulf Ekstrom                                   : XCFun DFT Library      
  Mihaly Kallay                                 : mrcc  (arbitrary order and MRCC methods)
  Frank Weinhold                                : gennbo (NPA and NBO analysis)           
  Simon Mueller                                 : openCOSMO-RS                            
  Christopher J. Cramer and Donald G. Truhlar   : smd solvation model                     
  S Lehtola, MJT Oliveira, MAL Marques          : LibXC Library                           
  Liviu Ungur et al                             : ANISO software                          


 Your calculation uses the libint2 library for the computation of 2-el integrals
 For citations please refer to: http://libint.valeyev.net

 Your ORCA version has been built with support for libXC version: 7.0.0
 For citations please refer to: https://libxc.gitlab.io

 This ORCA versions uses:
   CBLAS   interface :  Fast vector & matrix operations
   LAPACKE interface :  Fast linear algebra routines
   SCALAPACK package :  Parallel linear algebra routines
   Shared memory     :  Shared parallel matrices
   BLAS/LAPACK       :  OpenBLAS 0.3.29  USE64BITINT DYNAMIC_ARCH NO_AFFINITY SkylakeX SINGLE_THREADED
        Core in use  :  SkylakeX
   Copyright (c) 2011-2014, The OpenBLAS Project


  ***********************************
  * Starting time: Mon Mar 16 14:19:03 2026
  * Host name:     midway3-login4.rcc.local
  * Process ID:    121803
  * Working dir.:  /home/rzhu16/evans-polanyi-principle-validation/runs/sn2_i_f/geo_opt_reactant_product
  ***********************************

Your calculation utilizes the semiempirical GFN2-xTB method
Please cite in your paper:
Bannwarth, C.; Ehlert S.; Grimme, S. J. Chem. Theory Comput. 2019, 15, 1652.
   

================================================================================

cite the ECPs for I  [Def2-ECP] as follows:
Ce-Yb(ecp-28): M. Dolg, H. Stoll, H.Preuss, J. Chem. Phys., 1989, 90, 1730-1734.
Y-Cd(ecp-28), Hf-Hg(ecp-46): D. Andrae,U. Haeussermann, M. Dolg, H. Stoll, H. Preuss, Theor. Chim. Acta, 1990, 77, 123-141.
In-Sb(ecp-28), Tl-Bi(ecp-46): B. Metz, H. Stoll, M. Dolg, J. Chem. Phys., 2000, 113, 2563-2569.
Te-Xe(ecp-28), Po-Rn(ecp-46): K. A. Peterson, D. Figgen, E. Goll, H. Stoll, M. Dolg, J. Chem. Phys., 2003, 119, 11113-11123.
Rb(ecp-28), Cs(ecp-46): T. Leininger, A. Nicklass, W. Kuechle, H. Stoll, M. Dolg, A. Bergner, Chem. Phys. Lett., 1996, 255, 274-280.
Sr(ecp-28), Ba(ecp-46): M. Kaupp, P. V. Schleyer, H. Stoll and H. Preuss, J. Chem. Phys., 1991, 94, 1360-1366.
La(ecp-46): M. Dolg, H. Stoll, A. Savin, H. Preuss, Theor. Chim. Acta, 1989, 75, 173-194.
Lu(ecp-28): X. Cao, M. Dolg, J. Chem. Phys., 2001, 115, 7348-7355.

ECP parameters for I  [Def2-ECP] have been obtained from:
TURBOMOLE (7.0.2)

================================================================================
                                        WARNINGS
                       Please study these warnings very carefully!
================================================================================


WARNING: Analytical Hessian for XTB is limited in the analysis of the data.
       : If you want to obtain extensive IR and deltaG analysis, please use ! XTB NumFreq. 


WARNING: Geometry Optimization
  ===> : Switching off AutoStart
         For restart on a previous wavefunction, please use MOREAD

WARNING: Found dipole moment calculation with XTB calculation
  ===> : Switching off dipole moment calculation


WARNING: Found frequency calculation in combination with XTB calculation
  ===> : Need to redirect dipole moment calculation to properties.out


================================================================================
                                       INPUT FILE
================================================================================
NAME = product_optfreq.inp
|  1> ! XTB2 Opt Freq PAL8
|  2> 
|  3> %geom
|  4>   MaxIter 500
|  5> end
|  6> 
|  7> * xyz -1 1
|  8>   C      -0.018151     -0.486396      0.270915
|  9>   H       0.008411      0.225515     -0.583489
| 10>   H       0.844347     -1.144807      0.242013
| 11>   H      -0.928271     -1.077213      0.243146
| 12>   I       0.018517      0.442047      2.241752
| 13>   F       0.027748      0.773789     -2.159464
| 14> *
| 15> 
| 16>                          ****END OF INPUT****
================================================================================

                       *****************************
                       * Geometry Optimization Run *
                       *****************************

Geometry optimization settings:
Update method            Update   .... BFGS
Choice of coordinates    CoordSys .... (2022) Redundant Internals
Initial Hessian          InHess   .... Almloef's Model
Max. no of cycles        MaxIter  .... 500

Convergence Tolerances:
Energy Change            TolE     ....  5.0000e-06 Eh
Max. Gradient            TolMAXG  ....  3.0000e-04 Eh/bohr
RMS Gradient             TolRMSG  ....  1.0000e-04 Eh/bohr
Max. Displacement        TolMAXD  ....  4.0000e-03 bohr
RMS Displacement         TolRMSD  ....  2.0000e-03 bohr
Strict Convergence                .... False

------------------------------------------------------------------------------
                        ORCA OPTIMIZATION COORDINATE SETUP
------------------------------------------------------------------------------

The optimization will be done in redundant internal coordinates (2022)
Making redundant internal coordinates   ...  (2022 redundants) done
Evaluating the initial hessian          ...  (Almloef) done
Evaluating the coordinates              ...  done
Calculating the B-matrix                .... done
Calculating the G-matrix                .... done
The number of degrees of freedom        ....   15

    -----------------------------------------------------------------
                    Redundant Internal Coordinates


    -----------------------------------------------------------------
         Definition                    Initial Value    Approx d2E/dq
    -----------------------------------------------------------------
      1. B(H   1,C   0)                  1.1124         0.331602   
      2. B(H   2,C   0)                  1.0855         0.366144   
      3. B(H   3,C   0)                  1.0854         0.366199   
      4. B(I   4,C   0)                  2.1789         0.115775   
      5. B(F   5,H   1)                  1.6687         0.035753   
      6. A(H   1,C   0,H   3)          110.4084         0.287862   
      7. A(H   1,C   0,H   2)          110.4110         0.287856   
      8. A(H   1,C   0,I   4)          114.9366         0.281227   
      9. A(H   2,C   0,I   4)          105.6152         0.285587   
     10. A(H   3,C   0,I   4)          105.6161         0.285594   
     11. A(H   2,C   0,H   3)          109.5972         0.292373   
     12. A(C   0,H   1,F   5)          159.3720         0.204159   
     13. D(F   5,H   1,C   0,H   3)    -60.6261         0.099488   
     14. D(F   5,H   1,C   0,I   4)   -179.9497         0.099488   
     15. D(F   5,H   1,C   0,H   2)     60.7258         0.099488   
    -----------------------------------------------------------------

Number of atoms                         .... 6
Number of degrees of freedom            .... 15


         *************************************************************
         *                GEOMETRY OPTIMIZATION CYCLE   1            *
         *************************************************************
---------------------------------
CARTESIAN COORDINATES (ANGSTROEM)
---------------------------------
  C    -0.018151   -0.486396    0.270915
  H     0.008411    0.225515   -0.583489
  H     0.844347   -1.144807    0.242013
  H    -0.928271   -1.077213    0.243146
  I     0.018517    0.442047    2.241752
  F     0.027748    0.773789   -2.159464

----------------------------
CARTESIAN COORDINATES (A.U.)
----------------------------
  NO LB    ZA    FRAG    MASS        X           Y           Z
   0 C   6.0000    0    12.011   -0.034300   -0.919155    0.511955
   1 H   1.0000    0     1.008    0.015894    0.426162   -1.102634
   2 H   1.0000    0     1.008    1.595585   -2.163372    0.457338
   3 H   1.0000    0     1.008   -1.754178   -2.035638    0.459479
   4 I  53.0000    0   126.900    0.034992    0.835348    4.236297
   5 F   9.0000    0    18.998    0.052436    1.462249   -4.080796

      -----------------------------------------------------------      
     |                   =====================                   |     
     |                           x T B                           |     
     |                   =====================                   |     
     |                         S. Grimme                         |     
     |          Mulliken Center for Theoretical Chemistry        |     
     |                    University of Bonn                     |     
      -----------------------------------------------------------      

   * xtb version 6.7.1 (edcfbbe) compiled by 'albert@albert-system' on 2024-07-22

   xtb is free software: you can redistribute it and/or modify it under
   the terms of the GNU Lesser General Public License as published by
   the Free Software Foundation, either version 3 of the License, or
   (at your option) any later version.
   
   xtb is distributed in the hope that it will be useful,
   but WITHOUT ANY WARRANTY; without even the implied warranty of
   MERCHANTABILITY or FITNESS FOR A PARTICULAR PURPOSE.  See the
   GNU Lesser General Public License for more details.
   
   Cite this work as:
   * C. Bannwarth, E. Caldeweyher, S. Ehlert, A. Hansen, P. Pracht,
     J. Seibert, S. Spicher, S. Grimme, WIREs Comput. Mol. Sci., 2020, 11,
     e01493. DOI: 10.1002/wcms.1493
   
   for GFN2-xTB:
   * C. Bannwarth, S. Ehlert and S. Grimme., J. Chem. Theory Comput., 2019,
     15, 1652-1671. DOI: 10.1021/acs.jctc.8b01176
   for GFN1-xTB:
   * S. Grimme, C. Bannwarth, P. Shushkov, J. Chem. Theory Comput., 2017,
     13, 1989-2009. DOI: 10.1021/acs.jctc.7b00118
   for GFN0-xTB:
   * P. Pracht, E. Caldeweyher, S. Ehlert, S. Grimme, ChemRxiv, 2019, preprint.
     DOI: 10.26434/chemrxiv.8326202.v1
   for GFN-FF:
   * S. Spicher and S. Grimme, Angew. Chem. Int. Ed., 2020, 59, 15665-15673.
     DOI: 10.1002/anie.202004239
   
   for ALPB and GBSA implicit solvation:
   * S. Ehlert, M. Stahn, S. Spicher, S. Grimme, J. Chem. Theory Comput.,
     2021, 17, 4250-4261. DOI: 10.1021/acs.jctc.1c00471
   
   for ddCOSMO and CPCM-X implicit solvation:
   * M. Stahn, S. Ehlert, S. Grimme, J. Phys. Chem. A,
     2023, XX, XXXX-XXXX. DOI: 10.1021/acs.jpca.3c04382
   
   for DFT-D4:
   * E. Caldeweyher, C. Bannwarth and S. Grimme, J. Chem. Phys., 2017,
     147, 034112. DOI: 10.1063/1.4993215
   * E. Caldeweyher, S. Ehlert, A. Hansen, H. Neugebauer, S. Spicher,
     C. Bannwarth and S. Grimme, J. Chem. Phys., 2019, 150, 154122.
     DOI: 10.1063/1.5090222
   * E. Caldeweyher, J.-M. Mewes, S. Ehlert and S. Grimme, Phys. Chem. Chem. Phys.
     2020, 22, 8499-8512. DOI: 10.1039/D0CP00502A
   
   for sTDA-xTB:
   * S. Grimme and C. Bannwarth, J. Chem. Phys., 2016, 145, 054103.
     DOI: 10.1063/1.4959605
   
   in the mass-spec context:
   * V. Asgeirsson, C. Bauer and S. Grimme, Chem. Sci., 2017, 8, 4879.
     DOI: 10.1039/c7sc00601b
   * J. Koopman and S. Grimme, ACS Omega 2019, 4, 12, 15120-15133.
     DOI: 10.1021/acsomega.9b02011
   
   for metadynamics refer to:
   * S. Grimme, J. Chem. Theory Comput., 2019, 155, 2847-2862
     DOI: 10.1021/acs.jctc.9b00143
   
   for SPH calculations refer to:
   * S. Spicher and S. Grimme, J. Chem. Theory Comput., 2021, 17, 1701-1714
     DOI: 10.1021/acs.jctc.0c01306
   
   for ONIOM refer to:
   * C. Plett, A. Katbashev, S. Ehlert, S. Grimme, M. Bursch,
     Phys. Chem. Chem. Phys., 2023, 25, 17860-17868. DOI: 10.1039/D3CP02178E
   
   for DIPRO refer to:
   * J. Kohn, N. Gildemeister, S. Grimme, D. Fazzi, A. Hansen,
     J. Chem. Phys., 2023, just accepted.
   
   for PTB refer to:
   * S. Grimme, M. Mueller, A. Hansen, J. Chem. Phys., 2023, 158, 124111.
     DOI: 10.1063/5.0137838
   
   with help from (in alphabetical order)
   P. Atkinson, C. Bannwarth, F. Bohle, G. Brandenburg, E. Caldeweyher
   M. Checinski, S. Dohm, S. Ehlert, S. Ehrlich, I. Gerasimov, C. Hölzer
   A. Katbashev, J. Kohn, J. Koopman, C. Lavigne, S. Lehtola, F. März, M. Müller,
   F. Musil, H. Neugebauer, J. Pisarek, C. Plett, P. Pracht, F. Pultar,
   J. Seibert, P. Shushkov, S. Spicher, M. Stahn, M. Steiner, T. Strunk,
   J. Stückrath, T. Rose, and J. Unsleber
   
 * started run on 2026/03/16 at 14:19:04.260     
   ID    Z sym.   atoms
    1    6 C      1
    2    1 H      2-4
    3   53 I      5
    4    9 F      6

           -------------------------------------------------
          |                Calculation Setup                |
           -------------------------------------------------

          program call               : /software/orca-6.1.0-el8-x86_64/bin/otool_xtb product_optfreq_XTB.xyz --grad -c -1 -u 0 -P 8 --namespace product_optfreq --input product_optfreq_XTB.input.tmp --acc 0.200000
          hostname                   : midway3-login4.rcc.local
          calculation namespace      : product_optfreq
          coordinate file            : product_optfreq_XTB.xyz
          omp threads                :                     8


molecular fragmentation (1/2 indicates fragments):
111112
# atoms in fragment 1/2:     5     1
 fragment masses (1/2) :      141.94       19.00
CMA distance (Bohr)    :   7.953
constraining FC (au)   :  0.0500

           -------------------------------------------------
          |                 G F N 2 - x T B                 |
           -------------------------------------------------

        Reference                      10.1021/acs.jctc.8b01176
      * Hamiltonian:
        H0-scaling (s, p, d)           1.850000    2.230000    2.230000
        zeta-weighting                 0.500000
      * Dispersion:
        s8                             2.700000
        a1                             0.520000
        a2                             5.000000
        s9                             5.000000
      * Repulsion:
        kExp                           1.500000    1.000000
        rExp                           1.000000
      * Coulomb:
        alpha                          2.000000
        third order                    shell-resolved
        anisotropic                    true
        a3                             3.000000
        a5                             4.000000
        cn-shift                       1.200000
        cn-exp                         4.000000
        max-rad                        5.000000


          ...................................................
          :                      SETUP                      :
          :.................................................:
          :  # basis functions                  21          :
          :  # atomic orbitals                  20          :
          :  # shells                           10          :
          :  # electrons                        22          :
          :  max. iterations                   250          :
          :  Hamiltonian                  GFN2-xTB          :
          :  restarted?                      false          :
          :  GBSA solvation                  false          :
          :  PC potential                    false          :
          :  electronic temp.          300.0000000     K    :
          :  accuracy                    0.2000000          :
          :  -> integral cutoff          0.3198970E+02      :
          :  -> integral neglect         0.2000000E-08      :
          :  -> SCF convergence          0.2000000E-06 Eh   :
          :  -> wf. convergence          0.2000000E-04 e    :
          :  Broyden damping             0.4000000          :
          :  net charge                         -1          :
          :  unpaired electrons                  0          :
          ...................................................

 iter      E             dE          RMSdq      gap      omega  full diag
   1    -12.4433221 -0.124433E+02  0.109E+01    4.89       0.0  T
   2    -12.4640781 -0.207560E-01  0.415E+00    2.61       1.0  T
   3    -12.4694529 -0.537480E-02  0.185E+00    0.90       1.0  T
   4    -12.4692534  0.199494E-03  0.941E-01    1.50       1.0  T
   5    -12.4704948 -0.124140E-02  0.571E-01    1.04       1.0  T
   6    -12.4701818  0.312966E-03  0.567E-01    0.88       1.0  T
   7    -12.4706276 -0.445776E-03  0.689E-02    1.11       1.0  T
   8    -12.4706501 -0.225287E-04  0.449E-02    1.07       1.0  T
   9    -12.4706525 -0.235977E-05  0.183E-02    1.03       2.2  T
  10    -12.4706544 -0.192010E-05  0.374E-03    1.05      10.9  T
  11    -12.4706544 -0.263681E-08  0.131E-03    1.05      31.2  T
  12    -12.4706544 -0.250815E-08  0.982E-04    1.05      41.6  T
  13    -12.4706544 -0.592616E-08  0.144E-04    1.05     284.2  T
  14    -12.4706544 -0.942819E-10  0.136E-05    1.05    2991.6  T

   *** convergence criteria satisfied after 14 iterations ***

         #    Occupation            Energy/Eh            Energy/eV
      -------------------------------------------------------------
         1        2.0000           -0.5859139             -15.9435
       ...           ...                  ...                  ...
         5        2.0000           -0.3242120              -8.8223
         6        2.0000           -0.3155397              -8.5863
         7        2.0000           -0.2605973              -7.0912
         8        2.0000           -0.2576730              -7.0116
         9        2.0000           -0.1167539              -3.1770
        10        2.0000           -0.1140348              -3.1030
        11        2.0000           -0.1140117              -3.1024 (HOMO)
        12                         -0.0754826              -2.0540 (LUMO)
        13                          0.1808284               4.9206
        14                          0.1823722               4.9626
        15                          0.2106437               5.7319
        16                          0.2113559               5.7513
       ...                                ...                  ...
        20                          0.5047983              13.7363
      -------------------------------------------------------------
                  HL-Gap            0.0385291 Eh            1.0484 eV
             Fermi-level           -0.0944104 Eh           -2.5690 eV

 SCC (total)                   0 d,  0 h,  0 min,  0.031 sec
 SCC setup                      ...        0 min,  0.000 sec (  0.705%)
 Dispersion                     ...        0 min,  0.000 sec (  0.187%)
 classical contributions        ...        0 min,  0.000 sec (  0.095%)
 integral evaluation            ...        0 min,  0.029 sec ( 92.116%)
 iterations                     ...        0 min,  0.002 sec (  5.137%)
 molecular gradient             ...        0 min,  0.000 sec (  1.223%)
 printout                       ...        0 min,  0.000 sec (  0.486%)

         :::::::::::::::::::::::::::::::::::::::::::::::::::::
         ::                     SUMMARY                     ::
         :::::::::::::::::::::::::::::::::::::::::::::::::::::
         :: total energy             -12.416148449782 Eh    ::
         :: gradient norm              0.001780863329 Eh/a0 ::
         :: HOMO-LUMO gap              1.048429414374 eV    ::
         ::.................................................::
         :: SCC energy               -12.470654112935 Eh    ::
         :: -> isotropic ES            0.220169880304 Eh    ::
         :: -> anisotropic ES         -0.006243797329 Eh    ::
         :: -> anisotropic XC         -0.003168066131 Eh    ::
         :: -> dispersion             -0.002579230741 Eh    ::
         :: repulsion energy           0.054505663153 Eh    ::
         :: add. restraining           0.000000000000 Eh    ::
         :: total charge              -0.999999999874 e     ::
         :::::::::::::::::::::::::::::::::::::::::::::::::::::


Property printout bound to 'properties.out'

           -------------------------------------------------
          | TOTAL ENERGY              -12.416148449782 Eh   |
          | GRADIENT NORM               0.001780863329 Eh/α |
          | HOMO-LUMO GAP               1.048429414374 eV   |
           -------------------------------------------------

------------------------------------------------------------------------
 * finished run on 2026/03/16 at 14:19:04.324     
------------------------------------------------------------------------
 total:
 * wall-time:     0 d,  0 h,  0 min,  0.064 sec
 *  cpu-time:     0 d,  0 h,  0 min,  0.299 sec
 * ratio c/w:     4.701 speedup
 SCF:
 * wall-time:     0 d,  0 h,  0 min,  0.032 sec
 *  cpu-time:     0 d,  0 h,  0 min,  0.226 sec
 * ratio c/w:     7.115 speedup


-------------------------   --------------------
FINAL SINGLE POINT ENERGY       -12.416148449780
-------------------------   --------------------


-------------
DIPOLE MOMENT
-------------
                                X             Y             Z
Total Dipole Moment    :     -0.07100      -1.88700       1.12700
                        -----------------------------------------
Magnitude (a.u.)       :      2.19908
Magnitude (Debye)      :      5.58961


------------------
CARTESIAN GRADIENT
------------------

   1   C   :    0.000001620    0.000549822   -0.000413623
   2   H   :   -0.000020384   -0.000619624    0.000210714
   3   H   :    0.000215673   -0.000239728    0.000435078
   4   H   :   -0.000213291   -0.000208887    0.000433345
   5   I   :   -0.000005655   -0.000145265    0.000379842
   6   F   :    0.000022038    0.000663682   -0.001045356

Difference to translation invariance:
           :   -0.0000000000   -0.0000000000    0.0000000000

Difference to rotation invariance:
           :   -0.0000000035    0.0000000001    0.0000000000

Norm of the Cartesian gradient     ...    0.0017808633
RMS gradient                       ...    0.0004197535
MAX gradient                       ...    0.0010453556
------------------------------------------------------------------------------
                         ORCA GEOMETRY RELAXATION STEP
------------------------------------------------------------------------------

Reading the OPT-File                    .... done
Getting information on internals        .... done
Copying old internal coords+grads       .... done
Making the new internal coordinates     .... (2022 redundants) done
Validating the new internal coordinates .... (2022 redundants) done
Calculating the B-matrix                .... done
Calculating the G,G- and P matrices     .... done
Transforming gradient to internals      .... done
Projecting the internal gradient        .... done
Number of atoms                         ....   6
Number of internal coordinates          ....  15
Current Energy                          ....   -12.416148450 Eh
Current gradient norm                   ....     0.001780863 Eh/bohr
Maximum allowed component of the step   ....  0.300
Current trust radius                    ....  0.300
Evaluating the initial hessian          ....  (Almloef) done
Projecting the Hessian                  .... done
Forming the augmented Hessian           .... done
Diagonalizing the augmented Hessian     .... done
Last element of RFO vector              ....  0.999409765
Lowest eigenvalues of augmented Hessian:
 -0.000051895  0.035793962  0.099488037  0.115775288  0.204162450
Length of the computed step             ....  0.034373179
The final length of the internal step   ....  0.034373179
Converting the step to Cartesian space:
 Initial RMS(Int)=    0.0088751167
Transforming coordinates:
 Iter   0:  RMS(Cart)=    0.0085890342 RMS(Int)=    0.0088729422
done
Storing new coordinates                 .... done

                                .--------------------.
          ----------------------|Geometry convergence|-------------------------
          Item                value                   Tolerance       Converged
          ---------------------------------------------------------------------
          RMS gradient        0.0005371160            0.0001000000      NO
          MAX gradient        0.0012055602            0.0003000000      NO
          RMS step            0.0088751167            0.0020000000      NO
          MAX step            0.0336699111            0.0040000000      NO
          -------------------------------------------------------------------------
          ........................................................
          Max(Bonds)      0.0178      Max(Angles)    0.25
          Max(Dihed)        0.03      Max(Improp)    0.00
          ---------------------------------------------------------------------

The optimization has not yet converged - more geometry cycles are needed


    ---------------------------------------------------------------------------
                         Redundant Internal Coordinates
                            (Angstroem and degrees)

        Definition                    Value    dE/dq     Step     New-Value
    ----------------------------------------------------------------------------
     1. B(H   1,C   0)                1.1124  0.000669 -0.0011    1.1114   
     2. B(H   2,C   0)                1.0855  0.000305 -0.0004    1.0850   
     3. B(H   3,C   0)                1.0854  0.000281 -0.0004    1.0850   
     4. B(I   4,C   0)                2.1789  0.000282 -0.0013    2.1776   
     5. B(F   5,H   1)                1.6687  0.001206 -0.0178    1.6509   
     6. A(H   1,C   0,H   3)          110.41  0.000361   -0.07    110.33   
     7. A(H   1,C   0,H   2)          110.41  0.000367   -0.08    110.34   
     8. A(H   1,C   0,I   4)          114.94  0.000581   -0.11    114.82   
     9. A(H   2,C   0,I   4)          105.62 -0.000593    0.12    105.74   
    10. A(H   3,C   0,I   4)          105.62 -0.000593    0.12    105.74   
    11. A(H   2,C   0,H   3)          109.60 -0.000223    0.03    109.63   
    12. A(C   0,H   1,F   5)          159.37  0.000894   -0.25    159.12   
    13. D(F   5,H   1,C   0,H   3)    -60.63 -0.000101    0.03    -60.60   
    14. D(F   5,H   1,C   0,I   4)   -179.95  0.000002   -0.00   -179.95   
    15. D(F   5,H   1,C   0,H   2)     60.73  0.000102   -0.03     60.70   
    ----------------------------------------------------------------------------

Geometry step timings:
Preparation and reading OPT file:      0.000 s ( 3.533 %)
Internal coordinates            :      0.000 s ( 4.144 %)
B/P matrices and projection     :      0.000 s (11.005 %)
Hessian update/contruction      :      0.000 s (32.473 %)
Making the step                 :      0.000 s (10.054 %)
Converting the step to Cartesian:      0.000 s ( 4.008 %)
Storing new data                :      0.000 s ( 7.133 %)
Checking convergence            :      0.000 s ( 6.250 %)
Final printing                  :      0.000 s (21.128 %)
Total time                      :      0.001 s

Time for energy+gradient        :      0.073 s
Time for complete geometry iter :      0.077 s

         *************************************************************
         *                GEOMETRY OPTIMIZATION CYCLE   2            *
         *************************************************************
---------------------------------
CARTESIAN COORDINATES (ANGSTROEM)
---------------------------------
  C    -0.018105   -0.485166    0.268772
  H     0.008486    0.227419   -0.583677
  H     0.844250   -1.142926    0.237438
  H    -0.928057   -1.075376    0.238581
  I     0.018575    0.443485    2.238088
  F     0.027453    0.765500   -2.144330

----------------------------
CARTESIAN COORDINATES (A.U.)
----------------------------
  NO LB    ZA    FRAG    MASS        X           Y           Z
   0 C   6.0000    0    12.011   -0.034214   -0.916832    0.507905
   1 H   1.0000    0     1.008    0.016036    0.429760   -1.102989
   2 H   1.0000    0     1.008    1.595400   -2.159818    0.448694
   3 H   1.0000    0     1.008   -1.753774   -2.032167    0.450853
   4 I  53.0000    0   126.900    0.035102    0.838065    4.229373
   5 F   9.0000    0    18.998    0.051879    1.446586   -4.052196

      -----------------------------------------------------------      
     |                   =====================                   |     
     |                           x T B                           |     
     |                   =====================                   |     
     |                         S. Grimme                         |     
     |          Mulliken Center for Theoretical Chemistry        |     
     |                    University of Bonn                     |     
      -----------------------------------------------------------      

   * xtb version 6.7.1 (edcfbbe) compiled by 'albert@albert-system' on 2024-07-22

   xtb is free software: you can redistribute it and/or modify it under
   the terms of the GNU Lesser General Public License as published by
   the Free Software Foundation, either version 3 of the License, or
   (at your option) any later version.
   
   xtb is distributed in the hope that it will be useful,
   but WITHOUT ANY WARRANTY; without even the implied warranty of
   MERCHANTABILITY or FITNESS FOR A PARTICULAR PURPOSE.  See the
   GNU Lesser General Public License for more details.
   
   Cite this work as:
   * C. Bannwarth, E. Caldeweyher, S. Ehlert, A. Hansen, P. Pracht,
     J. Seibert, S. Spicher, S. Grimme, WIREs Comput. Mol. Sci., 2020, 11,
     e01493. DOI: 10.1002/wcms.1493
   
   for GFN2-xTB:
   * C. Bannwarth, S. Ehlert and S. Grimme., J. Chem. Theory Comput., 2019,
     15, 1652-1671. DOI: 10.1021/acs.jctc.8b01176
   for GFN1-xTB:
   * S. Grimme, C. Bannwarth, P. Shushkov, J. Chem. Theory Comput., 2017,
     13, 1989-2009. DOI: 10.1021/acs.jctc.7b00118
   for GFN0-xTB:
   * P. Pracht, E. Caldeweyher, S. Ehlert, S. Grimme, ChemRxiv, 2019, preprint.
     DOI: 10.26434/chemrxiv.8326202.v1
   for GFN-FF:
   * S. Spicher and S. Grimme, Angew. Chem. Int. Ed., 2020, 59, 15665-15673.
     DOI: 10.1002/anie.202004239
   
   for ALPB and GBSA implicit solvation:
   * S. Ehlert, M. Stahn, S. Spicher, S. Grimme, J. Chem. Theory Comput.,
     2021, 17, 4250-4261. DOI: 10.1021/acs.jctc.1c00471
   
   for ddCOSMO and CPCM-X implicit solvation:
   * M. Stahn, S. Ehlert, S. Grimme, J. Phys. Chem. A,
     2023, XX, XXXX-XXXX. DOI: 10.1021/acs.jpca.3c04382
   
   for DFT-D4:
   * E. Caldeweyher, C. Bannwarth and S. Grimme, J. Chem. Phys., 2017,
     147, 034112. DOI: 10.1063/1.4993215
   * E. Caldeweyher, S. Ehlert, A. Hansen, H. Neugebauer, S. Spicher,
     C. Bannwarth and S. Grimme, J. Chem. Phys., 2019, 150, 154122.
     DOI: 10.1063/1.5090222
   * E. Caldeweyher, J.-M. Mewes, S. Ehlert and S. Grimme, Phys. Chem. Chem. Phys.
     2020, 22, 8499-8512. DOI: 10.1039/D0CP00502A
   
   for sTDA-xTB:
   * S. Grimme and C. Bannwarth, J. Chem. Phys., 2016, 145, 054103.
     DOI: 10.1063/1.4959605
   
   in the mass-spec context:
   * V. Asgeirsson, C. Bauer and S. Grimme, Chem. Sci., 2017, 8, 4879.
     DOI: 10.1039/c7sc00601b
   * J. Koopman and S. Grimme, ACS Omega 2019, 4, 12, 15120-15133.
     DOI: 10.1021/acsomega.9b02011
   
   for metadynamics refer to:
   * S. Grimme, J. Chem. Theory Comput., 2019, 155, 2847-2862
     DOI: 10.1021/acs.jctc.9b00143
   
   for SPH calculations refer to:
   * S. Spicher and S. Grimme, J. Chem. Theory Comput., 2021, 17, 1701-1714
     DOI: 10.1021/acs.jctc.0c01306
   
   for ONIOM refer to:
   * C. Plett, A. Katbashev, S. Ehlert, S. Grimme, M. Bursch,
     Phys. Chem. Chem. Phys., 2023, 25, 17860-17868. DOI: 10.1039/D3CP02178E
   
   for DIPRO refer to:
   * J. Kohn, N. Gildemeister, S. Grimme, D. Fazzi, A. Hansen,
     J. Chem. Phys., 2023, just accepted.
   
   for PTB refer to:
   * S. Grimme, M. Mueller, A. Hansen, J. Chem. Phys., 2023, 158, 124111.
     DOI: 10.1063/5.0137838
   
   with help from (in alphabetical order)
   P. Atkinson, C. Bannwarth, F. Bohle, G. Brandenburg, E. Caldeweyher
   M. Checinski, S. Dohm, S. Ehlert, S. Ehrlich, I. Gerasimov, C. Hölzer
   A. Katbashev, J. Kohn, J. Koopman, C. Lavigne, S. Lehtola, F. März, M. Müller,
   F. Musil, H. Neugebauer, J. Pisarek, C. Plett, P. Pracht, F. Pultar,
   J. Seibert, P. Shushkov, S. Spicher, M. Stahn, M. Steiner, T. Strunk,
   J. Stückrath, T. Rose, and J. Unsleber
   
 * started run on 2026/03/16 at 14:19:04.336     
   ID    Z sym.   atoms
    1    6 C      1
    2    1 H      2-4
    3   53 I      5
    4    9 F      6

           -------------------------------------------------
          |                Calculation Setup                |
           -------------------------------------------------

          program call               : /software/orca-6.1.0-el8-x86_64/bin/otool_xtb product_optfreq_XTB.xyz --grad -c -1 -u 0 -P 8 --namespace product_optfreq --input product_optfreq_XTB.input.tmp --acc 0.200000
          hostname                   : midway3-login4.rcc.local
          calculation namespace      : product_optfreq
          coordinate file            : product_optfreq_XTB.xyz
          omp threads                :                     8


molecular fragmentation (1/2 indicates fragments):
111112
# atoms in fragment 1/2:     5     1
 fragment masses (1/2) :      141.94       19.00
CMA distance (Bohr)    :   7.916
constraining FC (au)   :  0.0500

           -------------------------------------------------
          |                 G F N 2 - x T B                 |
           -------------------------------------------------

        Reference                      10.1021/acs.jctc.8b01176
      * Hamiltonian:
        H0-scaling (s, p, d)           1.850000    2.230000    2.230000
        zeta-weighting                 0.500000
      * Dispersion:
        s8                             2.700000
        a1                             0.520000
        a2                             5.000000
        s9                             5.000000
      * Repulsion:
        kExp                           1.500000    1.000000
        rExp                           1.000000
      * Coulomb:
        alpha                          2.000000
        third order                    shell-resolved
        anisotropic                    true
        a3                             3.000000
        a5                             4.000000
        cn-shift                       1.200000
        cn-exp                         4.000000
        max-rad                        5.000000

q/qsh data taken from xtbrestart
CAMM data taken from xtbrestart

          ...................................................
          :                      SETUP                      :
          :.................................................:
          :  # basis functions                  21          :
          :  # atomic orbitals                  20          :
          :  # shells                           10          :
          :  # electrons                        22          :
          :  max. iterations                   250          :
          :  Hamiltonian                  GFN2-xTB          :
          :  restarted?                       true          :
          :  GBSA solvation                  false          :
          :  PC potential                    false          :
          :  electronic temp.          300.0000000     K    :
          :  accuracy                    0.2000000          :
          :  -> integral cutoff          0.3198970E+02      :
          :  -> integral neglect         0.2000000E-08      :
          :  -> SCF convergence          0.2000000E-06 Eh   :
          :  -> wf. convergence          0.2000000E-04 e    :
          :  Broyden damping             0.4000000          :
          :  net charge                         -1          :
          :  unpaired electrons                  0          :
          ...................................................

 iter      E             dE          RMSdq      gap      omega  full diag
   1    -12.4709610 -0.124710E+02  0.520E-02    1.08       0.0  T
   2    -12.4709646 -0.361922E-05  0.216E-02    1.11       1.9  T
   3    -12.4709649 -0.294528E-06  0.127E-02    1.10       3.2  T
   4    -12.4709649 -0.372235E-07  0.586E-03    1.10       7.0  T
   5    -12.4709650 -0.412540E-07  0.162E-03    1.10      25.2  T
   6    -12.4709650 -0.570687E-09  0.576E-04    1.10      70.9  T
   7    -12.4709650 -0.998455E-10  0.270E-04    1.10     151.4  T
   8    -12.4709650 -0.513456E-10  0.639E-05    1.10     639.2  T
   9    -12.4709650 -0.646949E-11  0.221E-05    1.10    1843.8  T

   *** convergence criteria satisfied after 9 iterations ***

         #    Occupation            Energy/Eh            Energy/eV
      -------------------------------------------------------------
         1        2.0000           -0.5852878             -15.9265
       ...           ...                  ...                  ...
         5        2.0000           -0.3235198              -8.8034
         6        2.0000           -0.3142859              -8.5522
         7        2.0000           -0.2599974              -7.0749
         8        2.0000           -0.2569685              -6.9925
         9        2.0000           -0.1173397              -3.1930
        10        2.0000           -0.1147540              -3.1226
        11        2.0000           -0.1147272              -3.1219 (HOMO)
        12                         -0.0742383              -2.0201 (LUMO)
        13                          0.1815223               4.9395
        14                          0.1830236               4.9803
        15                          0.2115062               5.7554
        16                          0.2120647               5.7706
       ...                                ...                  ...
        20                          0.5065944              13.7851
      -------------------------------------------------------------
                  HL-Gap            0.0404889 Eh            1.1018 eV
             Fermi-level           -0.0941585 Eh           -2.5622 eV

 SCC (total)                   0 d,  0 h,  0 min,  0.039 sec
 SCC setup                      ...        0 min,  0.000 sec (  0.540%)
 Dispersion                     ...        0 min,  0.000 sec (  0.150%)
 classical contributions        ...        0 min,  0.000 sec (  0.083%)
 integral evaluation            ...        0 min,  0.037 sec ( 94.347%)
 iterations                     ...        0 min,  0.001 sec (  3.275%)
 molecular gradient             ...        0 min,  0.000 sec (  1.168%)
 printout                       ...        0 min,  0.000 sec (  0.404%)

         :::::::::::::::::::::::::::::::::::::::::::::::::::::
         ::                     SUMMARY                     ::
         :::::::::::::::::::::::::::::::::::::::::::::::::::::
         :: total energy             -12.416177262391 Eh    ::
         :: gradient norm              0.002011663772 Eh/a0 ::
         :: HOMO-LUMO gap              1.101757713860 eV    ::
         ::.................................................::
         :: SCC energy               -12.470964694344 Eh    ::
         :: -> isotropic ES            0.219636652793 Eh    ::
         :: -> anisotropic ES         -0.006211428227 Eh    ::
         :: -> anisotropic XC         -0.003204163491 Eh    ::
         :: -> dispersion             -0.002587940973 Eh    ::
         :: repulsion energy           0.054787431954 Eh    ::
         :: add. restraining           0.000000000000 Eh    ::
         :: total charge              -0.999999998846 e     ::
         :::::::::::::::::::::::::::::::::::::::::::::::::::::


Property printout bound to 'properties.out'

           -------------------------------------------------
          | TOTAL ENERGY              -12.416177262391 Eh   |
          | GRADIENT NORM               0.002011663772 Eh/α |
          | HOMO-LUMO GAP               1.101757713860 eV   |
           -------------------------------------------------

------------------------------------------------------------------------
 * finished run on 2026/03/16 at 14:19:04.412     
------------------------------------------------------------------------
 total:
 * wall-time:     0 d,  0 h,  0 min,  0.075 sec
 *  cpu-time:     0 d,  0 h,  0 min,  0.343 sec
 * ratio c/w:     4.548 speedup
 SCF:
 * wall-time:     0 d,  0 h,  0 min,  0.039 sec
 *  cpu-time:     0 d,  0 h,  0 min,  0.275 sec
 * ratio c/w:     7.079 speedup


-------------------------   --------------------
FINAL SINGLE POINT ENERGY       -12.416177262390
-------------------------   --------------------


-------------
DIPOLE MOMENT
-------------
                                X             Y             Z
Total Dipole Moment    :     -0.07000      -1.87200       1.09800
                        -----------------------------------------
Magnitude (a.u.)       :      2.17138
Magnitude (Debye)      :      5.51921


------------------
CARTESIAN GRADIENT
------------------

   1   C   :    0.000027374    0.000850061   -0.001254024
   2   H   :   -0.000034655   -0.001041606    0.000712918
   3   H   :   -0.000000474    0.000026136    0.000227758
   4   H   :    0.000005063    0.000027353    0.000226179
   5   I   :   -0.000002346   -0.000057491    0.000101042
   6   F   :    0.000005038    0.000195547   -0.000013874

Difference to translation invariance:
           :    0.0000000000   -0.0000000000   -0.0000000000

Difference to rotation invariance:
           :    0.0000000257   -0.0000000011    0.0000000000

Norm of the Cartesian gradient     ...    0.0020116638
RMS gradient                       ...    0.0004741537
MAX gradient                       ...    0.0012540239
------------------------------------------------------------------------------
                         ORCA GEOMETRY RELAXATION STEP
------------------------------------------------------------------------------

Reading the OPT-File                    .... done
Getting information on internals        .... done
Copying old internal coords+grads       .... done
Making the new internal coordinates     .... (2022 redundants) done
Validating the new internal coordinates .... (2022 redundants) done
Calculating the B-matrix                .... done
Calculating the G,G- and P matrices     .... done
Transforming gradient to internals      .... done
Projecting the internal gradient        .... done
Number of atoms                         ....   6
Number of internal coordinates          ....  15
Current Energy                          ....   -12.416177262 Eh
Current gradient norm                   ....     0.002011664 Eh/bohr
Maximum allowed component of the step   ....  0.300
Current trust radius                    ....  0.300
Updating the Hessian (BFGS)             .... done
Forming the augmented Hessian           .... done
Diagonalizing the augmented Hessian     .... done
Last element of RFO vector              ....  0.999959981
Lowest eigenvalues of augmented Hessian:
 -0.000007537  0.031135128  0.099487992  0.114980878  0.188996277
Length of the computed step             ....  0.008946665
The final length of the internal step   ....  0.008946665
Converting the step to Cartesian space:
 Initial RMS(Int)=    0.0023100190
Transforming coordinates:
 Iter   0:  RMS(Cart)=    0.0021322330 RMS(Int)=    0.0023083900
done
Storing new coordinates                 .... done
The predicted energy change is          ....    -0.000003769
Previously predicted energy change      ....    -0.000025978
Actually observed energy change         ....    -0.000028813
Ratio of predicted to observed change   ....     1.109115408
New trust radius                        ....     0.450000000

                                .--------------------.
          ----------------------|Geometry convergence|-------------------------
          Item                value                   Tolerance       Converged
          ---------------------------------------------------------------------
          Energy change      -0.0000288126            0.0000050000      NO
          RMS gradient        0.0003406518            0.0001000000      NO
          MAX gradient        0.0010793639            0.0003000000      NO
          RMS step            0.0023100190            0.0020000000      NO
          MAX step            0.0069208712            0.0040000000      NO
          -------------------------------------------------------------------------
          ........................................................
          Max(Bonds)      0.0037      Max(Angles)    0.21
          Max(Dihed)        0.04      Max(Improp)    0.00
          ---------------------------------------------------------------------

The optimization has not yet converged - more geometry cycles are needed


    ---------------------------------------------------------------------------
                         Redundant Internal Coordinates
                            (Angstroem and degrees)

        Definition                    Value    dE/dq     Step     New-Value
    ----------------------------------------------------------------------------
     1. B(H   1,C   0)                1.1114 -0.001079  0.0018    1.1131   
     2. B(H   2,C   0)                1.0850 -0.000023 -0.0000    1.0850   
     3. B(H   3,C   0)                1.0850 -0.000025 -0.0000    1.0850   
     4. B(I   4,C   0)                2.1776  0.000067 -0.0005    2.1771   
     5. B(F   5,H   1)                1.6509  0.000077 -0.0037    1.6473   
     6. A(H   1,C   0,H   3)          110.33  0.000195   -0.06    110.28   
     7. A(H   1,C   0,H   2)          110.34  0.000197   -0.06    110.28   
     8. A(H   1,C   0,I   4)          114.82  0.000120   -0.04    114.79   
     9. A(H   2,C   0,I   4)          105.74 -0.000257    0.08    105.82   
    10. A(H   3,C   0,I   4)          105.74 -0.000257    0.08    105.82   
    11. A(H   2,C   0,H   3)          109.63 -0.000036    0.00    109.63   
    12. A(C   0,H   1,F   5)          159.12  0.000563   -0.21    158.91   
    13. D(F   5,H   1,C   0,H   3)    -60.60 -0.000106    0.04    -60.56   
    14. D(F   5,H   1,C   0,I   4)   -179.95  0.000001   -0.00   -179.95   
    15. D(F   5,H   1,C   0,H   2)     60.70  0.000107   -0.04     60.66   
    ----------------------------------------------------------------------------

Geometry step timings:
Preparation and reading OPT file:      0.000 s ( 2.994 %)
Internal coordinates            :      0.000 s ( 4.641 %)
B/P matrices and projection     :      0.000 s (12.126 %)
Hessian update/contruction      :      0.000 s (28.668 %)
Making the step                 :      0.000 s ( 8.159 %)
Converting the step to Cartesian:      0.000 s ( 3.144 %)
Storing new data                :      0.000 s ( 7.111 %)
Checking convergence            :      0.000 s ( 8.982 %)
Final printing                  :      0.000 s (24.027 %)
Total time                      :      0.001 s

Time for energy+gradient        :      0.085 s
Time for complete geometry iter :      0.088 s

         *************************************************************
         *                GEOMETRY OPTIMIZATION CYCLE   3            *
         *************************************************************
---------------------------------
CARTESIAN COORDINATES (ANGSTROEM)
---------------------------------
  C    -0.018093   -0.484825    0.269289
  H     0.008573    0.229724   -0.583812
  H     0.844259   -1.142460    0.236109
  H    -0.928039   -1.074922    0.237260
  I     0.018557    0.442951    2.238453
  F     0.027344    0.762467   -2.142427

----------------------------
CARTESIAN COORDINATES (A.U.)
----------------------------
  NO LB    ZA    FRAG    MASS        X           Y           Z
   0 C   6.0000    0    12.011   -0.034192   -0.916186    0.508883
   1 H   1.0000    0     1.008    0.016202    0.434115   -1.103244
   2 H   1.0000    0     1.008    1.595418   -2.158936    0.446182
   3 H   1.0000    0     1.008   -1.753739   -2.031307    0.448356
   4 I  53.0000    0   126.900    0.035068    0.837056    4.230063
   5 F   9.0000    0    18.998    0.051672    1.440853   -4.048600

      -----------------------------------------------------------      
     |                   =====================                   |     
     |                           x T B                           |     
     |                   =====================                   |     
     |                         S. Grimme                         |     
     |          Mulliken Center for Theoretical Chemistry        |     
     |                    University of Bonn                     |     
      -----------------------------------------------------------      

   * xtb version 6.7.1 (edcfbbe) compiled by 'albert@albert-system' on 2024-07-22

   xtb is free software: you can redistribute it and/or modify it under
   the terms of the GNU Lesser General Public License as published by
   the Free Software Foundation, either version 3 of the License, or
   (at your option) any later version.
   
   xtb is distributed in the hope that it will be useful,
   but WITHOUT ANY WARRANTY; without even the implied warranty of
   MERCHANTABILITY or FITNESS FOR A PARTICULAR PURPOSE.  See the
   GNU Lesser General Public License for more details.
   
   Cite this work as:
   * C. Bannwarth, E. Caldeweyher, S. Ehlert, A. Hansen, P. Pracht,
     J. Seibert, S. Spicher, S. Grimme, WIREs Comput. Mol. Sci., 2020, 11,
     e01493. DOI: 10.1002/wcms.1493
   
   for GFN2-xTB:
   * C. Bannwarth, S. Ehlert and S. Grimme., J. Chem. Theory Comput., 2019,
     15, 1652-1671. DOI: 10.1021/acs.jctc.8b01176
   for GFN1-xTB:
   * S. Grimme, C. Bannwarth, P. Shushkov, J. Chem. Theory Comput., 2017,
     13, 1989-2009. DOI: 10.1021/acs.jctc.7b00118
   for GFN0-xTB:
   * P. Pracht, E. Caldeweyher, S. Ehlert, S. Grimme, ChemRxiv, 2019, preprint.
     DOI: 10.26434/chemrxiv.8326202.v1
   for GFN-FF:
   * S. Spicher and S. Grimme, Angew. Chem. Int. Ed., 2020, 59, 15665-15673.
     DOI: 10.1002/anie.202004239
   
   for ALPB and GBSA implicit solvation:
   * S. Ehlert, M. Stahn, S. Spicher, S. Grimme, J. Chem. Theory Comput.,
     2021, 17, 4250-4261. DOI: 10.1021/acs.jctc.1c00471
   
   for ddCOSMO and CPCM-X implicit solvation:
   * M. Stahn, S. Ehlert, S. Grimme, J. Phys. Chem. A,
     2023, XX, XXXX-XXXX. DOI: 10.1021/acs.jpca.3c04382
   
   for DFT-D4:
   * E. Caldeweyher, C. Bannwarth and S. Grimme, J. Chem. Phys., 2017,
     147, 034112. DOI: 10.1063/1.4993215
   * E. Caldeweyher, S. Ehlert, A. Hansen, H. Neugebauer, S. Spicher,
     C. Bannwarth and S. Grimme, J. Chem. Phys., 2019, 150, 154122.
     DOI: 10.1063/1.5090222
   * E. Caldeweyher, J.-M. Mewes, S. Ehlert and S. Grimme, Phys. Chem. Chem. Phys.
     2020, 22, 8499-8512. DOI: 10.1039/D0CP00502A
   
   for sTDA-xTB:
   * S. Grimme and C. Bannwarth, J. Chem. Phys., 2016, 145, 054103.
     DOI: 10.1063/1.4959605
   
   in the mass-spec context:
   * V. Asgeirsson, C. Bauer and S. Grimme, Chem. Sci., 2017, 8, 4879.
     DOI: 10.1039/c7sc00601b
   * J. Koopman and S. Grimme, ACS Omega 2019, 4, 12, 15120-15133.
     DOI: 10.1021/acsomega.9b02011
   
   for metadynamics refer to:
   * S. Grimme, J. Chem. Theory Comput., 2019, 155, 2847-2862
     DOI: 10.1021/acs.jctc.9b00143
   
   for SPH calculations refer to:
   * S. Spicher and S. Grimme, J. Chem. Theory Comput., 2021, 17, 1701-1714
     DOI: 10.1021/acs.jctc.0c01306
   
   for ONIOM refer to:
   * C. Plett, A. Katbashev, S. Ehlert, S. Grimme, M. Bursch,
     Phys. Chem. Chem. Phys., 2023, 25, 17860-17868. DOI: 10.1039/D3CP02178E
   
   for DIPRO refer to:
   * J. Kohn, N. Gildemeister, S. Grimme, D. Fazzi, A. Hansen,
     J. Chem. Phys., 2023, just accepted.
   
   for PTB refer to:
   * S. Grimme, M. Mueller, A. Hansen, J. Chem. Phys., 2023, 158, 124111.
     DOI: 10.1063/5.0137838
   
   with help from (in alphabetical order)
   P. Atkinson, C. Bannwarth, F. Bohle, G. Brandenburg, E. Caldeweyher
   M. Checinski, S. Dohm, S. Ehlert, S. Ehrlich, I. Gerasimov, C. Hölzer
   A. Katbashev, J. Kohn, J. Koopman, C. Lavigne, S. Lehtola, F. März, M. Müller,
   F. Musil, H. Neugebauer, J. Pisarek, C. Plett, P. Pracht, F. Pultar,
   J. Seibert, P. Shushkov, S. Spicher, M. Stahn, M. Steiner, T. Strunk,
   J. Stückrath, T. Rose, and J. Unsleber
   
 * started run on 2026/03/16 at 14:19:04.424     
   ID    Z sym.   atoms
    1    6 C      1
    2    1 H      2-4
    3   53 I      5
    4    9 F      6

           -------------------------------------------------
          |                Calculation Setup                |
           -------------------------------------------------

          program call               : /software/orca-6.1.0-el8-x86_64/bin/otool_xtb product_optfreq_XTB.xyz --grad -c -1 -u 0 -P 8 --namespace product_optfreq --input product_optfreq_XTB.input.tmp --acc 0.200000
          hostname                   : midway3-login4.rcc.local
          calculation namespace      : product_optfreq
          coordinate file            : product_optfreq_XTB.xyz
          omp threads                :                     8


molecular fragmentation (1/2 indicates fragments):
111112
# atoms in fragment 1/2:     5     1
 fragment masses (1/2) :      141.94       19.00
CMA distance (Bohr)    :   7.912
constraining FC (au)   :  0.0500

           -------------------------------------------------
          |                 G F N 2 - x T B                 |
           -------------------------------------------------

        Reference                      10.1021/acs.jctc.8b01176
      * Hamiltonian:
        H0-scaling (s, p, d)           1.850000    2.230000    2.230000
        zeta-weighting                 0.500000
      * Dispersion:
        s8                             2.700000
        a1                             0.520000
        a2                             5.000000
        s9                             5.000000
      * Repulsion:
        kExp                           1.500000    1.000000
        rExp                           1.000000
      * Coulomb:
        alpha                          2.000000
        third order                    shell-resolved
        anisotropic                    true
        a3                             3.000000
        a5                             4.000000
        cn-shift                       1.200000
        cn-exp                         4.000000
        max-rad                        5.000000

q/qsh data taken from xtbrestart
CAMM data taken from xtbrestart

          ...................................................
          :                      SETUP                      :
          :.................................................:
          :  # basis functions                  21          :
          :  # atomic orbitals                  20          :
          :  # shells                           10          :
          :  # electrons                        22          :
          :  max. iterations                   250          :
          :  Hamiltonian                  GFN2-xTB          :
          :  restarted?                       true          :
          :  GBSA solvation                  false          :
          :  PC potential                    false          :
          :  electronic temp.          300.0000000     K    :
          :  accuracy                    0.2000000          :
          :  -> integral cutoff          0.3198970E+02      :
          :  -> integral neglect         0.2000000E-08      :
          :  -> SCF convergence          0.2000000E-06 Eh   :
          :  -> wf. convergence          0.2000000E-04 e    :
          :  Broyden damping             0.4000000          :
          :  net charge                         -1          :
          :  unpaired electrons                  0          :
          ...................................................

 iter      E             dE          RMSdq      gap      omega  full diag
   1    -12.4708015 -0.124708E+02  0.178E-02    1.11       0.0  T
   2    -12.4708018 -0.349512E-06  0.867E-03    1.12       4.7  T
   3    -12.4708018 -0.203092E-07  0.389E-03    1.11      10.5  T
   4    -12.4708019 -0.243518E-07  0.251E-03    1.12      16.3  T
   5    -12.4708019 -0.172739E-08  0.840E-04    1.12      48.6  T
   6    -12.4708019 -0.271095E-09  0.378E-04    1.12     108.0  T
   7    -12.4708019 -0.604174E-10  0.151E-04    1.12     269.9  T
   8    -12.4708019 -0.403055E-11  0.197E-05    1.12    2070.1  T

   *** convergence criteria satisfied after 8 iterations ***

         #    Occupation            Energy/Eh            Energy/eV
      -------------------------------------------------------------
         1        2.0000           -0.5851649             -15.9231
       ...           ...                  ...                  ...
         5        2.0000           -0.3233880              -8.7998
         6        2.0000           -0.3138657              -8.5407
         7        2.0000           -0.2598796              -7.0717
         8        2.0000           -0.2568047              -6.9880
         9        2.0000           -0.1175339              -3.1983
        10        2.0000           -0.1149570              -3.1281
        11        2.0000           -0.1149294              -3.1274 (HOMO)
        12                         -0.0739222              -2.0115 (LUMO)
        13                          0.1816657               4.9434
        14                          0.1831273               4.9831
        15                          0.2116891               5.7604
        16                          0.2122008               5.7743
       ...                                ...                  ...
        20                          0.5071657              13.8007
      -------------------------------------------------------------
                  HL-Gap            0.0410072 Eh            1.1159 eV
             Fermi-level           -0.0941017 Eh           -2.5606 eV

 SCC (total)                   0 d,  0 h,  0 min,  0.198 sec
 SCC setup                      ...        0 min,  0.000 sec (  0.105%)
 Dispersion                     ...        0 min,  0.000 sec (  0.032%)
 classical contributions        ...        0 min,  0.000 sec (  0.015%)
 integral evaluation            ...        0 min,  0.131 sec ( 66.387%)
 iterations                     ...        0 min,  0.001 sec (  0.595%)
 molecular gradient             ...        0 min,  0.000 sec (  0.226%)
 printout                       ...        0 min,  0.000 sec (  0.082%)

         :::::::::::::::::::::::::::::::::::::::::::::::::::::
         ::                     SUMMARY                     ::
         :::::::::::::::::::::::::::::::::::::::::::::::::::::
         :: total energy             -12.416182675275 Eh    ::
         :: gradient norm              0.000893776411 Eh/a0 ::
         :: HOMO-LUMO gap              1.115862514652 eV    ::
         ::.................................................::
         :: SCC energy               -12.470801579964 Eh    ::
         :: -> isotropic ES            0.219451815347 Eh    ::
         :: -> anisotropic ES         -0.006176389745 Eh    ::
         :: -> anisotropic XC         -0.003197102412 Eh    ::
         :: -> dispersion             -0.002589111889 Eh    ::
         :: repulsion energy           0.054618904689 Eh    ::
         :: add. restraining           0.000000000000 Eh    ::
         :: total charge              -0.999999999122 e     ::
         :::::::::::::::::::::::::::::::::::::::::::::::::::::


Property printout bound to 'properties.out'

           -------------------------------------------------
          | TOTAL ENERGY              -12.416182675275 Eh   |
          | GRADIENT NORM               0.000893776411 Eh/α |
          | HOMO-LUMO GAP               1.115862514652 eV   |
           -------------------------------------------------

------------------------------------------------------------------------
 * finished run on 2026/03/16 at 14:19:04.650     
------------------------------------------------------------------------
 total:
 * wall-time:     0 d,  0 h,  0 min,  0.226 sec
 *  cpu-time:     0 d,  0 h,  0 min,  0.737 sec
 * ratio c/w:     3.266 speedup
 SCF:
 * wall-time:     0 d,  0 h,  0 min,  0.198 sec
 *  cpu-time:     0 d,  0 h,  0 min,  0.662 sec
 * ratio c/w:     3.345 speedup


-------------------------   --------------------
FINAL SINGLE POINT ENERGY       -12.416182675280
-------------------------   --------------------


-------------
DIPOLE MOMENT
-------------
                                X             Y             Z
Total Dipole Moment    :     -0.07000      -1.86600       1.09300
                        -----------------------------------------
Magnitude (a.u.)       :      2.16368
Magnitude (Debye)      :      5.49963


------------------
CARTESIAN GRADIENT
------------------

   1   C   :    0.000012312    0.000348342   -0.000584174
   2   H   :   -0.000013581   -0.000496958    0.000182147
   3   H   :   -0.000011897    0.000025995    0.000121302
   4   H   :    0.000011867    0.000022953    0.000120156
   5   I   :   -0.000000348   -0.000004475    0.000054230
   6   F   :    0.000001646    0.000104143    0.000106340

Difference to translation invariance:
           :   -0.0000000000   -0.0000000000    0.0000000000

Difference to rotation invariance:
           :    0.0000000832   -0.0000000035    0.0000000000

Norm of the Cartesian gradient     ...    0.0008937764
RMS gradient                       ...    0.0002106651
MAX gradient                       ...    0.0005841742
------------------------------------------------------------------------------
                         ORCA GEOMETRY RELAXATION STEP
------------------------------------------------------------------------------

Reading the OPT-File                    .... done
Getting information on internals        .... done
Copying old internal coords+grads       .... done
Making the new internal coordinates     .... (2022 redundants) done
Validating the new internal coordinates .... (2022 redundants) done
Calculating the B-matrix                .... done
Calculating the G,G- and P matrices     .... done
Transforming gradient to internals      .... done
Projecting the internal gradient        .... done
Number of atoms                         ....   6
Number of internal coordinates          ....  15
Current Energy                          ....   -12.416182675 Eh
Current gradient norm                   ....     0.000893776 Eh/bohr
Maximum allowed component of the step   ....  0.300
Current trust radius                    ....  0.450
Updating the Hessian (BFGS)             .... done
Forming the augmented Hessian           .... done
Diagonalizing the augmented Hessian     .... done
Last element of RFO vector              ....  0.999979494
Lowest eigenvalues of augmented Hessian:
 -0.000003874  0.032992804  0.099478627  0.103105686  0.126798978
Length of the computed step             ....  0.006404194
The final length of the internal step   ....  0.006404194
Converting the step to Cartesian space:
 Initial RMS(Int)=    0.0016535558
Transforming coordinates:
 Iter   0:  RMS(Cart)=    0.0023045606 RMS(Int)=    0.0016524893
done
Storing new coordinates                 .... done
The predicted energy change is          ....    -0.000001937
Previously predicted energy change      ....    -0.000003769
Actually observed energy change         ....    -0.000005413
Ratio of predicted to observed change   ....     1.436295888
New trust radius                        ....     0.450000000

                                .--------------------.
          ----------------------|Geometry convergence|-------------------------
          Item                value                   Tolerance       Converged
          ---------------------------------------------------------------------
          Energy change      -0.0000054129            0.0000050000      NO
          RMS gradient        0.0001765980            0.0001000000      NO
          MAX gradient        0.0004735403            0.0003000000      NO
          RMS step            0.0016535558            0.0020000000      YES
          MAX step            0.0046881377            0.0040000000      NO
          -------------------------------------------------------------------------
          ........................................................
          Max(Bonds)      0.0015      Max(Angles)    0.27
          Max(Dihed)        0.04      Max(Improp)    0.00
          ---------------------------------------------------------------------

The optimization has not yet converged - more geometry cycles are needed


    ---------------------------------------------------------------------------
                         Redundant Internal Coordinates
                            (Angstroem and degrees)

        Definition                    Value    dE/dq     Step     New-Value
    ----------------------------------------------------------------------------
     1. B(H   1,C   0)                1.1131 -0.000474  0.0015    1.1146   
     2. B(H   2,C   0)                1.0850 -0.000029  0.0000    1.0850   
     3. B(H   3,C   0)                1.0850 -0.000026  0.0000    1.0850   
     4. B(I   4,C   0)                2.1771  0.000047 -0.0006    2.1765   
     5. B(F   5,H   1)                1.6473 -0.000067 -0.0009    1.6464   
     6. A(H   1,C   0,H   3)          110.28  0.000117   -0.06    110.22   
     7. A(H   1,C   0,H   2)          110.28  0.000118   -0.06    110.22   
     8. A(H   1,C   0,I   4)          114.79 -0.000010   -0.01    114.78   
     9. A(H   2,C   0,I   4)          105.82 -0.000116    0.07    105.89   
    10. A(H   3,C   0,I   4)          105.82 -0.000115    0.07    105.89   
    11. A(H   2,C   0,H   3)          109.63 -0.000011   -0.00    109.63   
    12. A(C   0,H   1,F   5)          158.91  0.000414   -0.27    158.64   
    13. D(F   5,H   1,C   0,H   3)    -60.56 -0.000069    0.04    -60.52   
    14. D(F   5,H   1,C   0,I   4)   -179.95  0.000001   -0.00   -179.95   
    15. D(F   5,H   1,C   0,H   2)     60.66  0.000071   -0.04     60.62   
    ----------------------------------------------------------------------------

Geometry step timings:
Preparation and reading OPT file:      0.000 s ( 2.915 %)
Internal coordinates            :      0.000 s ( 4.939 %)
B/P matrices and projection     :      0.000 s (11.579 %)
Hessian update/contruction      :      0.000 s (27.449 %)
Making the step                 :      0.000 s ( 8.664 %)
Converting the step to Cartesian:      0.000 s ( 2.996 %)
Storing new data                :      0.000 s ( 7.126 %)
Checking convergence            :      0.000 s ( 8.826 %)
Final printing                  :      0.000 s (25.425 %)
Total time                      :      0.001 s

Time for energy+gradient        :      0.235 s
Time for complete geometry iter :      0.237 s

         *************************************************************
         *                GEOMETRY OPTIMIZATION CYCLE   4            *
         *************************************************************
---------------------------------
CARTESIAN COORDINATES (ANGSTROEM)
---------------------------------
  C    -0.018070   -0.484165    0.270217
  H     0.008671    0.232318   -0.583215
  H     0.844284   -1.141718    0.234923
  H    -0.928009   -1.074185    0.236082
  I     0.018501    0.441442    2.239724
  F     0.027225    0.759243   -2.142857

----------------------------
CARTESIAN COORDINATES (A.U.)
----------------------------
  NO LB    ZA    FRAG    MASS        X           Y           Z
   0 C   6.0000    0    12.011   -0.034148   -0.914939    0.510635
   1 H   1.0000    0     1.008    0.016385    0.439018   -1.102117
   2 H   1.0000    0     1.008    1.595465   -2.157535    0.443941
   3 H   1.0000    0     1.008   -1.753684   -2.029915    0.446130
   4 I  53.0000    0   126.900    0.034963    0.834205    4.232465
   5 F   9.0000    0    18.998    0.051448    1.434760   -4.049414

      -----------------------------------------------------------      
     |                   =====================                   |     
     |                           x T B                           |     
     |                   =====================                   |     
     |                         S. Grimme                         |     
     |          Mulliken Center for Theoretical Chemistry        |     
     |                    University of Bonn                     |     
[...]
             Fermi-level           -0.0940478 Eh           -2.5592 eV

 SCC (total)                   0 d,  0 h,  0 min,  0.053 sec
 SCC setup                      ...        0 min,  0.000 sec (  0.338%)
 Dispersion                     ...        0 min,  0.000 sec (  0.106%)
 classical contributions        ...        0 min,  0.000 sec (  0.049%)
 integral evaluation            ...        0 min,  0.051 sec ( 96.981%)
 iterations                     ...        0 min,  0.001 sec (  1.505%)
 molecular gradient             ...        0 min,  0.000 sec (  0.743%)
 printout                       ...        0 min,  0.000 sec (  0.247%)

         :::::::::::::::::::::::::::::::::::::::::::::::::::::
         ::                     SUMMARY                     ::
         :::::::::::::::::::::::::::::::::::::::::::::::::::::
         :: total energy             -12.416185883459 Eh    ::
         :: gradient norm              0.000549182323 Eh/a0 ::
         :: HOMO-LUMO gap              1.123342815350 eV    ::
         ::.................................................::
         :: SCC energy               -12.470648032621 Eh    ::
         :: -> isotropic ES            0.219372033323 Eh    ::
         :: -> anisotropic ES         -0.006158351300 Eh    ::
         :: -> anisotropic XC         -0.003193500678 Eh    ::
         :: -> dispersion             -0.002588495519 Eh    ::
         :: repulsion energy           0.054462149162 Eh    ::
         :: add. restraining           0.000000000000 Eh    ::
         :: total charge              -0.999999999241 e     ::
         :::::::::::::::::::::::::::::::::::::::::::::::::::::

           ------------------------------------------------- 
          |                Numerical Hessian                |
           ------------------------------------------------- 
step length          :   0.00500
SCC accuracy         :   0.30000
Hessian scale factor :   1.00000
frozen atoms in %    :   0.00000    0
RMS gradient         :   0.00055
estimated CPU  time      0.00 min
estimated wall time      0.00 min

writing file <hessian>.

 projected vibrational frequencies (cm⁻¹)
eigval :       -0.00    -0.00    -0.00     0.00     0.00     0.00
eigval :       79.37   261.72   302.14   522.48   884.11   961.02
eigval :     1302.67  1402.09  1441.32  2511.97  3032.18  3039.20

Property printout bound to 'properties.out'
Molecule has the following symmetry elements: (sigma) 
It seems to be the Cs point group

           -------------------------------------------------
          | TOTAL ENERGY              -12.416185883459 Eh   |
          | TOTAL ENTHALPY            -12.374554501466 Eh   |
          | TOTAL FREE ENERGY         -12.410211577773 Eh   |
          | GRADIENT NORM               0.000549183831 Eh/α |
          | HOMO-LUMO GAP               1.123343116177 eV   |
           -------------------------------------------------

------------------------------------------------------------------------
 * finished run on 2026/03/16 at 14:19:04.863     
------------------------------------------------------------------------
 total:
 * wall-time:     0 d,  0 h,  0 min,  0.076 sec
 *  cpu-time:     0 d,  0 h,  0 min,  0.257 sec
 * ratio c/w:     3.391 speedup
 SCF:
 * wall-time:     0 d,  0 h,  0 min,  0.053 sec
 *  cpu-time:     0 d,  0 h,  0 min,  0.117 sec
 * ratio c/w:     2.220 speedup
 analytical hessian:
 * wall-time:     0 d,  0 h,  0 min,  0.010 sec
 *  cpu-time:     0 d,  0 h,  0 min,  0.078 sec
 * ratio c/w:     7.876 speedup


-------------------------   --------------------
FINAL SINGLE POINT ENERGY       -12.416185883460
-------------------------   --------------------


-------------
DIPOLE MOMENT
-------------
                                X             Y             Z
Total Dipole Moment    :     -0.07000      -1.85300       1.09200
                        -----------------------------------------
Magnitude (a.u.)       :      2.15197
Magnitude (Debye)      :      5.46987


-----------------------
VIBRATIONAL FREQUENCIES
-----------------------

Scaling factor for frequencies =  1.000000000  (already applied!)

     0:       0.00 cm**-1
     1:       0.00 cm**-1
     2:       0.00 cm**-1
     3:       0.00 cm**-1
     4:       0.00 cm**-1
     5:       0.00 cm**-1
     6:      79.37 cm**-1
     7:     261.72 cm**-1
     8:     302.13 cm**-1
     9:     522.48 cm**-1
    10:     884.08 cm**-1
    11:     960.99 cm**-1
    12:    1302.64 cm**-1
    13:    1402.05 cm**-1
    14:    1441.28 cm**-1
    15:    2511.90 cm**-1
    16:    3032.09 cm**-1
    17:    3039.12 cm**-1


------------
NORMAL MODES
------------

These modes are the Cartesian displacements weighted by the diagonal matrix
M(i,i)=1/sqrt(m[i]) where m[i] is the mass of the displaced atom
Thus, these vectors are normalized but *not* orthogonal

                  0          1          2          3          4          5    
      0       0.000000   0.000000   0.000000   0.000000   0.000000   0.000000
      1       0.000000   0.000000   0.000000   0.000000   0.000000   0.000000
      2       0.000000   0.000000   0.000000   0.000000   0.000000   0.000000
      3       0.000000   0.000000   0.000000   0.000000   0.000000   0.000000
      4       0.000000   0.000000   0.000000   0.000000   0.000000   0.000000
      5       0.000000   0.000000   0.000000   0.000000   0.000000   0.000000
      6       0.000000   0.000000   0.000000   0.000000   0.000000   0.000000
      7       0.000000   0.000000   0.000000   0.000000   0.000000   0.000000
      8       0.000000   0.000000   0.000000   0.000000   0.000000   0.000000
      9       0.000000   0.000000   0.000000   0.000000   0.000000   0.000000
     10       0.000000   0.000000   0.000000   0.000000   0.000000   0.000000
     11       0.000000   0.000000   0.000000   0.000000   0.000000   0.000000
     12       0.000000   0.000000   0.000000   0.000000   0.000000   0.000000
     13       0.000000   0.000000   0.000000   0.000000   0.000000   0.000000
     14       0.000000   0.000000   0.000000   0.000000   0.000000   0.000000
     15       0.000000   0.000000   0.000000   0.000000   0.000000   0.000000
     16       0.000000   0.000000   0.000000   0.000000   0.000000   0.000000
     17       0.000000   0.000000   0.000000   0.000000   0.000000   0.000000
                  6          7          8          9         10         11    
      0       0.014245   0.014328  -0.104443   0.008076   0.003495  -0.097071
      1       0.378714   0.386896   0.003735   0.207475   0.088633   0.003782
      2      -0.152199  -0.104586  -0.000038   0.542357  -0.028116  -0.000029
      3       0.017752   0.017480  -0.572260   0.005077  -0.020405   0.348596
      4       0.467995   0.501784   0.021422   0.136685  -0.514401  -0.013829
      5      -0.044001  -0.014975   0.000059   0.476804  -0.630329  -0.000875
      6       0.011547   0.008174   0.239034  -0.009981  -0.043497   0.157980
      7       0.382739   0.380763   0.466950   0.181370  -0.020608   0.288487
      8      -0.259813  -0.246051  -0.232696   0.413324   0.402248   0.571592
      9       0.017042   0.021315   0.203092   0.025009   0.041950   0.134879
     10       0.382615   0.377923  -0.484330   0.178406  -0.022992  -0.299700
     11      -0.259786  -0.244752   0.232543   0.413650   0.403178  -0.570880
     12      -0.000856  -0.000679   0.004410  -0.001049  -0.000173   0.004645
     13      -0.024129  -0.017370  -0.000152  -0.026865  -0.004401  -0.000180
     14       0.078066  -0.041655   0.000033  -0.050552   0.000762   0.000001
     15      -0.005749  -0.007015   0.043477   0.000832   0.000111  -0.003692
     16      -0.143696  -0.195458  -0.001562   0.021938   0.002969   0.000139
     17      -0.395323   0.371198  -0.000192  -0.074400   0.003395   0.000020
                 12         13         14         15         16         17    
      0      -0.001199   0.062877   0.002788  -0.002029  -0.001938  -0.092092
      1      -0.029229  -0.002419   0.073395  -0.054006  -0.062601   0.003191
      2      -0.104856  -0.000039  -0.015984   0.057548  -0.000176   0.000059
      3       0.016497  -0.779976   0.006887   0.026809   0.000526  -0.038694
      4       0.420820   0.030006   0.178808   0.712458   0.009412   0.001500
      5       0.373113   0.000693   0.122073  -0.692743  -0.033253  -0.000118
      6       0.083215  -0.078702  -0.417004   0.033850  -0.586863   0.548969
      7       0.078446  -0.157090  -0.546437  -0.039059   0.396854  -0.434036
      8       0.567866   0.403245   0.035156   0.010391   0.019144  -0.013862
      9      -0.076227  -0.067125   0.374247  -0.036668   0.609700   0.586690
     10       0.084444   0.162724  -0.576582  -0.036353   0.347202   0.394565
     11       0.568395  -0.402865   0.034623   0.010438   0.018217   0.013302
     12      -0.000063   0.000852   0.000022   0.000006  -0.000002  -0.000028
     13      -0.001609  -0.000033   0.000575   0.000155  -0.000056   0.000001
     14      -0.001981  -0.000003   0.000135   0.000196  -0.000051  -0.000000
     15      -0.000066   0.003680  -0.000006  -0.000031  -0.000002   0.000206
     16      -0.001743  -0.000139  -0.000144  -0.000695  -0.000024  -0.000008
     17      -0.000560  -0.000011  -0.000974  -0.002040   0.000235   0.000001


The first frequency considered to be a vibration is 6
The total number of vibrations considered is 12


--------------------------
THERMOCHEMISTRY AT 298.15K
--------------------------

Temperature         ...   298.15 K
Pressure            ...     1.00 atm
Total Mass          ...   160.93 AMU
Quasi RRHO          ...     True
Cut-Off Frequency   ...     1.00 cm^-1

Throughout the following assumptions are being made:
  (1) The electronic state is orbitally nondegenerate
  (2) There are no thermally accessible electronically excited states
  (3) Hindered rotations indicated by low frequency modes are not
      treated as such but are treated as vibrations and this may
      cause some error
  (4) All equations used are the standard statistical mechanics
      equations for an ideal gas
  (5) All vibrations are strictly harmonic

freq.      79.37  E(vib)   ...       0.49 
freq.     261.72  E(vib)   ...       0.30 
freq.     302.13  E(vib)   ...       0.26 
freq.     522.48  E(vib)   ...       0.13 
freq.     884.08  E(vib)   ...       0.04 
freq.     960.99  E(vib)   ...       0.03 
freq.    1302.64  E(vib)   ...       0.01 
freq.    1402.05  E(vib)   ...       0.00 
freq.    1441.28  E(vib)   ...       0.00 
freq.    2511.90  E(vib)   ...       0.00 
freq.    3032.09  E(vib)   ...       0.00 
freq.    3039.12  E(vib)   ...       0.00 

------------
INNER ENERGY
------------

The inner energy is: U= E(el) + E(ZPE) + E(vib) + E(rot) + E(trans)
    E(el)   - is the total energy from the electronic structure calculation
              = E(kin-el) + E(nuc-el) + E(el-el) + E(nuc-nuc)
    E(ZPE)  - the the zero temperature vibrational energy from the frequency calculation
    E(vib)  - the the finite temperature correction to E(ZPE) due to population
              of excited vibrational states
    E(rot)  - is the rotational thermal energy
    E(trans)- is the translational thermal energy

Summary of contributions to the inner energy U:
Electronic energy                ...    -12.41618588 Eh
Zero point energy                ...      0.03585800 Eh      22.50 kcal/mol
Thermal vibrational correction   ...      0.00199565 Eh       1.25 kcal/mol
Thermal rotational correction    ...      0.00141627 Eh       0.89 kcal/mol
Thermal translational correction ...      0.00141627 Eh       0.89 kcal/mol
-----------------------------------------------------------------------
Total thermal energy                    -12.37549970 Eh


Summary of corrections to the electronic energy:
(perhaps to be used in another calculation)
Total thermal correction                  0.00482819 Eh       3.03 kcal/mol
Non-thermal (ZPE) correction              0.03585800 Eh      22.50 kcal/mol
-----------------------------------------------------------------------
Total correction                          0.04068619 Eh      25.53 kcal/mol


--------
ENTHALPY
--------

The enthalpy is H = U + kB*T
                kB is Boltzmann's constant
Total thermal energy              ...    -12.37549970 Eh 
Thermal Enthalpy correction       ...      0.00094421 Eh       0.59 kcal/mol
-----------------------------------------------------------------------
Total Enthalpy                    ...    -12.37455549 Eh


WARNING (ORCA/SYM): The number of Z matrix atoms does not agree with
the number of centers in the basis set. The point group will therefore
be determined without considering basis set information.


Note: Only C1 symmetry has been detected, increase convergence thresholds 
      if your molecule has a higher symmetry. Symmetry factor of 1.0 is   
      used for the rotational entropy correction. 
 

Note: Rotational entropy computed according to Herzberg 
Infrared and Raman Spectra, Chapter V,1, Van Nostrand Reinhold, 1945 
Point Group:  C1, Symmetry Number:   1  
Rotational constants in cm-1:     0.928504     0.048288     0.046301 

Vibrational entropy computed according to the QRRHO of S. Grimme
Chem.Eur.J. 2012 18 9955 using a reference frequency of 100.0 cm-1


-------
ENTROPY
-------

The entropy contributions are T*S = T*(S(el)+S(vib)+S(rot)+S(trans))
     S(el)   - electronic entropy
     S(vib)  - vibrational entropy
     S(rot)  - rotational entropy
     S(trans)- translational entropy
The entropies will be listed as multiplied by the temperature to get
units of energy

Electronic entropy                ...      0.00000000 Eh      0.00 kcal/mol
Vibrational entropy               ...      0.00347128 Eh      2.18 kcal/mol
Rotational entropy                ...      0.01242708 Eh      7.80 kcal/mol
Translational entropy             ...      0.01954513 Eh     12.26 kcal/mol
-----------------------------------------------------------------------
Final entropy term                ...      0.03544349 Eh     22.24 kcal/mol

In case the symmetry of your molecule has not been determined correctly
or in case you have a reason to use a different symmetry number we print 
out the resulting rotational entropy values for sn=1,12:

 non-linear molecules -----------------------------------
|  sn= 1 | S(rot)=       0.01242708 Eh      7.80 kcal/mol|
|  sn= 2 | S(rot)=       0.01177262 Eh      7.39 kcal/mol|
|  sn= 3 | S(rot)=       0.01138979 Eh      7.15 kcal/mol|
|  sn= 4 | S(rot)=       0.01111817 Eh      6.98 kcal/mol|
|  sn= 5 | S(rot)=       0.01090748 Eh      6.84 kcal/mol|
|  sn= 6 | S(rot)=       0.01073533 Eh      6.74 kcal/mol|
|  sn= 7 | S(rot)=       0.01058979 Eh      6.65 kcal/mol|
|  sn= 8 | S(rot)=       0.01046371 Eh      6.57 kcal/mol|
|  sn= 9 | S(rot)=       0.01035250 Eh      6.50 kcal/mol|
|  sn=10 | S(rot)=       0.01025302 Eh      6.43 kcal/mol|
|  sn=11 | S(rot)=       0.01016303 Eh      6.38 kcal/mol|
|  sn=12 | S(rot)=       0.01008088 Eh      6.33 kcal/mol|
 linear molecules ---------------------------------------
|  Dinfh | S(rot)=       0.00822690 Eh      5.16 kcal/mol|
|  Cinfv | S(rot)=       0.00888135 Eh      5.57 kcal/mol|
 --------------------------------------------------------


-------------------
GIBBS FREE ENERGY
-------------------

The Gibbs free energy is G = H - T*S

Total enthalpy                    ...    -12.37455549 Eh 
Total entropy correction          ...     -0.03544349 Eh    -22.24 kcal/mol
-----------------------------------------------------------------------
Final Gibbs free energy         ...    -12.40999897 Eh

For completeness - the Gibbs free energy minus the electronic energy
G-E(el)                           ...      0.00618691 Eh      3.88 kcal/mol


--------------------------------
SUGGESTED CITATIONS FOR THIS RUN
--------------------------------

Below you find a list of papers that are relevant to this ORCA run
We neither can nor want to force you to cite these papers, but we appreciate if you do
You receive ORCA, which is the product of decades of hard work by many enthusiastic individuals, for free
The only thing we kindly ask in return is that you cite our papers,
We deeply appreciate it, if you show your appreciation for ORCA by not just citing the generic ORCA reference.

Please note that relegating all ORCA citations to the supporting information does *not* help us.
SI sections are not indexed - citations you put there will not count into any citation statistics
But we need these citations in order to attract the funding resources that allow us to do what we are doing

Therefore, if you are a happy ORCA user, please consider citing a few of the papers listed below in the main body of your paper

In addition to the list printed below, the program has created the file product_optfreq.bibtex that contains the list in bibtex format
You can import this file easily into all common literature databanks and citation aid programs


List of essential papers. We consider these as the minimum necessary citations

  1. Bannwarth, C.; Ehlert, S.; Grimme, S.
     GFN2-xTB—An Accurate and Broadly Parametrized Self-Consistent Tight-Binding Quantum Chemical Method with Multipole Electrostatics and Density-Dependent Dispersion Contributions
     J. Chem. Theory Comput. 2019 15(3), 1652-1671
     doi.org/10.1021/acs.jctc.8b01176
  2. Neese, F.
     Software update: the ORCA program system, version 6.0
     WIRES Comput. Molec. Sci. 2025 15(1), e70019
     doi.org/10.1002/wcms.7019

List of papers to cite with high priority. The work reported in these papers was absolutely
necessary for this run to complete.
Our perspective: the developers of density functionals and basis sets usually get cited in chemistry papers
Good! But without the algorithms to do something with them, the functionals or basis sets would not do anything.
Hence, in our opinion, the algorithm design and method developments papers are equally worthy of getting cited

  1. Bykov, D.; Petrenko, T.; Izsak, R.; Kossmann, S.; Becker, U.; Valeev, E.; Neese, F.
     Efficient implementation of the analytic second derivatives of Hartree-Fock and hybrid DFT energies: a detailed analysis of different approximations
     Molec. Phys. 2015 113 , 1961-1977
     doi.org/10.1080/00268976.2015.1025114
  2. Bannwarth, C.; Caldeweyher, E.; Ehlert, S.; Hansen, A.; Pracht, P.; Seibert, J.; Spicher, S.; Grimme, S.
     Extended tight-binding quantum chemistry methods
     WIRES Comput. Molec. Sci. 2020 11(2), e1493
     doi.org/10.1002/wcms.1493

List of suggested additional citations. These are papers that are important in the 'surrounding' of 
of this run, or papers that preceded the highly important papers. If you like your results we are grateful for a citation.

  1. Neese, F.
     The ORCA program system
     WIRES Comput. Molec. Sci. 2012 2(1), 73-78
     doi.org/10.1002/wcms.81
  2. Neese, F.
     Software update: the ORCA program system, version 4.0
     WIRES Comput. Molec. Sci. 2018 8(1), 1-6
     doi.org/10.1002/wcms.1327
  3. Neese, F.; Wennmohs, F.; Becker, U.; Riplinger, C.
     The ORCA quantum chemistry program package
     J. Chem. Phys. 2020 152(22), 224108
     doi.org/10.1063/5.0004608
  4. Neese, F.
     Software update: The ORCA program system—Version 5.0
     WIRES Comput. Molec. Sci. 2022 12(1), e1606
     doi.org/10.1002/wcms.1606

List of optional additional citations

  1. Neese, F.
     Approximate second-order SCF convergence for spin unrestricted wavefunctions
     Chem. Phys. Lett. 2000 325(1-3), 93-98
     doi.org/10.1016/s0009-2614(00)00662-x

Timings for individual modules:

Sum of individual times          ...        0.606 sec (=   0.010 min)
Geometry relaxation              ...        0.011 sec (=   0.000 min)   1.8 %
XTB module                       ...        0.595 sec (=   0.010 min)  98.2 %
                             ****ORCA TERMINATED NORMALLY****
TOTAL RUN TIME: 0 days 0 hours 0 minutes 0 seconds 980 msec
