
                                 *****************
                                 * O   R   C   A *
                                 *****************

                                            #,                                       
                                            ###                                      
                                            ####                                     
                                            #####                                    
                                            ######                                   
                                           ########,                                 
                                     ,,################,,,,,                         
                               ,,#################################,,                 
                          ,,##########################################,,             
                       ,#########################################, ''#####,          
                    ,#############################################,,   '####,        
                  ,##################################################,,,,####,       
                ,###########''''           ''''###############################       
              ,#####''   ,,,,##########,,,,          '''####'''          '####       
            ,##' ,,,,###########################,,,                        '##       
           ' ,,###''''                  '''############,,,                           
         ,,##''                                '''############,,,,        ,,,,,,###''
      ,#''                                            '''#######################'''  
     '                                                          ''''####''''         
             ,#######,   #######,   ,#######,      ##                                
            ,#'     '#,  ##    ##  ,#'     '#,    #''#        ,####,    ,#,          
            ##       ##  ##   ,#'  ##            #'  '#       #'       ,# #          
            ##       ##  #######   ##           ,######,      #####,      #          
            '#,     ,#'  ##    ##  '#,     ,#' ,#      #,     #,   #      #          
             '#######'   ##     ##  '#######'  #'      '#     '####' #    #          



                #########################################################
                #                        -***-                          #
                #          Department of theory and spectroscopy        #
                #                                                       #
                #                      Frank Neese                      #
                #                                                       #
                #     Directorship, Architecture, Infrastructure        #
                #                    SHARK, DRIVERS                     #
                #        Core code/Algorithms in most modules           #
                #                                                       #
                #        Max Planck Institute fuer Kohlenforschung      #
                #                Kaiser Wilhelm Platz 1                 #
                #                 D-45470 Muelheim/Ruhr                 #
                #                      Germany                          #
                #                                                       #
                #                  All rights reserved                  #
                #                        -***-                          #
                #########################################################


                         Program Version 6.1.0  -  RELEASE   -
                                (GIT: $679e74b$)
                          ($2025-06-10 18:02:51 +0200$)


 With contributions from (in alphabetic order):
[Max-Planck-Institut fuer Kohlenforschung]                               
  Daniel Aravena         : Magnetic Suceptibility                        
  Michael Atanasov       : Ab Initio Ligand Field Theory (pilot matlab implementation)
  Alexander A. Auer      : GIAO ZORA, VPT2 properties, NMR spectrum      
  Ute Becker             : All parallelization in ORCA, NUMFREQ, NUMCALC 
  Giovanni Bistoni       : ED, misc. LED, open-shell LED, HFLD           
  Dmytro Bykov           : pre 5.0 version of the SCF Hessian            
  Marcos Casanova-Páez   : Triplet and SCS-CIS(D). UHF-(DLPNO)-IP/EA/STEOM-CCSD. UHF-CVS-IP/STEOM-CCSD   
  Vijay G. Chilkuri      : MRCI spin determinant printing, contributions to CSF-ICE 
  Pauline Colinet        : FMM embedding                                 
  Dipayan Datta          : RHF DLPNO-CCSD density                        
  Achintya Kumar Dutta   : EOM-CC, STEOM-CC                              
  Nicolas Foglia         : Exact transition moments, OPA infrastructure, MCD improvements    
  Dmitry Ganyushin       : Spin-Orbit,Spin-Spin,Magnetic field MRCI      
  Miquel Garcia-Rates    : C-PCM and meta-GGA Hessian, CCSD/C-PCM, Gaussian charge scheme 
  Tiago L. C. Gouveia    : GS-ROHF, GS-ROCIS                             
  Yang Guo               : DLPNO-NEVPT2, F12-NEVPT2, CIM, IAO-localization        
  Andreas Hansen         : Spin unrestricted coupled pair/coupled cluster methods 
  Ingolf Harden          : AUTO-CI MPn and infrastructure                
  Benjamin Helmich-Paris : MC-RPA, TRAH-(SCF,CASSCF), AVAS, COSX integrals, SCF dyn. polar., MC-PDFT, srDFT 
  Lee Huntington         : MR-EOM, pCC                                   
  Robert Izsak           : Overlap fitted RIJCOSX, COSX-SCS-MP3, EOM     
  Riya Kayal             : Wick's Theorem for AUTO-CI, AUTO-CI UHF-CCSDT 
  Emily Kempfer          : AUTO-CI RHF CISDT and CCSDT, approximate NEVPT4
  Christian Kollmar      : KDIIS, OOCD, Brueckner-CCSD(T), CCSD density, CASPT2, CASPT2-K, improved NEVPT2 
  Axel Koslowski         : Symmetry handling                             
  Simone Kossmann        : meta-GGA functionals, TD-DFT gradient, OOMP2, (MP2 Hessian; deprecated post 5.0) 
  Lucas Lang             : DCDCAS, Hyperfine gauge corrections, ICE-SOC+SSC
  Marvin Lechner         : AUTO-CI (C++ implementation), FIC-MRCC        
  Spencer Leger          : CASSCF response                               
  Dagmar Lenk            : GEPOL surface, SMD, ORCA-2-JSON               
  Dimitrios Liakos       : Extrapolation schemes; Compound Job, Property file
  Dimitrios Manganas     : Further ROCIS development; embedding schemes. LFT, Crystal Embedding 
  Dimitrios Pantazis     : SARC Basis sets                               
  Anastasios Papadopoulos: AUTO-CI, single reference methods and gradients 
  Taras Petrenko         : pre 6.0 DFT Hessian and TD-DFT gradient,  ECA, NRVS 
  Petra Pikulova         : Analytic Raman intensities                    
  Peter Pinski           : DLPNO-MP2, DLPNO-MP2 Gradient                 
  Shashank Vittal Rao    : ES-AILFT, MagRelax                            
  Christoph Reimann      : Effective Core Potentials                     
  Marius Retegan         : Local ZFS, SOC                                
  Christoph Riplinger    : Optimizer, TS searches, QM/MM, DLPNO-CCSD(T), (RO)-DLPNO pert. Triples 
  Michael Roemelt        : Original ROCIS implementation, recursive CI coupling coefficients
  Masaaki Saitow         : Open-shell DLPNO-CCSD energy and density      
  Barbara Sandhoefer     : DKH picture change effects                    
  Yorick L. A. Schmerwitz: GMF and freeze-and-release deltaSCF, NEB S-IDPP initial path                    
  Kantharuban Sivalingam : CASSCF convergence/infrastructure, NEVPT2, NEVPT3, NEVPT4(SD), FIC-MRCI and CEPA variants
  Bernardo de Souza      : ESD, SOC TD-DFT                               
  Georgi L. Stoychev     : AutoAux, RI-MP2 NMR, DLPNO-MP2 response, X2C  
  Van Anh Tran           : RI-MP2 g-tensors                              
  Willem Van den Heuvel  : Paramagnetic NMR                              
  Zikuan Wang            : NOTCH, Electric field optimization            
  Frank Wennmohs         : Technical directorship and infrastructure     
  Hang Xu                : AUTO-CI-Response properties                   
                                                                         
[FACCTs GmbH]                                                            
  Markus Bursch, Nicolas Foglia, Miquel Garcia-Rates, Ingolf Harden, Hagen Neugebauer, Anastasios Papadopoulos, 
  Christoph Riplinger, Bernardo de Souza, Georgi L. Stoychev                                                    
                                                                 
  APM, various basis sets, CI-OPT, improved COSX, DLPNO-Multilevel,           
  DOCKER, DRACO, updates on ESD, Fragmentator, GOAT, IRC, LR-CPCM, L-BFGS, MBIS, meta-GGA TD-DFT gradient, ML-optimized integration grids, 
  MM, NACMEs, nearIR, NEB, NEB-TS, NL-DFT gradient (VV10), 2- and 3-layer-ONIOM, interface openCOSMO-RS, QMMM,   
  Crystal-QMMM, RESP, rigid body optimization, SF, symmetry and pop. for TD-DFT, various functionals, SOLVATOR                                   
                                                                         
[Other institutions]                                                     
  V. Asgeirsson          : NEB                                           
  Christoph Bannwarth    : sTDA-DFT, sTD-DFT, PBEh-3c, B97-3c, D3        
  Giovanni Bistoni       : ETS/NOCV, ADLD/ADEX, COVALED                  
  Martin Brehm           : Molecular dynamics                            
  Ronald Cardenas        : ETS/NOCV                                      
  Martina Colucci        : COVALED                                       
  Sebastian Ehlert       : rSCAN, r2SCAN, r2SCAN-3c, D4, dhf basis sets  
  Marvin Friede          : D4 for Fr, Ra, Ac-Lr                          
  Lars Goerigk           : TD-DFT with DH, B97 family of functionals     
  Stefan Grimme          : VdW corrections, initial TS optimization, DFT functionals, gCP, sTDA/sTD-DF 
  Waldemar Hujo          : DFT-NL                                        
  H. Jonsson             : NEB                                           
  Holger Kruse           : gCP                                           
  Marcel Mueller         : wB97X-3c, vDZP basis set                      
  Hagen Neugebauer       : wr2SCAN, Native XTB                           
  Gianluca Regni         : ADLD/ADEX                                     
  Tobias Risthaus        : pre 6.0 range-separated hybrid DFT and stability analysis
  Lukas Wittmann         : regularized MP2, r2SCAN double-hybrids, wr2SCAN        
                                                                         
We gratefully acknowledge several colleagues who have allowed us to      
interface, adapt or use parts of their codes:                            
  Ed Valeev, F. Pavosevic, A. Kumar             : LibInt (2-el integral package), F12 methods 
  Garnet Chan, S. Sharma, J. Yang, R. Olivares  : DMRG                   
  Ulf Ekstrom                                   : XCFun DFT Library      
  Mihaly Kallay                                 : mrcc  (arbitrary order and MRCC methods)
  Frank Weinhold                                : gennbo (NPA and NBO analysis)           
  Simon Mueller                                 : openCOSMO-RS                            
  Christopher J. Cramer and Donald G. Truhlar   : smd solvation model                     
  S Lehtola, MJT Oliveira, MAL Marques          : LibXC Library                           
  Liviu Ungur et al                             : ANISO software                          


 Your calculation uses the libint2 library for the computation of 2-el integrals
 For citations please refer to: http://libint.valeyev.net

 Your ORCA version has been built with support for libXC version: 7.0.0
 For citations please refer to: https://libxc.gitlab.io

 This ORCA versions uses:
   CBLAS   interface :  Fast vector & matrix operations
   LAPACKE interface :  Fast linear algebra routines
   SCALAPACK package :  Parallel linear algebra routines
   Shared memory     :  Shared parallel matrices
   BLAS/LAPACK       :  OpenBLAS 0.3.29  USE64BITINT DYNAMIC_ARCH NO_AFFINITY SkylakeX SINGLE_THREADED
        Core in use  :  SkylakeX
   Copyright (c) 2011-2014, The OpenBLAS Project


  ***********************************
  * Starting time: Thu Mar 12 12:41:19 2026
  * Host name:     midway3-login4.rcc.local
  * Process ID:    2751963
  * Working dir.:  /home/rzhu16/orca_TS_search/sn2_i_f/geo_opt_reactant_product
  ***********************************

Your calculation utilizes the semiempirical GFN2-xTB method
Please cite in your paper:
Bannwarth, C.; Ehlert S.; Grimme, S. J. Chem. Theory Comput. 2019, 15, 1652.
   

================================================================================

cite the ECPs for I  [Def2-ECP] as follows:
Ce-Yb(ecp-28): M. Dolg, H. Stoll, H.Preuss, J. Chem. Phys., 1989, 90, 1730-1734.
Y-Cd(ecp-28), Hf-Hg(ecp-46): D. Andrae,U. Haeussermann, M. Dolg, H. Stoll, H. Preuss, Theor. Chim. Acta, 1990, 77, 123-141.
In-Sb(ecp-28), Tl-Bi(ecp-46): B. Metz, H. Stoll, M. Dolg, J. Chem. Phys., 2000, 113, 2563-2569.
Te-Xe(ecp-28), Po-Rn(ecp-46): K. A. Peterson, D. Figgen, E. Goll, H. Stoll, M. Dolg, J. Chem. Phys., 2003, 119, 11113-11123.
Rb(ecp-28), Cs(ecp-46): T. Leininger, A. Nicklass, W. Kuechle, H. Stoll, M. Dolg, A. Bergner, Chem. Phys. Lett., 1996, 255, 274-280.
Sr(ecp-28), Ba(ecp-46): M. Kaupp, P. V. Schleyer, H. Stoll and H. Preuss, J. Chem. Phys., 1991, 94, 1360-1366.
La(ecp-46): M. Dolg, H. Stoll, A. Savin, H. Preuss, Theor. Chim. Acta, 1989, 75, 173-194.
Lu(ecp-28): X. Cao, M. Dolg, J. Chem. Phys., 2001, 115, 7348-7355.

ECP parameters for I  [Def2-ECP] have been obtained from:
TURBOMOLE (7.0.2)

================================================================================
                                        WARNINGS
                       Please study these warnings very carefully!
================================================================================


WARNING: Analytical Hessian for XTB is limited in the analysis of the data.
       : If you want to obtain extensive IR and deltaG analysis, please use ! XTB NumFreq. 


WARNING: Geometry Optimization
  ===> : Switching off AutoStart
         For restart on a previous wavefunction, please use MOREAD

WARNING: Found dipole moment calculation with XTB calculation
  ===> : Switching off dipole moment calculation


WARNING: Found frequency calculation in combination with XTB calculation
  ===> : Need to redirect dipole moment calculation to properties.out


================================================================================
                                       INPUT FILE
================================================================================
NAME = product_optfreq.inp
|  1> ! XTB2 Opt Freq PAL8
|  2> 
|  3> * xyz -1 1
|  4>   C       0.000118      0.186883     -0.375260
|  5>   H       0.000809      1.255702     -0.222199
|  6>   H       0.912224     -0.354130     -0.227897
|  7>   H      -0.912668     -0.352968     -0.227885
|  8>   I       0.000181      0.294125      2.423011
|  9>   F       0.000154      0.308406     -2.001143
| 10> *
| 11> 
| 12>                          ****END OF INPUT****
================================================================================

                       *****************************
                       * Geometry Optimization Run *
                       *****************************

Geometry optimization settings:
Update method            Update   .... BFGS
Choice of coordinates    CoordSys .... (2022) Redundant Internals
Initial Hessian          InHess   .... Almloef's Model
Max. no of cycles        MaxIter  .... 50

Convergence Tolerances:
Energy Change            TolE     ....  5.0000e-06 Eh
Max. Gradient            TolMAXG  ....  3.0000e-04 Eh/bohr
RMS Gradient             TolRMSG  ....  1.0000e-04 Eh/bohr
Max. Displacement        TolMAXD  ....  4.0000e-03 bohr
RMS Displacement         TolRMSD  ....  2.0000e-03 bohr
Strict Convergence                .... False

------------------------------------------------------------------------------
                        ORCA OPTIMIZATION COORDINATE SETUP
------------------------------------------------------------------------------

The optimization will be done in redundant internal coordinates (2022)
Making redundant internal coordinates   ...  (2022 redundants) done
Evaluating the initial hessian          ...  (Almloef) done
Evaluating the coordinates              ...  done
Calculating the B-matrix                .... done
Calculating the G-matrix                .... done
The number of degrees of freedom        ....   18

    -----------------------------------------------------------------
                    Redundant Internal Coordinates


    -----------------------------------------------------------------
         Definition                    Initial Value    Approx d2E/dq
    -----------------------------------------------------------------
      1. B(H   1,C   0)                  1.0797         0.373955   
      2. B(H   2,C   0)                  1.0707         0.386592   
      3. B(H   3,C   0)                  1.0707         0.386599   
      4. B(I   4,H   1)                  2.8146         0.010000   
      5. B(I   4,C   0)                  2.8003         0.011807   
      6. B(I   4,H   3)                  2.8774         0.010000   
      7. B(I   4,H   2)                  2.8774         0.010000   
      8. B(F   5,C   0)                  1.6304         0.214978   
      9. A(H   1,C   0,H   3)          118.6957         0.295870   
     10. A(H   2,C   0,H   3)          116.9072         0.297432   
     11. A(H   1,C   0,F   5)           93.8752         0.295552   
     12. A(H   2,C   0,F   5)          100.0726         0.297112   
     13. A(H   3,C   0,F   5)          100.0708         0.297113   
     14. A(H   1,C   0,I   4)           79.6556         0.206821   
     15. A(H   2,C   0,I   4)           83.2116         0.207711   
     16. A(H   3,C   0,I   4)           83.2108         0.207712   
     17. A(I   4,C   0,F   5)          173.5308         0.207530   
     18. A(H   1,C   0,H   2)          118.6946         0.295869   
    -----------------------------------------------------------------

Number of atoms                         .... 6
Number of degrees of freedom            .... 18


         *************************************************************
         *                GEOMETRY OPTIMIZATION CYCLE   1            *
         *************************************************************
---------------------------------
CARTESIAN COORDINATES (ANGSTROEM)
---------------------------------
  C     0.000118    0.186883   -0.375260
  H     0.000809    1.255702   -0.222199
  H     0.912224   -0.354130   -0.227897
  H    -0.912668   -0.352968   -0.227885
  I     0.000181    0.294125    2.423011
  F     0.000154    0.308406   -2.001143

----------------------------
CARTESIAN COORDINATES (A.U.)
----------------------------
  NO LB    ZA    FRAG    MASS        X           Y           Z
   0 C   6.0000    0    12.011    0.000223    0.353158   -0.709139
   1 H   1.0000    0     1.008    0.001529    2.372933   -0.419895
   2 H   1.0000    0     1.008    1.723854   -0.669209   -0.430663
   3 H   1.0000    0     1.008   -1.724693   -0.667013   -0.430640
   4 I  53.0000    0   126.900    0.000342    0.555816    4.578827
   5 F   9.0000    0    18.998    0.000291    0.582803   -3.781612

      -----------------------------------------------------------      
     |                   =====================                   |     
     |                           x T B                           |     
     |                   =====================                   |     
     |                         S. Grimme                         |     
     |          Mulliken Center for Theoretical Chemistry        |     
     |                    University of Bonn                     |     
      -----------------------------------------------------------      

   * xtb version 6.7.1 (edcfbbe) compiled by 'albert@albert-system' on 2024-07-22

   xtb is free software: you can redistribute it and/or modify it under
   the terms of the GNU Lesser General Public License as published by
   the Free Software Foundation, either version 3 of the License, or
   (at your option) any later version.
   
   xtb is distributed in the hope that it will be useful,
   but WITHOUT ANY WARRANTY; without even the implied warranty of
   MERCHANTABILITY or FITNESS FOR A PARTICULAR PURPOSE.  See the
   GNU Lesser General Public License for more details.
   
   Cite this work as:
   * C. Bannwarth, E. Caldeweyher, S. Ehlert, A. Hansen, P. Pracht,
     J. Seibert, S. Spicher, S. Grimme, WIREs Comput. Mol. Sci., 2020, 11,
     e01493. DOI: 10.1002/wcms.1493
   
   for GFN2-xTB:
   * C. Bannwarth, S. Ehlert and S. Grimme., J. Chem. Theory Comput., 2019,
     15, 1652-1671. DOI: 10.1021/acs.jctc.8b01176
   for GFN1-xTB:
   * S. Grimme, C. Bannwarth, P. Shushkov, J. Chem. Theory Comput., 2017,
     13, 1989-2009. DOI: 10.1021/acs.jctc.7b00118
   for GFN0-xTB:
   * P. Pracht, E. Caldeweyher, S. Ehlert, S. Grimme, ChemRxiv, 2019, preprint.
     DOI: 10.26434/chemrxiv.8326202.v1
   for GFN-FF:
   * S. Spicher and S. Grimme, Angew. Chem. Int. Ed., 2020, 59, 15665-15673.
     DOI: 10.1002/anie.202004239
   
   for ALPB and GBSA implicit solvation:
   * S. Ehlert, M. Stahn, S. Spicher, S. Grimme, J. Chem. Theory Comput.,
     2021, 17, 4250-4261. DOI: 10.1021/acs.jctc.1c00471
   
   for ddCOSMO and CPCM-X implicit solvation:
   * M. Stahn, S. Ehlert, S. Grimme, J. Phys. Chem. A,
     2023, XX, XXXX-XXXX. DOI: 10.1021/acs.jpca.3c04382
   
   for DFT-D4:
   * E. Caldeweyher, C. Bannwarth and S. Grimme, J. Chem. Phys., 2017,
     147, 034112. DOI: 10.1063/1.4993215
   * E. Caldeweyher, S. Ehlert, A. Hansen, H. Neugebauer, S. Spicher,
     C. Bannwarth and S. Grimme, J. Chem. Phys., 2019, 150, 154122.
     DOI: 10.1063/1.5090222
   * E. Caldeweyher, J.-M. Mewes, S. Ehlert and S. Grimme, Phys. Chem. Chem. Phys.
     2020, 22, 8499-8512. DOI: 10.1039/D0CP00502A
   
   for sTDA-xTB:
   * S. Grimme and C. Bannwarth, J. Chem. Phys., 2016, 145, 054103.
     DOI: 10.1063/1.4959605
   
   in the mass-spec context:
   * V. Asgeirsson, C. Bauer and S. Grimme, Chem. Sci., 2017, 8, 4879.
     DOI: 10.1039/c7sc00601b
   * J. Koopman and S. Grimme, ACS Omega 2019, 4, 12, 15120-15133.
     DOI: 10.1021/acsomega.9b02011
   
   for metadynamics refer to:
   * S. Grimme, J. Chem. Theory Comput., 2019, 155, 2847-2862
     DOI: 10.1021/acs.jctc.9b00143
   
   for SPH calculations refer to:
   * S. Spicher and S. Grimme, J. Chem. Theory Comput., 2021, 17, 1701-1714
     DOI: 10.1021/acs.jctc.0c01306
   
   for ONIOM refer to:
   * C. Plett, A. Katbashev, S. Ehlert, S. Grimme, M. Bursch,
     Phys. Chem. Chem. Phys., 2023, 25, 17860-17868. DOI: 10.1039/D3CP02178E
   
   for DIPRO refer to:
   * J. Kohn, N. Gildemeister, S. Grimme, D. Fazzi, A. Hansen,
     J. Chem. Phys., 2023, just accepted.
   
   for PTB refer to:
   * S. Grimme, M. Mueller, A. Hansen, J. Chem. Phys., 2023, 158, 124111.
     DOI: 10.1063/5.0137838
   
   with help from (in alphabetical order)
   P. Atkinson, C. Bannwarth, F. Bohle, G. Brandenburg, E. Caldeweyher
   M. Checinski, S. Dohm, S. Ehlert, S. Ehrlich, I. Gerasimov, C. Hölzer
   A. Katbashev, J. Kohn, J. Koopman, C. Lavigne, S. Lehtola, F. März, M. Müller,
   F. Musil, H. Neugebauer, J. Pisarek, C. Plett, P. Pracht, F. Pultar,
   J. Seibert, P. Shushkov, S. Spicher, M. Stahn, M. Steiner, T. Strunk,
   J. Stückrath, T. Rose, and J. Unsleber
   
 * started run on 2026/03/12 at 12:41:19.592     
   ID    Z sym.   atoms
    1    6 C      1
    2    1 H      2-4
    3   53 I      5
    4    9 F      6

           -------------------------------------------------
          |                Calculation Setup                |
           -------------------------------------------------

          program call               : /software/orca-6.1.0-el8-x86_64/bin/otool_xtb product_optfreq_XTB.xyz --grad -c -1 -u 0 -P 8 --namespace product_optfreq --input product_optfreq_XTB.input.tmp --acc 0.200000
          hostname                   : midway3-login4.rcc.local
          calculation namespace      : product_optfreq
          coordinate file            : product_optfreq_XTB.xyz
          omp threads                :                     8


molecular fragmentation (1/2 indicates fragments):
111121
# atoms in fragment 1/2:     5     1
 fragment masses (1/2) :       34.03      126.90
CMA distance (Bohr)    :   6.978
constraining FC (au)   :  0.0500

           -------------------------------------------------
          |                 G F N 2 - x T B                 |
           -------------------------------------------------

        Reference                      10.1021/acs.jctc.8b01176
      * Hamiltonian:
        H0-scaling (s, p, d)           1.850000    2.230000    2.230000
        zeta-weighting                 0.500000
      * Dispersion:
        s8                             2.700000
        a1                             0.520000
        a2                             5.000000
        s9                             5.000000
      * Repulsion:
        kExp                           1.500000    1.000000
        rExp                           1.000000
      * Coulomb:
        alpha                          2.000000
        third order                    shell-resolved
        anisotropic                    true
        a3                             3.000000
        a5                             4.000000
        cn-shift                       1.200000
        cn-exp                         4.000000
        max-rad                        5.000000


          ...................................................
          :                      SETUP                      :
          :.................................................:
          :  # basis functions                  21          :
          :  # atomic orbitals                  20          :
          :  # shells                           10          :
          :  # electrons                        22          :
          :  max. iterations                   250          :
          :  Hamiltonian                  GFN2-xTB          :
          :  restarted?                      false          :
          :  GBSA solvation                  false          :
          :  PC potential                    false          :
          :  electronic temp.          300.0000000     K    :
          :  accuracy                    0.2000000          :
          :  -> integral cutoff          0.3198970E+02      :
          :  -> integral neglect         0.2000000E-08      :
          :  -> SCF convergence          0.2000000E-06 Eh   :
          :  -> wf. convergence          0.2000000E-04 e    :
          :  Broyden damping             0.4000000          :
          :  net charge                         -1          :
          :  unpaired electrons                  0          :
          ...................................................

 iter      E             dE          RMSdq      gap      omega  full diag
   1    -12.4710084 -0.124710E+02  0.754E+00    4.60       0.0  T
   2    -12.5007500 -0.297416E-01  0.427E+00    3.86       1.0  T
   3    -12.5014382 -0.688216E-03  0.148E+00    4.50       1.0  T
   4    -12.5033037 -0.186555E-02  0.557E-01    4.34       1.0  T
   5    -12.5033459 -0.421869E-04  0.155E-01    4.27       1.0  T
   6    -12.5033035  0.423811E-04  0.123E-01    4.28       1.0  T
   7    -12.5033605 -0.569242E-04  0.318E-02    4.28       1.3  T
   8    -12.5033611 -0.670961E-06  0.635E-03    4.28       6.4  T
   9    -12.5033612 -0.455690E-07  0.199E-03    4.28      20.5  T
  10    -12.5033612 -0.189686E-07  0.291E-04    4.28     140.5  T
  11    -12.5033612 -0.146965E-09  0.261E-05    4.28    1563.8  T
  12    -12.5033612 -0.675016E-13  0.127E-05    4.28    3217.9  T

   *** convergence criteria satisfied after 12 iterations ***

         #    Occupation            Energy/Eh            Energy/eV
      -------------------------------------------------------------
         1        2.0000           -0.5967104             -16.2373
       ...           ...                  ...                  ...
         5        2.0000           -0.3581577              -9.7460
         6        2.0000           -0.3387785              -9.2186
         7        2.0000           -0.2875277              -7.8240
         8        2.0000           -0.2866088              -7.7990
         9        2.0000           -0.1828132              -4.9746
        10        2.0000           -0.1775239              -4.8307
        11        2.0000           -0.1775238              -4.8307 (HOMO)
        12                         -0.0203286              -0.5532 (LUMO)
        13                          0.2626413               7.1468
        14                          0.3174650               8.6387
        15                          0.3220301               8.7629
        16                          0.3535170               9.6197
       ...                                ...                  ...
        20                          0.4616741              12.5628
      -------------------------------------------------------------
                  HL-Gap            0.1571953 Eh            4.2775 eV
             Fermi-level           -0.0989262 Eh           -2.6919 eV

 SCC (total)                   0 d,  0 h,  0 min,  0.083 sec
 SCC setup                      ...        0 min,  0.000 sec (  0.201%)
 Dispersion                     ...        0 min,  0.000 sec (  0.077%)
 classical contributions        ...        0 min,  0.000 sec (  0.038%)
 integral evaluation            ...        0 min,  0.081 sec ( 97.212%)
 iterations                     ...        0 min,  0.001 sec (  1.674%)
 molecular gradient             ...        0 min,  0.001 sec (  0.652%)
 printout                       ...        0 min,  0.000 sec (  0.131%)

         :::::::::::::::::::::::::::::::::::::::::::::::::::::
         ::                     SUMMARY                     ::
         :::::::::::::::::::::::::::::::::::::::::::::::::::::
         :: total energy             -12.445270323195 Eh    ::
         :: gradient norm              0.053089895644 Eh/a0 ::
         :: HOMO-LUMO gap              4.277500901362 eV    ::
         ::.................................................::
         :: SCC energy               -12.503361314003 Eh    ::
         :: -> isotropic ES            0.159785088965 Eh    ::
         :: -> anisotropic ES         -0.001535308991 Eh    ::
         :: -> anisotropic XC          0.001736748069 Eh    ::
         :: -> dispersion             -0.002392143901 Eh    ::
         :: repulsion energy           0.058090990809 Eh    ::
         :: add. restraining           0.000000000000 Eh    ::
         :: total charge              -1.000000000000 e     ::
         :::::::::::::::::::::::::::::::::::::::::::::::::::::


Property printout bound to 'properties.out'

           -------------------------------------------------
          | TOTAL ENERGY              -12.445270323195 Eh   |
          | GRADIENT NORM               0.053089895644 Eh/α |
          | HOMO-LUMO GAP               4.277500901362 eV   |
           -------------------------------------------------

------------------------------------------------------------------------
 * finished run on 2026/03/12 at 12:41:19.691     
------------------------------------------------------------------------
 total:
 * wall-time:     0 d,  0 h,  0 min,  0.099 sec
 *  cpu-time:     0 d,  0 h,  0 min,  0.597 sec
 * ratio c/w:     6.035 speedup
 SCF:
 * wall-time:     0 d,  0 h,  0 min,  0.084 sec
 *  cpu-time:     0 d,  0 h,  0 min,  0.542 sec
 * ratio c/w:     6.484 speedup


-------------------------   --------------------
FINAL SINGLE POINT ENERGY       -12.445270323190
-------------------------   --------------------


-------------
DIPOLE MOMENT
-------------
                                X             Y             Z
Total Dipole Moment    :     -0.00000      -0.63900      -2.77800
                        -----------------------------------------
Magnitude (a.u.)       :      2.85054
Magnitude (Debye)      :      7.24551


------------------
CARTESIAN GRADIENT
------------------

   1   C   :   -0.000009778   -0.013680730    0.042685845
   2   H   :    0.000005053    0.006962044   -0.005507236
   3   H   :   -0.000880688   -0.001123028   -0.001023302
   4   H   :    0.000882006   -0.001123239   -0.001025500
   5   I   :    0.000000417    0.001124906   -0.012846071
   6   F   :    0.000002990    0.007840047   -0.022283737

Difference to translation invariance:
           :    0.0000000000   -0.0000000000   -0.0000000000

Difference to rotation invariance:
           :   -0.0000000130   -0.0000000000   -0.0000000000

Norm of the Cartesian gradient     ...    0.0530898956
RMS gradient                       ...    0.0125134084
MAX gradient                       ...    0.0426858454
------------------------------------------------------------------------------
                         ORCA GEOMETRY RELAXATION STEP
------------------------------------------------------------------------------

Reading the OPT-File                    .... done
Getting information on internals        .... done
Copying old internal coords+grads       .... done
Making the new internal coordinates     .... (2022 redundants) done
Validating the new internal coordinates .... (2022 redundants) done
Calculating the B-matrix                .... done
Calculating the G,G- and P matrices     .... done
Transforming gradient to internals      .... done
Projecting the internal gradient        .... done
Number of atoms                         ....   6
Number of internal coordinates          ....  18
Current Energy                          ....   -12.445270323 Eh
Current gradient norm                   ....     0.053089896 Eh/bohr
Maximum allowed component of the step   ....  0.300
Current trust radius                    ....  0.300
Evaluating the initial hessian          ....  (Almloef) done
Projecting the Hessian                  .... done
Forming the augmented Hessian           .... done
Diagonalizing the augmented Hessian     .... done
Last element of RFO vector              ....  0.922702454
Lowest eigenvalues of augmented Hessian:
 -0.006455158  0.013118286  0.050731231  0.063181328  0.175995039
Length of the computed step             ....  0.417808449
Warning: the length of the step is outside the trust region - taking restricted step instead
The input lambda is                     ....     0.009503
   iter:   5  x=    0.003085  g=  718.575274 f(x)=     1.729515
   iter:  10  x=   -0.014145  g=    7.151599 f(x)=     0.008496
The output lambda is                    ....    -0.014241 (14 iterations)
The final length of the internal step   ....  0.300000000
Converting the step to Cartesian space:
 Initial RMS(Int)=    0.0707106781
Transforming coordinates:
 Iter   0:  RMS(Cart)=    0.0371867807 RMS(Int)=    0.0708836305
done
Storing new coordinates                 .... done

                                .--------------------.
          ----------------------|Geometry convergence|-------------------------
          Item                value                   Tolerance       Converged
          ---------------------------------------------------------------------
          RMS gradient        0.0070392611            0.0001000000      NO
          MAX gradient        0.0228061093            0.0003000000      NO
          RMS step            0.0707106781            0.0020000000      NO
          MAX step            0.1742988719            0.0040000000      NO
          -------------------------------------------------------------------------
          ........................................................
          Max(Bonds)      0.0922      Max(Angles)    2.61
          Max(Dihed)        0.00      Max(Improp)    0.00
          ---------------------------------------------------------------------

The optimization has not yet converged - more geometry cycles are needed


    ---------------------------------------------------------------------------
                         Redundant Internal Coordinates
                            (Angstroem and degrees)

        Definition                    Value    dE/dq     Step     New-Value
    ----------------------------------------------------------------------------
     1. B(H   1,C   0)                1.0797  0.006347 -0.0092    1.0705   
     2. B(H   2,C   0)                1.0707 -0.000015 -0.0006    1.0701   
     3. B(H   3,C   0)                1.0707 -0.000018 -0.0006    1.0701   
     4. B(I   4,H   1)                2.8146 -0.001153  0.0674    2.8819   
     5. B(I   4,C   0)                2.8003 -0.009491  0.0922    2.8926   
     6. B(I   4,H   3)                2.8774 -0.001202  0.0634    2.9407   
     7. B(I   4,H   2)                2.8774 -0.001202  0.0634    2.9408   
     8. B(F   5,C   0)                1.6304  0.022806 -0.0527    1.5778   
     9. A(H   1,C   0,H   3)          118.70  0.002662   -0.71    117.99   
    10. A(H   2,C   0,H   3)          116.91 -0.000226   -0.13    116.77   
    11. A(H   1,C   0,F   5)           93.88 -0.011006    2.61     96.48   
    12. A(H   2,C   0,F   5)          100.07  0.000133    0.34    100.41   
    13. A(H   3,C   0,F   5)          100.07  0.000130    0.34    100.41   
    14. A(H   1,C   0,I   4)           79.66  0.003173   -0.88     78.78   
    15. A(H   2,C   0,I   4)           83.21  0.003898   -1.23     81.98   
    16. A(H   3,C   0,I   4)           83.21  0.003898   -1.23     81.98   
    17. A(I   4,C   0,F   5)          173.53 -0.007834    1.73    175.26   
    18. A(H   1,C   0,H   2)          118.69  0.002661   -0.71    117.99   
    ----------------------------------------------------------------------------

Geometry step timings:
Preparation and reading OPT file:      0.000 s ( 2.705 %)
Internal coordinates            :      0.000 s ( 3.005 %)
B/P matrices and projection     :      0.000 s (10.969 %)
Hessian update/contruction      :      0.000 s (34.410 %)
Making the step                 :      0.000 s (14.425 %)
Converting the step to Cartesian:      0.000 s ( 3.231 %)
Storing new data                :      0.000 s ( 6.386 %)
Checking convergence            :      0.000 s ( 4.433 %)
Final printing                  :      0.000 s (20.135 %)
Total time                      :      0.001 s

Time for energy+gradient        :      0.108 s
Time for complete geometry iter :      0.110 s

         *************************************************************
         *                GEOMETRY OPTIMIZATION CYCLE   2            *
         *************************************************************
---------------------------------
CARTESIAN COORDINATES (ANGSTROEM)
---------------------------------
  C     0.000123    0.197652   -0.409067
  H     0.000805    1.253354   -0.231649
  H     0.910935   -0.339314   -0.244071
  H    -0.911366   -0.338154   -0.244055
  I     0.000177    0.282789    2.482064
  F     0.000144    0.281691   -1.984595

----------------------------
CARTESIAN COORDINATES (A.U.)
----------------------------
  NO LB    ZA    FRAG    MASS        X           Y           Z
   0 C   6.0000    0    12.011    0.000233    0.373507   -0.773024
   1 H   1.0000    0     1.008    0.001521    2.368496   -0.437754
   2 H   1.0000    0     1.008    1.721417   -0.641211   -0.461226
   3 H   1.0000    0     1.008   -1.722233   -0.639019   -0.461198
   4 I  53.0000    0   126.900    0.000335    0.534395    4.690421
   5 F   9.0000    0    18.998    0.000273    0.532319   -3.750341

      -----------------------------------------------------------      
     |                   =====================                   |     
     |                           x T B                           |     
     |                   =====================                   |     
     |                         S. Grimme                         |     
     |          Mulliken Center for Theoretical Chemistry        |     
     |                    University of Bonn                     |     
      -----------------------------------------------------------      

   * xtb version 6.7.1 (edcfbbe) compiled by 'albert@albert-system' on 2024-07-22

   xtb is free software: you can redistribute it and/or modify it under
   the terms of the GNU Lesser General Public License as published by
   the Free Software Foundation, either version 3 of the License, or
   (at your option) any later version.
   
   xtb is distributed in the hope that it will be useful,
   but WITHOUT ANY WARRANTY; without even the implied warranty of
   MERCHANTABILITY or FITNESS FOR A PARTICULAR PURPOSE.  See the
   GNU Lesser General Public License for more details.
   
   Cite this work as:
   * C. Bannwarth, E. Caldeweyher, S. Ehlert, A. Hansen, P. Pracht,
     J. Seibert, S. Spicher, S. Grimme, WIREs Comput. Mol. Sci., 2020, 11,
     e01493. DOI: 10.1002/wcms.1493
   
   for GFN2-xTB:
   * C. Bannwarth, S. Ehlert and S. Grimme., J. Chem. Theory Comput., 2019,
     15, 1652-1671. DOI: 10.1021/acs.jctc.8b01176
   for GFN1-xTB:
   * S. Grimme, C. Bannwarth, P. Shushkov, J. Chem. Theory Comput., 2017,
     13, 1989-2009. DOI: 10.1021/acs.jctc.7b00118
   for GFN0-xTB:
   * P. Pracht, E. Caldeweyher, S. Ehlert, S. Grimme, ChemRxiv, 2019, preprint.
     DOI: 10.26434/chemrxiv.8326202.v1
   for GFN-FF:
   * S. Spicher and S. Grimme, Angew. Chem. Int. Ed., 2020, 59, 15665-15673.
     DOI: 10.1002/anie.202004239
   
   for ALPB and GBSA implicit solvation:
   * S. Ehlert, M. Stahn, S. Spicher, S. Grimme, J. Chem. Theory Comput.,
     2021, 17, 4250-4261. DOI: 10.1021/acs.jctc.1c00471
   
   for ddCOSMO and CPCM-X implicit solvation:
   * M. Stahn, S. Ehlert, S. Grimme, J. Phys. Chem. A,
     2023, XX, XXXX-XXXX. DOI: 10.1021/acs.jpca.3c04382
   
   for DFT-D4:
   * E. Caldeweyher, C. Bannwarth and S. Grimme, J. Chem. Phys., 2017,
     147, 034112. DOI: 10.1063/1.4993215
   * E. Caldeweyher, S. Ehlert, A. Hansen, H. Neugebauer, S. Spicher,
     C. Bannwarth and S. Grimme, J. Chem. Phys., 2019, 150, 154122.
     DOI: 10.1063/1.5090222
   * E. Caldeweyher, J.-M. Mewes, S. Ehlert and S. Grimme, Phys. Chem. Chem. Phys.
     2020, 22, 8499-8512. DOI: 10.1039/D0CP00502A
   
   for sTDA-xTB:
   * S. Grimme and C. Bannwarth, J. Chem. Phys., 2016, 145, 054103.
     DOI: 10.1063/1.4959605
   
   in the mass-spec context:
   * V. Asgeirsson, C. Bauer and S. Grimme, Chem. Sci., 2017, 8, 4879.
     DOI: 10.1039/c7sc00601b
   * J. Koopman and S. Grimme, ACS Omega 2019, 4, 12, 15120-15133.
     DOI: 10.1021/acsomega.9b02011
   
   for metadynamics refer to:
   * S. Grimme, J. Chem. Theory Comput., 2019, 155, 2847-2862
     DOI: 10.1021/acs.jctc.9b00143
   
   for SPH calculations refer to:
   * S. Spicher and S. Grimme, J. Chem. Theory Comput., 2021, 17, 1701-1714
     DOI: 10.1021/acs.jctc.0c01306
   
   for ONIOM refer to:
   * C. Plett, A. Katbashev, S. Ehlert, S. Grimme, M. Bursch,
     Phys. Chem. Chem. Phys., 2023, 25, 17860-17868. DOI: 10.1039/D3CP02178E
   
   for DIPRO refer to:
   * J. Kohn, N. Gildemeister, S. Grimme, D. Fazzi, A. Hansen,
     J. Chem. Phys., 2023, just accepted.
   
   for PTB refer to:
   * S. Grimme, M. Mueller, A. Hansen, J. Chem. Phys., 2023, 158, 124111.
     DOI: 10.1063/5.0137838
   
   with help from (in alphabetical order)
   P. Atkinson, C. Bannwarth, F. Bohle, G. Brandenburg, E. Caldeweyher
   M. Checinski, S. Dohm, S. Ehlert, S. Ehrlich, I. Gerasimov, C. Hölzer
   A. Katbashev, J. Kohn, J. Koopman, C. Lavigne, S. Lehtola, F. März, M. Müller,
   F. Musil, H. Neugebauer, J. Pisarek, C. Plett, P. Pracht, F. Pultar,
   J. Seibert, P. Shushkov, S. Spicher, M. Stahn, M. Steiner, T. Strunk,
   J. Stückrath, T. Rose, and J. Unsleber
   
 * started run on 2026/03/12 at 12:41:19.702     
   ID    Z sym.   atoms
    1    6 C      1
    2    1 H      2-4
    3   53 I      5
    4    9 F      6

           -------------------------------------------------
          |                Calculation Setup                |
           -------------------------------------------------

          program call               : /software/orca-6.1.0-el8-x86_64/bin/otool_xtb product_optfreq_XTB.xyz --grad -c -1 -u 0 -P 8 --namespace product_optfreq --input product_optfreq_XTB.input.tmp --acc 0.200000
          hostname                   : midway3-login4.rcc.local
          calculation namespace      : product_optfreq
          coordinate file            : product_optfreq_XTB.xyz
          omp threads                :                     8


molecular fragmentation (1/2 indicates fragments):
111121
# atoms in fragment 1/2:     5     1
 fragment masses (1/2) :       34.03      126.90
CMA distance (Bohr)    :   7.097
constraining FC (au)   :  0.0500

           -------------------------------------------------
          |                 G F N 2 - x T B                 |
           -------------------------------------------------

        Reference                      10.1021/acs.jctc.8b01176
      * Hamiltonian:
        H0-scaling (s, p, d)           1.850000    2.230000    2.230000
        zeta-weighting                 0.500000
      * Dispersion:
        s8                             2.700000
        a1                             0.520000
        a2                             5.000000
        s9                             5.000000
      * Repulsion:
        kExp                           1.500000    1.000000
        rExp                           1.000000
      * Coulomb:
        alpha                          2.000000
        third order                    shell-resolved
        anisotropic                    true
        a3                             3.000000
        a5                             4.000000
        cn-shift                       1.200000
        cn-exp                         4.000000
        max-rad                        5.000000

q/qsh data taken from xtbrestart
CAMM data taken from xtbrestart

          ...................................................
          :                      SETUP                      :
          :.................................................:
          :  # basis functions                  21          :
          :  # atomic orbitals                  20          :
          :  # shells                           10          :
          :  # electrons                        22          :
          :  max. iterations                   250          :
          :  Hamiltonian                  GFN2-xTB          :
          :  restarted?                       true          :
          :  GBSA solvation                  false          :
          :  PC potential                    false          :
          :  electronic temp.          300.0000000     K    :
          :  accuracy                    0.2000000          :
          :  -> integral cutoff          0.3198970E+02      :
          :  -> integral neglect         0.2000000E-08      :
          :  -> SCF convergence          0.2000000E-06 Eh   :
          :  -> wf. convergence          0.2000000E-04 e    :
          :  Broyden damping             0.4000000          :
          :  net charge                         -1          :
          :  unpaired electrons                  0          :
          ...................................................

 iter      E             dE          RMSdq      gap      omega  full diag
   1    -12.5101472 -0.125101E+02  0.110E+00    5.05       0.0  T
   2    -12.5105799 -0.432769E-03  0.490E-01    4.77       1.0  T
   3    -12.5106504 -0.704525E-04  0.159E-01    4.61       1.0  T
   4    -12.5106558 -0.538518E-05  0.561E-02    4.62       1.0  T
   5    -12.5106563 -0.472267E-06  0.179E-02    4.61       2.3  T
   6    -12.5106567 -0.419026E-06  0.503E-03    4.62       8.1  T
   7    -12.5106567 -0.117228E-07  0.300E-03    4.62      13.6  T
   8    -12.5106567 -0.243438E-08  0.273E-04    4.62     149.7  T
   9    -12.5106567 -0.739568E-10  0.306E-05    4.62    1333.6  T
  10    -12.5106567 -0.138556E-12  0.162E-05    4.62    2526.0  T

   *** convergence criteria satisfied after 10 iterations ***

         #    Occupation            Energy/Eh            Energy/eV
      -------------------------------------------------------------
         1        2.0000           -0.6173085             -16.7978
       ...           ...                  ...                  ...
         5        2.0000           -0.3679107             -10.0114
         6        2.0000           -0.3563704              -9.6973
         7        2.0000           -0.3015195              -8.2048
         8        2.0000           -0.3008487              -8.1865
         9        2.0000           -0.1755734              -4.7776
        10        2.0000           -0.1705815              -4.6418
        11        2.0000           -0.1705590              -4.6411 (HOMO)
        12                         -0.0008018              -0.0218 (LUMO)
        13                          0.2695694               7.3354
        14                          0.3296340               8.9698
        15                          0.3323164               9.0428
        16                          0.3697129              10.0604
       ...                                ...                  ...
        20                          0.4633607              12.6087
      -------------------------------------------------------------
                  HL-Gap            0.1697573 Eh            4.6193 eV
             Fermi-level           -0.0856804 Eh           -2.3315 eV

 SCC (total)                   0 d,  0 h,  0 min,  0.085 sec
 SCC setup                      ...        0 min,  0.000 sec (  0.206%)
 Dispersion                     ...        0 min,  0.000 sec (  0.060%)
 classical contributions        ...        0 min,  0.000 sec (  0.037%)
 integral evaluation            ...        0 min,  0.082 sec ( 96.356%)
 iterations                     ...        0 min,  0.002 sec (  2.376%)
 molecular gradient             ...        0 min,  0.001 sec (  0.766%)
 printout                       ...        0 min,  0.000 sec (  0.167%)

         :::::::::::::::::::::::::::::::::::::::::::::::::::::
         ::                     SUMMARY                     ::
         :::::::::::::::::::::::::::::::::::::::::::::::::::::
         :: total energy             -12.450586225876 Eh    ::
         :: gradient norm              0.059595020733 Eh/a0 ::
         :: HOMO-LUMO gap              4.619330494650 eV    ::
         ::.................................................::
         :: SCC energy               -12.510656802704 Eh    ::
         :: -> isotropic ES            0.161957239211 Eh    ::
         :: -> anisotropic ES         -0.001612863304 Eh    ::
         :: -> anisotropic XC          0.001573788269 Eh    ::
         :: -> dispersion             -0.002342822049 Eh    ::
         :: repulsion energy           0.060070576827 Eh    ::
         :: add. restraining           0.000000000000 Eh    ::
         :: total charge              -1.000000000000 e     ::
         :::::::::::::::::::::::::::::::::::::::::::::::::::::


Property printout bound to 'properties.out'

           -------------------------------------------------
          | TOTAL ENERGY              -12.450586225876 Eh   |
          | GRADIENT NORM               0.059595020733 Eh/α |
          | HOMO-LUMO GAP               4.619330494650 eV   |
           -------------------------------------------------

------------------------------------------------------------------------
 * finished run on 2026/03/12 at 12:41:19.801     
------------------------------------------------------------------------
 total:
 * wall-time:     0 d,  0 h,  0 min,  0.098 sec
 *  cpu-time:     0 d,  0 h,  0 min,  0.419 sec
 * ratio c/w:     4.265 speedup
 SCF:
 * wall-time:     0 d,  0 h,  0 min,  0.085 sec
 *  cpu-time:     0 d,  0 h,  0 min,  0.365 sec
 * ratio c/w:     4.306 speedup


-------------------------   --------------------
FINAL SINGLE POINT ENERGY       -12.450586225880
-------------------------   --------------------


-------------
DIPOLE MOMENT
-------------
                                X             Y             Z
Total Dipole Moment    :     -0.00000      -0.59000      -3.15100
                        -----------------------------------------
Magnitude (a.u.)       :      3.20576
Magnitude (Debye)      :      8.14840


------------------
CARTESIAN GRADIENT
------------------

   1   C   :   -0.000003147   -0.006333174    0.051485335
   2   H   :    0.000000296   -0.000271031   -0.008271681
   3   H   :   -0.001801281    0.000124189   -0.004364407
   4   H   :    0.001801889    0.000121581   -0.004365871
   5   I   :    0.000000220    0.000686732   -0.009482772
   6   F   :    0.000002023    0.005671703   -0.025000604

Difference to translation invariance:
           :   -0.0000000000    0.0000000000    0.0000000000

Difference to rotation invariance:
           :    0.0000000207    0.0000000000   -0.0000000000

Norm of the Cartesian gradient     ...    0.0595950207
RMS gradient                       ...    0.0140466811
MAX gradient                       ...    0.0514853354
------------------------------------------------------------------------------
                         ORCA GEOMETRY RELAXATION STEP
------------------------------------------------------------------------------

Reading the OPT-File                    .... done
Getting information on internals        .... done
Copying old internal coords+grads       .... done
Making the new internal coordinates     .... (2022 redundants) done
Validating the new internal coordinates .... (2022 redundants) done
Calculating the B-matrix                .... done
Calculating the G,G- and P matrices     .... done
Transforming gradient to internals      .... done
Projecting the internal gradient        .... done
Number of atoms                         ....   6
Number of internal coordinates          ....  18
Current Energy                          ....   -12.450586226 Eh
Current gradient norm                   ....     0.059595021 Eh/bohr
Maximum allowed component of the step   ....  0.300
Current trust radius                    ....  0.300
Updating the Hessian (BFGS)             .... done
Forming the augmented Hessian           .... done
Diagonalizing the augmented Hessian     .... done
Last element of RFO vector              ....  0.763946164
Lowest eigenvalues of augmented Hessian:
 -0.022195213  0.014338288  0.050731231  0.058559605  0.067149595
Length of the computed step             ....  0.844666831
Warning: the length of the step is outside the trust region - taking restricted step instead
The input lambda is                     ....     0.000893
   iter:   5  x=   -0.005726  g= 5487.552575 f(x)=    13.983984
   iter:  10  x=   -0.051789  g=   14.458291 f(x)=     0.224940
   iter:  15  x=   -0.076923  g=    1.960481 f(x)=     0.000000
The output lambda is                    ....    -0.076923 (17 iterations)
The final length of the internal step   ....  0.300000000
Converting the step to Cartesian space:
 Initial RMS(Int)=    0.0707106781
Transforming coordinates:
 Iter   0:  RMS(Cart)=    0.0498851457 RMS(Int)=    0.0708766591
 Iter   5:  RMS(Cart)=    0.0000000098 RMS(Int)=    0.0000000091
done
Storing new coordinates                 .... done
The predicted energy change is          ....    -0.007869020
Previously predicted energy change      ....    -0.003383797
Actually observed energy change         ....    -0.005315903
Ratio of predicted to observed change   ....     1.570987480
New trust radius                        ....     0.200000000

                                .--------------------.
          ----------------------|Geometry convergence|-------------------------
          Item                value                   Tolerance       Converged
          ---------------------------------------------------------------------
          Energy change      -0.0053159027            0.0000050000      NO
          RMS gradient        0.0073295689            0.0001000000      NO
          MAX gradient        0.0252672150            0.0003000000      NO
          RMS step            0.0707106781            0.0020000000      NO
          MAX step            0.2174886466            0.0040000000      NO
          -------------------------------------------------------------------------
          ........................................................
          Max(Bonds)      0.1151      Max(Angles)    5.57
          Max(Dihed)        0.00      Max(Improp)    0.00
          ---------------------------------------------------------------------

The optimization has not yet converged - more geometry cycles are needed


    ---------------------------------------------------------------------------
                         Redundant Internal Coordinates
                            (Angstroem and degrees)

        Definition                    Value    dE/dq     Step     New-Value
    ----------------------------------------------------------------------------
     1. B(H   1,C   0)                1.0705 -0.001656 -0.0159    1.0546   
     2. B(H   2,C   0)                1.0701 -0.002273  0.0006    1.0707   
     3. B(H   3,C   0)                1.0701 -0.002274  0.0006    1.0707   
     4. B(I   4,H   1)                2.8821  0.000102  0.0225    2.9046   
     5. B(I   4,C   0)                2.8924 -0.009594  0.0693    2.9617   
     6. B(I   4,H   3)                2.9408  0.000022  0.0187    2.9595   
     7. B(I   4,H   2)                2.9408  0.000022  0.0187    2.9595   
     8. B(F   5,C   0)                1.5778  0.025267 -0.1151    1.4627   
     9. A(H   1,C   0,H   3)          117.95  0.003076   -1.57    116.38   
    10. A(H   2,C   0,H   3)          116.74  0.001393   -0.40    116.34   
    11. A(H   1,C   0,F   5)           96.49 -0.009887    5.57    102.06   
    12. A(H   2,C   0,F   5)          100.41 -0.002169    0.78    101.19   
    13. A(H   3,C   0,F   5)          100.41 -0.002172    0.78    101.19   
    14. A(H   1,C   0,I   4)           78.77  0.004684   -2.12     76.65   
    15. A(H   2,C   0,I   4)           81.99  0.004817   -2.55     79.44   
    16. A(H   3,C   0,I   4)           81.99  0.004817   -2.55     79.44   
    17. A(I   4,C   0,F   5)          175.26 -0.005202    3.45    178.71   
    18. A(H   1,C   0,H   2)          117.95  0.003075   -1.57    116.38   
    ----------------------------------------------------------------------------

Geometry step timings:
Preparation and reading OPT file:      0.000 s ( 2.240 %)
Internal coordinates            :      0.000 s ( 2.951 %)
B/P matrices and projection     :      0.000 s (11.148 %)
Hessian update/contruction      :      0.001 s (33.115 %)
Making the step                 :      0.000 s (14.098 %)
Converting the step to Cartesian:      0.000 s ( 3.224 %)
Storing new data                :      0.000 s ( 6.284 %)
Checking convergence            :      0.000 s ( 6.503 %)
Final printing                  :      0.000 s (20.328 %)
Total time                      :      0.002 s

Time for energy+gradient        :      0.151 s
Time for complete geometry iter :      0.155 s

         *************************************************************
         *                GEOMETRY OPTIMIZATION CYCLE   3            *
         *************************************************************
---------------------------------
CARTESIAN COORDINATES (ANGSTROEM)
---------------------------------
  C     0.000134    0.218670   -0.460617
  H     0.000796    1.247990   -0.231594
  H     0.908473   -0.310745   -0.258093
  H    -0.908881   -0.309589   -0.258071
  I     0.000169    0.260098    2.500240
  F     0.000127    0.231594   -1.923238

----------------------------
CARTESIAN COORDINATES (A.U.)
----------------------------
  NO LB    ZA    FRAG    MASS        X           Y           Z
   0 C   6.0000    0    12.011    0.000254    0.413227   -0.870441
   1 H   1.0000    0     1.008    0.001503    2.358359   -0.437649
   2 H   1.0000    0     1.008    1.716766   -0.587224   -0.487725
   3 H   1.0000    0     1.008   -1.717536   -0.585039   -0.487683
   4 I  53.0000    0   126.900    0.000319    0.491515    4.724768
   5 F   9.0000    0    18.998    0.000240    0.437650   -3.634393

      -----------------------------------------------------------      
     |                   =====================                   |     
     |                           x T B                           |     
     |                   =====================                   |     
     |                         S. Grimme                         |     
     |          Mulliken Center for Theoretical Chemistry        |     
     |                    University of Bonn                     |     
      -----------------------------------------------------------      

   * xtb version 6.7.1 (edcfbbe) compiled by 'albert@albert-system' on 2024-07-22

   xtb is free software: you can redistribute it and/or modify it under
   the terms of the GNU Lesser General Public License as published by
   the Free Software Foundation, either version 3 of the License, or
   (at your option) any later version.
   
   xtb is distributed in the hope that it will be useful,
   but WITHOUT ANY WARRANTY; without even the implied warranty of
   MERCHANTABILITY or FITNESS FOR A PARTICULAR PURPOSE.  See the
   GNU Lesser General Public License for more details.
   
   Cite this work as:
   * C. Bannwarth, E. Caldeweyher, S. Ehlert, A. Hansen, P. Pracht,
     J. Seibert, S. Spicher, S. Grimme, WIREs Comput. Mol. Sci., 2020, 11,
     e01493. DOI: 10.1002/wcms.1493
   
   for GFN2-xTB:
   * C. Bannwarth, S. Ehlert and S. Grimme., J. Chem. Theory Comput., 2019,
     15, 1652-1671. DOI: 10.1021/acs.jctc.8b01176
   for GFN1-xTB:
   * S. Grimme, C. Bannwarth, P. Shushkov, J. Chem. Theory Comput., 2017,
     13, 1989-2009. DOI: 10.1021/acs.jctc.7b00118
   for GFN0-xTB:
   * P. Pracht, E. Caldeweyher, S. Ehlert, S. Grimme, ChemRxiv, 2019, preprint.
     DOI: 10.26434/chemrxiv.8326202.v1
   for GFN-FF:
   * S. Spicher and S. Grimme, Angew. Chem. Int. Ed., 2020, 59, 15665-15673.
     DOI: 10.1002/anie.202004239
   
   for ALPB and GBSA implicit solvation:
   * S. Ehlert, M. Stahn, S. Spicher, S. Grimme, J. Chem. Theory Comput.,
     2021, 17, 4250-4261. DOI: 10.1021/acs.jctc.1c00471
   
   for ddCOSMO and CPCM-X implicit solvation:
   * M. Stahn, S. Ehlert, S. Grimme, J. Phys. Chem. A,
     2023, XX, XXXX-XXXX. DOI: 10.1021/acs.jpca.3c04382
   
   for DFT-D4:
   * E. Caldeweyher, C. Bannwarth and S. Grimme, J. Chem. Phys., 2017,
     147, 034112. DOI: 10.1063/1.4993215
   * E. Caldeweyher, S. Ehlert, A. Hansen, H. Neugebauer, S. Spicher,
     C. Bannwarth and S. Grimme, J. Chem. Phys., 2019, 150, 154122.
     DOI: 10.1063/1.5090222
   * E. Caldeweyher, J.-M. Mewes, S. Ehlert and S. Grimme, Phys. Chem. Chem. Phys.
     2020, 22, 8499-8512. DOI: 10.1039/D0CP00502A
   
   for sTDA-xTB:
   * S. Grimme and C. Bannwarth, J. Chem. Phys., 2016, 145, 054103.
     DOI: 10.1063/1.4959605
   
   in the mass-spec context:
   * V. Asgeirsson, C. Bauer and S. Grimme, Chem. Sci., 2017, 8, 4879.
     DOI: 10.1039/c7sc00601b
   * J. Koopman and S. Grimme, ACS Omega 2019, 4, 12, 15120-15133.
     DOI: 10.1021/acsomega.9b02011
   
   for metadynamics refer to:
   * S. Grimme, J. Chem. Theory Comput., 2019, 155, 2847-2862
     DOI: 10.1021/acs.jctc.9b00143
   
   for SPH calculations refer to:
   * S. Spicher and S. Grimme, J. Chem. Theory Comput., 2021, 17, 1701-1714
     DOI: 10.1021/acs.jctc.0c01306
   
   for ONIOM refer to:
   * C. Plett, A. Katbashev, S. Ehlert, S. Grimme, M. Bursch,
     Phys. Chem. Chem. Phys., 2023, 25, 17860-17868. DOI: 10.1039/D3CP02178E
   
   for DIPRO refer to:
   * J. Kohn, N. Gildemeister, S. Grimme, D. Fazzi, A. Hansen,
     J. Chem. Phys., 2023, just accepted.
   
   for PTB refer to:
   * S. Grimme, M. Mueller, A. Hansen, J. Chem. Phys., 2023, 158, 124111.
     DOI: 10.1063/5.0137838
   
   with help from (in alphabetical order)
   P. Atkinson, C. Bannwarth, F. Bohle, G. Brandenburg, E. Caldeweyher
   M. Checinski, S. Dohm, S. Ehlert, S. Ehrlich, I. Gerasimov, C. Hölzer
   A. Katbashev, J. Kohn, J. Koopman, C. Lavigne, S. Lehtola, F. März, M. Müller,
   F. Musil, H. Neugebauer, J. Pisarek, C. Plett, P. Pracht, F. Pultar,
   J. Seibert, P. Shushkov, S. Spicher, M. Stahn, M. Steiner, T. Strunk,
   J. Stückrath, T. Rose, and J. Unsleber
   
 * started run on 2026/03/12 at 12:41:19.859     
   ID    Z sym.   atoms
    1    6 C      1
    2    1 H      2-4
    3   53 I      5
    4    9 F      6

           -------------------------------------------------
          |                Calculation Setup                |
           -------------------------------------------------

          program call               : /software/orca-6.1.0-el8-x86_64/bin/otool_xtb product_optfreq_XTB.xyz --grad -c -1 -u 0 -P 8 --namespace product_optfreq --input product_optfreq_XTB.input.tmp --acc 0.200000
          hostname                   : midway3-login4.rcc.local
          calculation namespace      : product_optfreq
          coordinate file            : product_optfreq_XTB.xyz
          omp threads                :                     8


molecular fragmentation (1/2 indicates fragments):
111121
# atoms in fragment 1/2:     5     1
 fragment masses (1/2) :       34.03      126.90
CMA distance (Bohr)    :   7.103
constraining FC (au)   :  0.0500

           -------------------------------------------------
          |                 G F N 2 - x T B                 |
           -------------------------------------------------

        Reference                      10.1021/acs.jctc.8b01176
      * Hamiltonian:
        H0-scaling (s, p, d)           1.850000    2.230000    2.230000
        zeta-weighting                 0.500000
      * Dispersion:
        s8                             2.700000
        a1                             0.520000
        a2                             5.000000
        s9                             5.000000
      * Repulsion:
        kExp                           1.500000    1.000000
        rExp                           1.000000
      * Coulomb:
        alpha                          2.000000
        third order                    shell-resolved
        anisotropic                    true
        a3                             3.000000
        a5                             4.000000
        cn-shift                       1.200000
        cn-exp                         4.000000
        max-rad                        5.000000

q/qsh data taken from xtbrestart
CAMM data taken from xtbrestart

          ...................................................
          :                      SETUP                      :
          :.................................................:
          :  # basis functions                  21          :
          :  # atomic orbitals                  20          :
          :  # shells                           10          :
          :  # electrons                        22          :
          :  max. iterations                   250          :
          :  Hamiltonian                  GFN2-xTB          :
          :  restarted?                       true          :
          :  GBSA solvation                  false          :
          :  PC potential                    false          :
          :  electronic temp.          300.0000000     K    :
          :  accuracy                    0.2000000          :
          :  -> integral cutoff          0.3198970E+02      :
          :  -> integral neglect         0.2000000E-08      :
          :  -> SCF convergence          0.2000000E-06 Eh   :
          :  -> wf. convergence          0.2000000E-04 e    :
          :  Broyden damping             0.4000000          :
          :  net charge                         -1          :
          :  unpaired electrons                  0          :
          ...................................................

 iter      E             dE          RMSdq      gap      omega  full diag
   1    -12.5223442 -0.125223E+02  0.712E-01    7.31       0.0  T
   2    -12.5227112 -0.367018E-03  0.352E-01    7.01       1.0  T
   3    -12.5227941 -0.828786E-04  0.149E-01    6.77       1.0  T
   4    -12.5227968 -0.274282E-05  0.360E-02    6.74       1.1  T
   5    -12.5227971 -0.279622E-06  0.233E-02    6.73       1.8  T
   6    -12.5227972 -0.124661E-06  0.466E-03    6.74       8.8  T
   7    -12.5227972 -0.299439E-08  0.131E-03    6.74      31.3  T
   8    -12.5227972 -0.128172E-08  0.259E-04    6.74     157.9  T
   9    -12.5227972 -0.427338E-10  0.288E-05    6.74    1417.6  T
  10    -12.5227972 -0.337508E-12  0.101E-05    6.74    4039.5  T

   *** convergence criteria satisfied after 10 iterations ***

         #    Occupation            Energy/Eh            Energy/eV
      -------------------------------------------------------------
         1        2.0000           -0.6487027             -17.6521
       ...           ...                  ...                  ...
         5        2.0000           -0.3838277             -10.4445
         6        2.0000           -0.3803947             -10.3511
         7        2.0000           -0.3140541              -8.5458
         8        2.0000           -0.3138522              -8.5404
         9        2.0000           -0.1666032              -4.5335
        10        2.0000           -0.1630123              -4.4358
        11        2.0000           -0.1630041              -4.4356 (HOMO)
        12                          0.0846529               2.3035 (LUMO)
        13                          0.2882939               7.8449
        14                          0.3384750               9.2104
        15                          0.3424323               9.3181
        16                          0.3865953              10.5198
       ...                                ...                  ...
        20                          0.4772305              12.9861
      -------------------------------------------------------------
                  HL-Gap            0.2476570 Eh            6.7391 eV
             Fermi-level           -0.0391756 Eh           -1.0660 eV

 SCC (total)                   0 d,  0 h,  0 min,  0.104 sec
 SCC setup                      ...        0 min,  0.000 sec (  0.168%)
 Dispersion                     ...        0 min,  0.000 sec (  0.054%)
 classical contributions        ...        0 min,  0.000 sec (  0.024%)
 integral evaluation            ...        0 min,  0.102 sec ( 98.013%)
 iterations                     ...        0 min,  0.001 sec (  1.238%)
 molecular gradient             ...        0 min,  0.000 sec (  0.384%)
 printout                       ...        0 min,  0.000 sec (  0.104%)

         :::::::::::::::::::::::::::::::::::::::::::::::::::::
         ::                     SUMMARY                     ::
         :::::::::::::::::::::::::::::::::::::::::::::::::::::
         :: total energy             -12.457985750146 Eh    ::
         :: gradient norm              0.057996412620 Eh/a0 ::
         :: HOMO-LUMO gap              6.739091259001 eV    ::
         ::.................................................::
         :: SCC energy               -12.522797328037 Eh    ::
         :: -> isotropic ES            0.163393251882 Eh    ::
         :: -> anisotropic ES         -0.001994711150 Eh    ::
         :: -> anisotropic XC         -0.000258390387 Eh    ::
         :: -> dispersion             -0.002350429827 Eh    ::
         :: repulsion energy           0.064811577891 Eh    ::
         :: add. restraining           0.000000000000 Eh    ::
         :: total charge              -1.000000000000 e     ::
         :::::::::::::::::::::::::::::::::::::::::::::::::::::


Property printout bound to 'properties.out'

           -------------------------------------------------
          | TOTAL ENERGY              -12.457985750146 Eh   |
          | GRADIENT NORM               0.057996412620 Eh/α |
          | HOMO-LUMO GAP               6.739091259001 eV   |
           -------------------------------------------------

------------------------------------------------------------------------
 * finished run on 2026/03/12 at 12:41:19.986     
------------------------------------------------------------------------
 total:
 * wall-time:     0 d,  0 h,  0 min,  0.126 sec
 *  cpu-time:     0 d,  0 h,  0 min,  0.645 sec
 * ratio c/w:     5.107 speedup
 SCF:
 * wall-time:     0 d,  0 h,  0 min,  0.105 sec
 *  cpu-time:     0 d,  0 h,  0 min,  0.589 sec
 * ratio c/w:     5.631 speedup


-------------------------   --------------------
FINAL SINGLE POINT ENERGY       -12.457985750150
-------------------------   --------------------


-------------
DIPOLE MOMENT
-------------
                                X             Y             Z
Total Dipole Moment    :     -0.00000      -0.49600      -3.60200
                        -----------------------------------------
Magnitude (a.u.)       :      3.63599
Magnitude (Debye)      :      9.24195


------------------
CARTESIAN GRADIENT
------------------

   1   C   :    0.000010494    0.010147586    0.050234250
   2   H   :   -0.000008816   -0.014141524   -0.010343118
   3   H   :   -0.002929201    0.002144738   -0.009507018
   4   H   :    0.002927866    0.002138352   -0.009505724
   5   I   :   -0.000000050    0.000168321   -0.012005887
   6   F   :   -0.000000292   -0.000457474   -0.008872503

Difference to translation invariance:
           :   -0.0000000000    0.0000000000   -0.0000000000

Difference to rotation invariance:
           :    0.0000000133    0.0000000000   -0.0000000000

Norm of the Cartesian gradient     ...    0.0579964126
RMS gradient                       ...    0.0136698855
MAX gradient                       ...    0.0502342501
------------------------------------------------------------------------------
                         ORCA GEOMETRY RELAXATION STEP
------------------------------------------------------------------------------

Reading the OPT-File                    .... done
Getting information on internals        .... done
Copying old internal coords+grads       .... done
Making the new internal coordinates     .... (2022 redundants) done
Validating the new internal coordinates .... (2022 redundants) done
Calculating the B-matrix                .... done
Calculating the G,G- and P matrices     .... done
Transforming gradient to internals      .... done
Projecting the internal gradient        .... done
Number of atoms                         ....   6
Number of internal coordinates          ....  18
Current Energy                          ....   -12.457985750 Eh
Current gradient norm                   ....     0.057996413 Eh/bohr
Maximum allowed component of the step   ....  0.300
Current trust radius                    ....  0.200
Updating the Hessian (BFGS)             .... done
Forming the augmented Hessian           .... done
Diagonalizing the augmented Hessian     .... done
Last element of RFO vector              ....  0.808549753
Lowest eigenvalues of augmented Hessian:
 -0.012435190  0.009656855  0.050731231  0.051299507  0.065011868
Length of the computed step             ....  0.727757094
Warning: the length of the step is outside the trust region - taking restricted step instead
The input lambda is                     ....     0.002335
   iter:   5  x=   -0.004332  g= 1709.124255 f(x)=     4.411426
   iter:  10  x=   -0.052178  g=    4.524069 f(x)=     0.071405
   iter:  15  x=   -0.071998  g=    0.851675 f(x)=     0.000000
The output lambda is                    ....    -0.071998 (16 iterations)
The final length of the internal step   ....  0.200000000
Converting the step to Cartesian space:
 Initial RMS(Int)=    0.0471404521
Transforming coordinates:
 Iter   0:  RMS(Cart)=    0.0257244035 RMS(Int)=    0.0469622085
 Iter   5:  RMS(Cart)=    0.0014890870 RMS(Int)=    0.0011358984
 Iter  10:  RMS(Cart)=    0.0008079947 RMS(Int)=    0.0006166215
 Iter  15:  RMS(Cart)=    0.0004373120 RMS(Int)=    0.0003338126
 Iter  20:  RMS(Cart)=    0.0002363511 RMS(Int)=    0.0001804360
 Iter  25:  RMS(Cart)=    0.0001276395 RMS(Int)=    0.0000974495
 Iter  30:  RMS(Cart)=    0.0000689014 RMS(Int)=    0.0000526064
 Iter  35:  RMS(Cart)=    0.0000371853 RMS(Int)=    0.0000283916
 Iter  40:  RMS(Cart)=    0.0000200660 RMS(Int)=    0.0000153209
 Iter  45:  RMS(Cart)=    0.0000108273 RMS(Int)=    0.0000082669
 Iter  50:  RMS(Cart)=    0.0000058420 RMS(Int)=    0.0000044606
 Iter  55:  RMS(Cart)=    0.0000031521 RMS(Int)=    0.0000024067
 Iter  60:  RMS(Cart)=    0.0000017007 RMS(Int)=    0.0000012985
 Iter  65:  RMS(Cart)=    0.0000009176 RMS(Int)=    0.0000007006
 Iter  70:  RMS(Cart)=    0.0000004951 RMS(Int)=    0.0000003780
 Iter  75:  RMS(Cart)=    0.0000002671 RMS(Int)=    0.0000002040
 Iter  80:  RMS(Cart)=    0.0000001441 RMS(Int)=    0.0000001100
done
Storing new coordinates                 .... done
The predicted energy change is          ....    -0.003663849
Previously predicted energy change      ....    -0.007869020
Actually observed energy change         ....    -0.007399524
Ratio of predicted to observed change   ....     0.940336235
New trust radius                        ....     0.300000000

                                .--------------------.
          ----------------------|Geometry convergence|-------------------------
          Item                value                   Tolerance       Converged
          ---------------------------------------------------------------------
          Energy change      -0.0073995243            0.0000050000      NO
          RMS gradient        0.0069447700            0.0001000000      NO
          MAX gradient        0.0159690824            0.0003000000      NO
          RMS step            0.0471404521            0.0020000000      NO
          MAX step            0.1171041120            0.0040000000      NO
          -------------------------------------------------------------------------
          ........................................................
          Max(Bonds)      0.0620      Max(Angles)    3.72
          Max(Dihed)        0.00      Max(Improp)    0.00
          ---------------------------------------------------------------------

The optimization has not yet converged - more geometry cycles are needed


    ---------------------------------------------------------------------------
                         Redundant Internal Coordinates
                            (Angstroem and degrees)

        Definition                    Value    dE/dq     Step     New-Value
    ----------------------------------------------------------------------------
     1. B(H   1,C   0)                1.0545 -0.015969  0.0061    1.0606   
     2. B(H   2,C   0)                1.0707 -0.005444  0.0044    1.0751   
     3. B(H   3,C   0)                1.0707 -0.005439  0.0044    1.0751   
     4. B(I   4,H   1)                2.9050 -0.000637  0.0213    2.9262   
     5. B(I   4,C   0)                2.9611 -0.012448  0.0620    3.0231   
     6. B(I   4,H   3)                2.9596  0.000557  0.0146    2.9742   
     7. B(I   4,H   2)                2.9596  0.000557  0.0146    2.9742   
[...]
                  HL-Gap            0.3319684 Eh            9.0333 eV
             Fermi-level            0.0122257 Eh            0.3327 eV

 SCC (total)                   0 d,  0 h,  0 min,  0.096 sec
 SCC setup                      ...        0 min,  0.000 sec (  0.214%)
 Dispersion                     ...        0 min,  0.000 sec (  0.068%)
 classical contributions        ...        0 min,  0.000 sec (  0.029%)
 integral evaluation            ...        0 min,  0.095 sec ( 97.971%)
 iterations                     ...        0 min,  0.001 sec (  1.123%)
 molecular gradient             ...        0 min,  0.000 sec (  0.421%)
 printout                       ...        0 min,  0.000 sec (  0.152%)

         :::::::::::::::::::::::::::::::::::::::::::::::::::::
         ::                     SUMMARY                     ::
         :::::::::::::::::::::::::::::::::::::::::::::::::::::
         :: total energy             -12.467186221761 Eh    ::
         :: gradient norm              0.000473227916 Eh/a0 ::
         :: HOMO-LUMO gap              9.033318807045 eV    ::
         ::.................................................::
         :: SCC energy               -12.526727190356 Eh    ::
         :: -> isotropic ES            0.167390128363 Eh    ::
         :: -> anisotropic ES         -0.000912620380 Eh    ::
         :: -> anisotropic XC         -0.001441398135 Eh    ::
         :: -> dispersion             -0.002227130318 Eh    ::
         :: repulsion energy           0.059540968595 Eh    ::
         :: add. restraining           0.000000000000 Eh    ::
         :: total charge              -1.000000000000 e     ::
         :::::::::::::::::::::::::::::::::::::::::::::::::::::

           ------------------------------------------------- 
          |                Numerical Hessian                |
           ------------------------------------------------- 
step length          :   0.00500
SCC accuracy         :   0.30000
Hessian scale factor :   1.00000
frozen atoms in %    :   0.00000    0
RMS gradient         :   0.00047
estimated CPU  time      0.00 min
estimated wall time      0.00 min

writing file <hessian>.

 projected vibrational frequencies (cm⁻¹)
eigval :       -0.00    -0.00    -0.00    -0.00     0.00     0.00
eigval :       93.61    99.67    99.96  1001.49  1105.56  1107.01
eigval :     1386.19  1450.95  1451.98  3037.66  3044.96  3045.21

Property printout bound to 'properties.out'
Refinement of some symmetry elements was terminated before convergence was reached.
Some symmetry elements may remain unidentified.
Molecule has the following symmetry elements: (C3) 3*(sigma) 
It seems to be the C3v point group

           -------------------------------------------------
          | TOTAL ENERGY              -12.467186221761 Eh   |
          | TOTAL ENTHALPY            -12.422530966347 Eh   |
          | TOTAL FREE ENERGY         -12.457974320098 Eh   |
          | GRADIENT NORM               0.000473228511 Eh/α |
          | HOMO-LUMO GAP               9.033318768005 eV   |
           -------------------------------------------------

------------------------------------------------------------------------
 * finished run on 2026/03/12 at 12:41:21.198     
------------------------------------------------------------------------
 total:
 * wall-time:     0 d,  0 h,  0 min,  0.137 sec
 *  cpu-time:     0 d,  0 h,  0 min,  0.675 sec
 * ratio c/w:     4.937 speedup
 SCF:
 * wall-time:     0 d,  0 h,  0 min,  0.097 sec
 *  cpu-time:     0 d,  0 h,  0 min,  0.494 sec
 * ratio c/w:     5.108 speedup
 analytical hessian:
 * wall-time:     0 d,  0 h,  0 min,  0.014 sec
 *  cpu-time:     0 d,  0 h,  0 min,  0.111 sec
 * ratio c/w:     7.893 speedup


-------------------------   --------------------
FINAL SINGLE POINT ENERGY       -12.467186221760
-------------------------   --------------------


-------------
DIPOLE MOMENT
-------------
                                X             Y             Z
Total Dipole Moment    :     -0.00000      -0.37600      -4.25700
                        -----------------------------------------
Magnitude (a.u.)       :      4.27357
Magnitude (Debye)      :     10.86256


-----------------------
VIBRATIONAL FREQUENCIES
-----------------------

Scaling factor for frequencies =  1.000000000  (already applied!)

     0:       0.00 cm**-1
     1:       0.00 cm**-1
     2:       0.00 cm**-1
     3:       0.00 cm**-1
     4:       0.00 cm**-1
     5:       0.00 cm**-1
     6:      93.61 cm**-1
     7:      99.67 cm**-1
     8:      99.96 cm**-1
     9:    1001.48 cm**-1
    10:    1105.53 cm**-1
    11:    1106.99 cm**-1
    12:    1386.16 cm**-1
    13:    1450.91 cm**-1
    14:    1451.94 cm**-1
    15:    3037.57 cm**-1
    16:    3044.88 cm**-1
    17:    3045.12 cm**-1


------------
NORMAL MODES
------------

These modes are the Cartesian displacements weighted by the diagonal matrix
M(i,i)=1/sqrt(m[i]) where m[i] is the mass of the displaced atom
Thus, these vectors are normalized but *not* orthogonal

                  0          1          2          3          4          5    
      0       0.000000   0.000000   0.000000   0.000000   0.000000   0.000000
      1       0.000000   0.000000   0.000000   0.000000   0.000000   0.000000
      2       0.000000   0.000000   0.000000   0.000000   0.000000   0.000000
      3       0.000000   0.000000   0.000000   0.000000   0.000000   0.000000
      4       0.000000   0.000000   0.000000   0.000000   0.000000   0.000000
      5       0.000000   0.000000   0.000000   0.000000   0.000000   0.000000
      6       0.000000   0.000000   0.000000   0.000000   0.000000   0.000000
      7       0.000000   0.000000   0.000000   0.000000   0.000000   0.000000
      8       0.000000   0.000000   0.000000   0.000000   0.000000   0.000000
      9       0.000000   0.000000   0.000000   0.000000   0.000000   0.000000
     10       0.000000   0.000000   0.000000   0.000000   0.000000   0.000000
     11       0.000000   0.000000   0.000000   0.000000   0.000000   0.000000
     12       0.000000   0.000000   0.000000   0.000000   0.000000   0.000000
     13       0.000000   0.000000   0.000000   0.000000   0.000000   0.000000
     14       0.000000   0.000000   0.000000   0.000000   0.000000   0.000000
     15       0.000000   0.000000   0.000000   0.000000   0.000000   0.000000
     16       0.000000   0.000000   0.000000   0.000000   0.000000   0.000000
     17       0.000000   0.000000   0.000000   0.000000   0.000000   0.000000
                  6          7          8          9         10         11    
      0       0.000122   0.328609  -0.000445  -0.000012  -0.134999  -0.000092
      1       0.235728   0.000300   0.314001  -0.015483   0.000093  -0.134877
      2      -0.314702   0.000208   0.140052  -0.564516   0.000000   0.003635
      3       0.000162   0.393361  -0.000512  -0.000018   0.268400   0.000090
      4       0.322696   0.000446   0.429111  -0.023588  -0.000178   0.125438
      5      -0.589181  -0.000400  -0.233174  -0.409253   0.000030  -0.750630
      6      -0.002096   0.487627  -0.003428  -0.010738   0.176279   0.053000
      7       0.329796   0.040353   0.438355  -0.003642   0.036198   0.246769
      8      -0.172173  -0.333593   0.318273  -0.408896  -0.648942   0.369060
      9       0.002443   0.487588   0.002085   0.010728   0.176244  -0.052666
     10       0.329784  -0.039552   0.438489  -0.003655  -0.036445   0.246837
     11      -0.172230   0.334587   0.316957  -0.408900   0.648909   0.369115
     12      -0.000005  -0.013909   0.000019   0.000000  -0.000010   0.000000
     13      -0.009945  -0.000013  -0.013305   0.000017  -0.000000  -0.000010
     14       0.082662  -0.000059  -0.039320  -0.000030   0.000000  -0.000037
     15      -0.000073  -0.187463   0.000255   0.000009   0.052471   0.000036
     16      -0.134724  -0.000171  -0.178936   0.011313  -0.000036   0.052494
     17      -0.303655   0.000231   0.152765   0.422206  -0.000000  -0.001393
                 12         13         14         15         16         17    
      0      -0.000002  -0.064442   0.000054  -0.000004   0.089767   0.000130
      1      -0.002811   0.000054   0.064395  -0.003932  -0.000130   0.089692
      2      -0.112790   0.000000  -0.001813  -0.037304   0.000002  -0.003721
      3      -0.000112   0.736039  -0.000064   0.000372   0.045254  -0.000451
      4      -0.182093  -0.000451   0.117655   0.581500   0.000585  -0.755053
      5       0.545549  -0.000067  -0.327122   0.162601   0.000190  -0.234872
      6      -0.169512   0.089354  -0.374601   0.465254  -0.565060   0.368804
      7       0.112410   0.380870  -0.515958  -0.266607   0.347466  -0.164475
      8       0.535526   0.271851   0.176072   0.171667  -0.235353   0.140664
      9       0.169661   0.089001   0.373904  -0.465580  -0.564922  -0.369922
     10       0.112192  -0.381179  -0.516295  -0.266005  -0.346481  -0.164557
     11       0.535523  -0.271788   0.176170   0.171666   0.235137   0.141046
     12      -0.000000  -0.000021   0.000000  -0.000000  -0.000018  -0.000000
     13      -0.000002   0.000000   0.000026   0.000001   0.000000  -0.000017
     14      -0.000190  -0.000000  -0.000013  -0.000057   0.000000  -0.000007
     15      -0.000000  -0.007635   0.000006  -0.000000   0.000919   0.000001
     16      -0.000462   0.000006   0.007644  -0.000117  -0.000001   0.000931
     17      -0.013197   0.000000  -0.000102  -0.002882   0.000000  -0.000087


The first frequency considered to be a vibration is 6
The total number of vibrations considered is 12


--------------------------
THERMOCHEMISTRY AT 298.15K
--------------------------

Temperature         ...   298.15 K
Pressure            ...     1.00 atm
Total Mass          ...   160.93 AMU
Quasi RRHO          ...     True
Cut-Off Frequency   ...     1.00 cm^-1

Throughout the following assumptions are being made:
  (1) The electronic state is orbitally nondegenerate
  (2) There are no thermally accessible electronically excited states
  (3) Hindered rotations indicated by low frequency modes are not
      treated as such but are treated as vibrations and this may
      cause some error
  (4) All equations used are the standard statistical mechanics
      equations for an ideal gas
  (5) All vibrations are strictly harmonic

freq.      93.61  E(vib)   ...       0.47 
freq.      99.67  E(vib)   ...       0.46 
freq.      99.96  E(vib)   ...       0.46 
freq.    1001.48  E(vib)   ...       0.02 
freq.    1105.53  E(vib)   ...       0.02 
freq.    1106.99  E(vib)   ...       0.02 
freq.    1386.16  E(vib)   ...       0.00 
freq.    1450.91  E(vib)   ...       0.00 
freq.    1451.94  E(vib)   ...       0.00 
freq.    3037.57  E(vib)   ...       0.00 
freq.    3044.88  E(vib)   ...       0.00 
freq.    3045.12  E(vib)   ...       0.00 

------------
INNER ENERGY
------------

The inner energy is: U= E(el) + E(ZPE) + E(vib) + E(rot) + E(trans)
    E(el)   - is the total energy from the electronic structure calculation
              = E(kin-el) + E(nuc-el) + E(el-el) + E(nuc-nuc)
    E(ZPE)  - the the zero temperature vibrational energy from the frequency calculation
    E(vib)  - the the finite temperature correction to E(ZPE) due to population
              of excited vibrational states
    E(rot)  - is the rotational thermal energy
    E(trans)- is the translational thermal energy

Summary of contributions to the inner energy U:
Electronic energy                ...    -12.46718622 Eh
Zero point energy                ...      0.03855529 Eh      24.19 kcal/mol
Thermal vibrational correction   ...      0.00232215 Eh       1.46 kcal/mol
Thermal rotational correction    ...      0.00141627 Eh       0.89 kcal/mol
Thermal translational correction ...      0.00141627 Eh       0.89 kcal/mol
-----------------------------------------------------------------------
Total thermal energy                    -12.42347623 Eh


Summary of corrections to the electronic energy:
(perhaps to be used in another calculation)
Total thermal correction                  0.00515470 Eh       3.23 kcal/mol
Non-thermal (ZPE) correction              0.03855529 Eh      24.19 kcal/mol
-----------------------------------------------------------------------
Total correction                          0.04370999 Eh      27.43 kcal/mol


--------
ENTHALPY
--------

The enthalpy is H = U + kB*T
                kB is Boltzmann's constant
Total thermal energy              ...    -12.42347623 Eh 
Thermal Enthalpy correction       ...      0.00094421 Eh       0.59 kcal/mol
-----------------------------------------------------------------------
Total Enthalpy                    ...    -12.42253202 Eh


WARNING (ORCA/SYM): The number of Z matrix atoms does not agree with
the number of centers in the basis set. The point group will therefore
be determined without considering basis set information.


Note: Rotational entropy computed according to Herzberg 
Infrared and Raman Spectra, Chapter V,1, Van Nostrand Reinhold, 1945 
Point Group:  Cs, Symmetry Number:   1  
Rotational constants in cm-1:     5.226770     0.035264     0.035263 

Vibrational entropy computed according to the QRRHO of S. Grimme
Chem.Eur.J. 2012 18 9955 using a reference frequency of 100.0 cm-1


-------
ENTROPY
-------

The entropy contributions are T*S = T*(S(el)+S(vib)+S(rot)+S(trans))
     S(el)   - electronic entropy
     S(vib)  - vibrational entropy
     S(rot)  - rotational entropy
     S(trans)- translational entropy
The entropies will be listed as multiplied by the temperature to get
units of energy

Electronic entropy                ...      0.00000000 Eh      0.00 kcal/mol
Vibrational entropy               ...      0.00464826 Eh      2.92 kcal/mol
Rotational entropy                ...      0.01188828 Eh      7.46 kcal/mol
Translational entropy             ...      0.01954513 Eh     12.26 kcal/mol
-----------------------------------------------------------------------
Final entropy term                ...      0.03608167 Eh     22.64 kcal/mol

In case the symmetry of your molecule has not been determined correctly
or in case you have a reason to use a different symmetry number we print 
out the resulting rotational entropy values for sn=1,12:

 non-linear molecules -----------------------------------
|  sn= 1 | S(rot)=       0.01188828 Eh      7.46 kcal/mol|
|  sn= 2 | S(rot)=       0.01123382 Eh      7.05 kcal/mol|
|  sn= 3 | S(rot)=       0.01085099 Eh      6.81 kcal/mol|
|  sn= 4 | S(rot)=       0.01057936 Eh      6.64 kcal/mol|
|  sn= 5 | S(rot)=       0.01036868 Eh      6.51 kcal/mol|
|  sn= 6 | S(rot)=       0.01019653 Eh      6.40 kcal/mol|
|  sn= 7 | S(rot)=       0.01005098 Eh      6.31 kcal/mol|
|  sn= 8 | S(rot)=       0.00992491 Eh      6.23 kcal/mol|
|  sn= 9 | S(rot)=       0.00981370 Eh      6.16 kcal/mol|
|  sn=10 | S(rot)=       0.00971422 Eh      6.10 kcal/mol|
|  sn=11 | S(rot)=       0.00962423 Eh      6.04 kcal/mol|
|  sn=12 | S(rot)=       0.00954207 Eh      5.99 kcal/mol|
 linear molecules ---------------------------------------
|  Dinfh | S(rot)=       0.00848403 Eh      5.32 kcal/mol|
|  Cinfv | S(rot)=       0.00913848 Eh      5.73 kcal/mol|
 --------------------------------------------------------


-------------------
GIBBS FREE ENERGY
-------------------

The Gibbs free energy is G = H - T*S

Total enthalpy                    ...    -12.42253202 Eh 
Total entropy correction          ...     -0.03608167 Eh    -22.64 kcal/mol
-----------------------------------------------------------------------
Final Gibbs free energy         ...    -12.45861369 Eh

For completeness - the Gibbs free energy minus the electronic energy
G-E(el)                           ...      0.00857253 Eh      5.38 kcal/mol


--------------------------------
SUGGESTED CITATIONS FOR THIS RUN
--------------------------------

Below you find a list of papers that are relevant to this ORCA run
We neither can nor want to force you to cite these papers, but we appreciate if you do
You receive ORCA, which is the product of decades of hard work by many enthusiastic individuals, for free
The only thing we kindly ask in return is that you cite our papers,
We deeply appreciate it, if you show your appreciation for ORCA by not just citing the generic ORCA reference.

Please note that relegating all ORCA citations to the supporting information does *not* help us.
SI sections are not indexed - citations you put there will not count into any citation statistics
But we need these citations in order to attract the funding resources that allow us to do what we are doing

Therefore, if you are a happy ORCA user, please consider citing a few of the papers listed below in the main body of your paper

In addition to the list printed below, the program has created the file product_optfreq.bibtex that contains the list in bibtex format
You can import this file easily into all common literature databanks and citation aid programs


List of essential papers. We consider these as the minimum necessary citations

  1. Bannwarth, C.; Ehlert, S.; Grimme, S.
     GFN2-xTB—An Accurate and Broadly Parametrized Self-Consistent Tight-Binding Quantum Chemical Method with Multipole Electrostatics and Density-Dependent Dispersion Contributions
     J. Chem. Theory Comput. 2019 15(3), 1652-1671
     doi.org/10.1021/acs.jctc.8b01176
  2. Neese, F.
     Software update: the ORCA program system, version 6.0
     WIRES Comput. Molec. Sci. 2025 15(1), e70019
     doi.org/10.1002/wcms.7019

List of papers to cite with high priority. The work reported in these papers was absolutely
necessary for this run to complete.
Our perspective: the developers of density functionals and basis sets usually get cited in chemistry papers
Good! But without the algorithms to do something with them, the functionals or basis sets would not do anything.
Hence, in our opinion, the algorithm design and method developments papers are equally worthy of getting cited

  1. Bykov, D.; Petrenko, T.; Izsak, R.; Kossmann, S.; Becker, U.; Valeev, E.; Neese, F.
     Efficient implementation of the analytic second derivatives of Hartree-Fock and hybrid DFT energies: a detailed analysis of different approximations
     Molec. Phys. 2015 113 , 1961-1977
     doi.org/10.1080/00268976.2015.1025114
  2. Bannwarth, C.; Caldeweyher, E.; Ehlert, S.; Hansen, A.; Pracht, P.; Seibert, J.; Spicher, S.; Grimme, S.
     Extended tight-binding quantum chemistry methods
     WIRES Comput. Molec. Sci. 2020 11(2), e1493
     doi.org/10.1002/wcms.1493

List of suggested additional citations. These are papers that are important in the 'surrounding' of 
of this run, or papers that preceded the highly important papers. If you like your results we are grateful for a citation.

  1. Neese, F.
     The ORCA program system
     WIRES Comput. Molec. Sci. 2012 2(1), 73-78
     doi.org/10.1002/wcms.81
  2. Neese, F.
     Software update: the ORCA program system, version 4.0
     WIRES Comput. Molec. Sci. 2018 8(1), 1-6
     doi.org/10.1002/wcms.1327
  3. Neese, F.; Wennmohs, F.; Becker, U.; Riplinger, C.
     The ORCA quantum chemistry program package
     J. Chem. Phys. 2020 152(22), 224108
     doi.org/10.1063/5.0004608
  4. Neese, F.
     Software update: The ORCA program system—Version 5.0
     WIRES Comput. Molec. Sci. 2022 12(1), e1606
     doi.org/10.1002/wcms.1606

List of optional additional citations

  1. Neese, F.
     Approximate second-order SCF convergence for spin unrestricted wavefunctions
     Chem. Phys. Lett. 2000 325(1-3), 93-98
     doi.org/10.1016/s0009-2614(00)00662-x

Timings for individual modules:

Sum of individual times          ...        1.595 sec (=   0.027 min)
Geometry relaxation              ...        0.020 sec (=   0.000 min)   1.3 %
XTB module                       ...        1.575 sec (=   0.026 min)  98.7 %
                             ****ORCA TERMINATED NORMALLY****
TOTAL RUN TIME: 0 days 0 hours 0 minutes 2 seconds 260 msec
