
                                 *****************
                                 * O   R   C   A *
                                 *****************

                                            #,                                       
                                            ###                                      
                                            ####                                     
                                            #####                                    
                                            ######                                   
                                           ########,                                 
                                     ,,################,,,,,                         
                               ,,#################################,,                 
                          ,,##########################################,,             
                       ,#########################################, ''#####,          
                    ,#############################################,,   '####,        
                  ,##################################################,,,,####,       
                ,###########''''           ''''###############################       
              ,#####''   ,,,,##########,,,,          '''####'''          '####       
            ,##' ,,,,###########################,,,                        '##       
           ' ,,###''''                  '''############,,,                           
         ,,##''                                '''############,,,,        ,,,,,,###''
      ,#''                                            '''#######################'''  
     '                                                          ''''####''''         
             ,#######,   #######,   ,#######,      ##                                
            ,#'     '#,  ##    ##  ,#'     '#,    #''#        ,####,    ,#,          
            ##       ##  ##   ,#'  ##            #'  '#       #'       ,# #          
            ##       ##  #######   ##           ,######,      #####,      #          
            '#,     ,#'  ##    ##  '#,     ,#' ,#      #,     #,   #      #          
             '#######'   ##     ##  '#######'  #'      '#     '####' #    #          



                #########################################################
                #                        -***-                          #
                #          Department of theory and spectroscopy        #
                #                                                       #
                #                      Frank Neese                      #
                #                                                       #
                #     Directorship, Architecture, Infrastructure        #
                #                    SHARK, DRIVERS                     #
                #        Core code/Algorithms in most modules           #
                #                                                       #
                #        Max Planck Institute fuer Kohlenforschung      #
                #                Kaiser Wilhelm Platz 1                 #
                #                 D-45470 Muelheim/Ruhr                 #
                #                      Germany                          #
                #                                                       #
                #                  All rights reserved                  #
                #                        -***-                          #
                #########################################################


                         Program Version 6.1.0  -  RELEASE   -
                                (GIT: $679e74b$)
                          ($2025-06-10 18:02:51 +0200$)


 With contributions from (in alphabetic order):
[Max-Planck-Institut fuer Kohlenforschung]                               
  Daniel Aravena         : Magnetic Suceptibility                        
  Michael Atanasov       : Ab Initio Ligand Field Theory (pilot matlab implementation)
  Alexander A. Auer      : GIAO ZORA, VPT2 properties, NMR spectrum      
  Ute Becker             : All parallelization in ORCA, NUMFREQ, NUMCALC 
  Giovanni Bistoni       : ED, misc. LED, open-shell LED, HFLD           
  Dmytro Bykov           : pre 5.0 version of the SCF Hessian            
  Marcos Casanova-Páez   : Triplet and SCS-CIS(D). UHF-(DLPNO)-IP/EA/STEOM-CCSD. UHF-CVS-IP/STEOM-CCSD   
  Vijay G. Chilkuri      : MRCI spin determinant printing, contributions to CSF-ICE 
  Pauline Colinet        : FMM embedding                                 
  Dipayan Datta          : RHF DLPNO-CCSD density                        
  Achintya Kumar Dutta   : EOM-CC, STEOM-CC                              
  Nicolas Foglia         : Exact transition moments, OPA infrastructure, MCD improvements    
  Dmitry Ganyushin       : Spin-Orbit,Spin-Spin,Magnetic field MRCI      
  Miquel Garcia-Rates    : C-PCM and meta-GGA Hessian, CCSD/C-PCM, Gaussian charge scheme 
  Tiago L. C. Gouveia    : GS-ROHF, GS-ROCIS                             
  Yang Guo               : DLPNO-NEVPT2, F12-NEVPT2, CIM, IAO-localization        
  Andreas Hansen         : Spin unrestricted coupled pair/coupled cluster methods 
  Ingolf Harden          : AUTO-CI MPn and infrastructure                
  Benjamin Helmich-Paris : MC-RPA, TRAH-(SCF,CASSCF), AVAS, COSX integrals, SCF dyn. polar., MC-PDFT, srDFT 
  Lee Huntington         : MR-EOM, pCC                                   
  Robert Izsak           : Overlap fitted RIJCOSX, COSX-SCS-MP3, EOM     
  Riya Kayal             : Wick's Theorem for AUTO-CI, AUTO-CI UHF-CCSDT 
  Emily Kempfer          : AUTO-CI RHF CISDT and CCSDT, approximate NEVPT4
  Christian Kollmar      : KDIIS, OOCD, Brueckner-CCSD(T), CCSD density, CASPT2, CASPT2-K, improved NEVPT2 
  Axel Koslowski         : Symmetry handling                             
  Simone Kossmann        : meta-GGA functionals, TD-DFT gradient, OOMP2, (MP2 Hessian; deprecated post 5.0) 
  Lucas Lang             : DCDCAS, Hyperfine gauge corrections, ICE-SOC+SSC
  Marvin Lechner         : AUTO-CI (C++ implementation), FIC-MRCC        
  Spencer Leger          : CASSCF response                               
  Dagmar Lenk            : GEPOL surface, SMD, ORCA-2-JSON               
  Dimitrios Liakos       : Extrapolation schemes; Compound Job, Property file
  Dimitrios Manganas     : Further ROCIS development; embedding schemes. LFT, Crystal Embedding 
  Dimitrios Pantazis     : SARC Basis sets                               
  Anastasios Papadopoulos: AUTO-CI, single reference methods and gradients 
  Taras Petrenko         : pre 6.0 DFT Hessian and TD-DFT gradient,  ECA, NRVS 
  Petra Pikulova         : Analytic Raman intensities                    
  Peter Pinski           : DLPNO-MP2, DLPNO-MP2 Gradient                 
  Shashank Vittal Rao    : ES-AILFT, MagRelax                            
  Christoph Reimann      : Effective Core Potentials                     
  Marius Retegan         : Local ZFS, SOC                                
  Christoph Riplinger    : Optimizer, TS searches, QM/MM, DLPNO-CCSD(T), (RO)-DLPNO pert. Triples 
  Michael Roemelt        : Original ROCIS implementation, recursive CI coupling coefficients
  Masaaki Saitow         : Open-shell DLPNO-CCSD energy and density      
  Barbara Sandhoefer     : DKH picture change effects                    
  Yorick L. A. Schmerwitz: GMF and freeze-and-release deltaSCF, NEB S-IDPP initial path                    
  Kantharuban Sivalingam : CASSCF convergence/infrastructure, NEVPT2, NEVPT3, NEVPT4(SD), FIC-MRCI and CEPA variants
  Bernardo de Souza      : ESD, SOC TD-DFT                               
  Georgi L. Stoychev     : AutoAux, RI-MP2 NMR, DLPNO-MP2 response, X2C  
  Van Anh Tran           : RI-MP2 g-tensors                              
  Willem Van den Heuvel  : Paramagnetic NMR                              
  Zikuan Wang            : NOTCH, Electric field optimization            
  Frank Wennmohs         : Technical directorship and infrastructure     
  Hang Xu                : AUTO-CI-Response properties                   
                                                                         
[FACCTs GmbH]                                                            
  Markus Bursch, Nicolas Foglia, Miquel Garcia-Rates, Ingolf Harden, Hagen Neugebauer, Anastasios Papadopoulos, 
  Christoph Riplinger, Bernardo de Souza, Georgi L. Stoychev                                                    
                                                                 
  APM, various basis sets, CI-OPT, improved COSX, DLPNO-Multilevel,           
  DOCKER, DRACO, updates on ESD, Fragmentator, GOAT, IRC, LR-CPCM, L-BFGS, MBIS, meta-GGA TD-DFT gradient, ML-optimized integration grids, 
  MM, NACMEs, nearIR, NEB, NEB-TS, NL-DFT gradient (VV10), 2- and 3-layer-ONIOM, interface openCOSMO-RS, QMMM,   
  Crystal-QMMM, RESP, rigid body optimization, SF, symmetry and pop. for TD-DFT, various functionals, SOLVATOR                                   
                                                                         
[Other institutions]                                                     
  V. Asgeirsson          : NEB                                           
  Christoph Bannwarth    : sTDA-DFT, sTD-DFT, PBEh-3c, B97-3c, D3        
  Giovanni Bistoni       : ETS/NOCV, ADLD/ADEX, COVALED                  
  Martin Brehm           : Molecular dynamics                            
  Ronald Cardenas        : ETS/NOCV                                      
  Martina Colucci        : COVALED                                       
  Sebastian Ehlert       : rSCAN, r2SCAN, r2SCAN-3c, D4, dhf basis sets  
  Marvin Friede          : D4 for Fr, Ra, Ac-Lr                          
  Lars Goerigk           : TD-DFT with DH, B97 family of functionals     
  Stefan Grimme          : VdW corrections, initial TS optimization, DFT functionals, gCP, sTDA/sTD-DF 
  Waldemar Hujo          : DFT-NL                                        
  H. Jonsson             : NEB                                           
  Holger Kruse           : gCP                                           
  Marcel Mueller         : wB97X-3c, vDZP basis set                      
  Hagen Neugebauer       : wr2SCAN, Native XTB                           
  Gianluca Regni         : ADLD/ADEX                                     
  Tobias Risthaus        : pre 6.0 range-separated hybrid DFT and stability analysis
  Lukas Wittmann         : regularized MP2, r2SCAN double-hybrids, wr2SCAN        
                                                                         
We gratefully acknowledge several colleagues who have allowed us to      
interface, adapt or use parts of their codes:                            
  Ed Valeev, F. Pavosevic, A. Kumar             : LibInt (2-el integral package), F12 methods 
  Garnet Chan, S. Sharma, J. Yang, R. Olivares  : DMRG                   
  Ulf Ekstrom                                   : XCFun DFT Library      
  Mihaly Kallay                                 : mrcc  (arbitrary order and MRCC methods)
  Frank Weinhold                                : gennbo (NPA and NBO analysis)           
  Simon Mueller                                 : openCOSMO-RS                            
  Christopher J. Cramer and Donald G. Truhlar   : smd solvation model                     
  S Lehtola, MJT Oliveira, MAL Marques          : LibXC Library                           
  Liviu Ungur et al                             : ANISO software                          


 Your calculation uses the libint2 library for the computation of 2-el integrals
 For citations please refer to: http://libint.valeyev.net

 Your ORCA version has been built with support for libXC version: 7.0.0
 For citations please refer to: https://libxc.gitlab.io

 This ORCA versions uses:
   CBLAS   interface :  Fast vector & matrix operations
   LAPACKE interface :  Fast linear algebra routines
   SCALAPACK package :  Parallel linear algebra routines
   Shared memory     :  Shared parallel matrices
   BLAS/LAPACK       :  OpenBLAS 0.3.29  USE64BITINT DYNAMIC_ARCH NO_AFFINITY SkylakeX SINGLE_THREADED
        Core in use  :  SkylakeX
   Copyright (c) 2011-2014, The OpenBLAS Project


  ***********************************
  * Starting time: Mon Mar 16 14:19:01 2026
  * Host name:     midway3-login4.rcc.local
  * Process ID:    121417
  * Working dir.:  /home/rzhu16/evans-polanyi-principle-validation/runs/sn2_i_f/geo_opt_reactant_product
  ***********************************

Your calculation utilizes the semiempirical GFN2-xTB method
Please cite in your paper:
Bannwarth, C.; Ehlert S.; Grimme, S. J. Chem. Theory Comput. 2019, 15, 1652.
   

================================================================================

cite the ECPs for I  [Def2-ECP] as follows:
Ce-Yb(ecp-28): M. Dolg, H. Stoll, H.Preuss, J. Chem. Phys., 1989, 90, 1730-1734.
Y-Cd(ecp-28), Hf-Hg(ecp-46): D. Andrae,U. Haeussermann, M. Dolg, H. Stoll, H. Preuss, Theor. Chim. Acta, 1990, 77, 123-141.
In-Sb(ecp-28), Tl-Bi(ecp-46): B. Metz, H. Stoll, M. Dolg, J. Chem. Phys., 2000, 113, 2563-2569.
Te-Xe(ecp-28), Po-Rn(ecp-46): K. A. Peterson, D. Figgen, E. Goll, H. Stoll, M. Dolg, J. Chem. Phys., 2003, 119, 11113-11123.
Rb(ecp-28), Cs(ecp-46): T. Leininger, A. Nicklass, W. Kuechle, H. Stoll, M. Dolg, A. Bergner, Chem. Phys. Lett., 1996, 255, 274-280.
Sr(ecp-28), Ba(ecp-46): M. Kaupp, P. V. Schleyer, H. Stoll and H. Preuss, J. Chem. Phys., 1991, 94, 1360-1366.
La(ecp-46): M. Dolg, H. Stoll, A. Savin, H. Preuss, Theor. Chim. Acta, 1989, 75, 173-194.
Lu(ecp-28): X. Cao, M. Dolg, J. Chem. Phys., 2001, 115, 7348-7355.

ECP parameters for I  [Def2-ECP] have been obtained from:
TURBOMOLE (7.0.2)

================================================================================
                                        WARNINGS
                       Please study these warnings very carefully!
================================================================================


WARNING: Analytical Hessian for XTB is limited in the analysis of the data.
       : If you want to obtain extensive IR and deltaG analysis, please use ! XTB NumFreq. 


WARNING: Geometry Optimization
  ===> : Switching off AutoStart
         For restart on a previous wavefunction, please use MOREAD

WARNING: Found dipole moment calculation with XTB calculation
  ===> : Switching off dipole moment calculation


WARNING: Found frequency calculation in combination with XTB calculation
  ===> : Need to redirect dipole moment calculation to properties.out


================================================================================
                                       INPUT FILE
================================================================================
NAME = reactant_optfreq.inp
|  1> ! XTB2 Opt Freq PAL8
|  2> 
|  3> %geom
|  4>   MaxIter 500
|  5> end
|  6> 
|  7> * xyz -1 1
|  8>   C       0.005712      0.153547     -0.080042
|  9>   H       0.044672      1.194265     -0.291472
| 10>   H       0.891589     -0.429723     -0.212283
| 11>   H      -0.921695     -0.361518     -0.210822
| 12>   I       0.014036      0.322526      2.347465
| 13>   F       0.013084      0.387969     -2.158760
| 14> *
| 15> 
| 16>                          ****END OF INPUT****
================================================================================

                       *****************************
                       * Geometry Optimization Run *
                       *****************************

Geometry optimization settings:
Update method            Update   .... BFGS
Choice of coordinates    CoordSys .... (2022) Redundant Internals
Initial Hessian          InHess   .... Almloef's Model
Max. no of cycles        MaxIter  .... 500

Convergence Tolerances:
Energy Change            TolE     ....  5.0000e-06 Eh
Max. Gradient            TolMAXG  ....  3.0000e-04 Eh/bohr
RMS Gradient             TolRMSG  ....  1.0000e-04 Eh/bohr
Max. Displacement        TolMAXD  ....  4.0000e-03 bohr
RMS Displacement         TolRMSD  ....  2.0000e-03 bohr
Strict Convergence                .... False

------------------------------------------------------------------------------
                        ORCA OPTIMIZATION COORDINATE SETUP
------------------------------------------------------------------------------

The optimization will be done in redundant internal coordinates (2022)
Making redundant internal coordinates   ...  (2022 redundants) done
Evaluating the initial hessian          ...  (Almloef) done
Evaluating the coordinates              ...  done
Calculating the B-matrix                .... done
Calculating the G-matrix                .... done
The number of degrees of freedom        ....   21

    -----------------------------------------------------------------
                    Redundant Internal Coordinates


    -----------------------------------------------------------------
         Definition                    Initial Value    Approx d2E/dq
    -----------------------------------------------------------------
      1. B(H   1,C   0)                  1.0627         0.398099   
      2. B(H   2,C   0)                  1.0689         0.389175   
      3. B(H   3,C   0)                  1.0689         0.389168   
      4. B(I   4,H   1)                  2.7794         0.010000   
      5. B(I   4,H   2)                  2.8086         0.010000   
      6. B(I   4,C   0)                  2.4334         0.045453   
      7. B(I   4,H   3)                  2.8086         0.010000   
      8. B(F   5,H   3)                  2.2869         0.010000   
      9. B(F   5,H   2)                  2.2867         0.010000   
     10. B(F   5,C   0)                  2.0919         0.039456   
     11. B(F   5,H   1)                  2.0342         0.010000   
     12. A(H   1,C   0,H   3)          118.6450         0.299135   
     13. A(H   2,C   0,H   3)          116.1689         0.298059   
     14. A(H   1,C   0,F   5)           72.0868         0.231736   
     15. A(H   2,C   0,F   5)           86.2897         0.231005   
     16. A(H   3,C   0,F   5)           86.3004         0.231005   
     17. A(H   1,C   0,I   4)           97.4895         0.251134   
     18. A(H   2,C   0,I   4)           99.1187         0.250305   
     19. A(H   3,C   0,I   4)           99.1192         0.250304   
     20. A(I   4,C   0,F   5)          169.5763         0.198567   
     21. A(H   1,C   0,H   2)          118.6467         0.299136   
    -----------------------------------------------------------------

Number of atoms                         .... 6
Number of degrees of freedom            .... 21


         *************************************************************
         *                GEOMETRY OPTIMIZATION CYCLE   1            *
         *************************************************************
---------------------------------
CARTESIAN COORDINATES (ANGSTROEM)
---------------------------------
  C     0.005712    0.153547   -0.080042
  H     0.044672    1.194265   -0.291472
  H     0.891589   -0.429723   -0.212283
  H    -0.921695   -0.361518   -0.210822
  I     0.014036    0.322526    2.347465
  F     0.013084    0.387969   -2.158760

----------------------------
CARTESIAN COORDINATES (A.U.)
----------------------------
  NO LB    ZA    FRAG    MASS        X           Y           Z
   0 C   6.0000    0    12.011    0.010794    0.290162   -0.151257
   1 H   1.0000    0     1.008    0.084418    2.256834   -0.550802
   2 H   1.0000    0     1.008    1.684859   -0.812059   -0.401157
   3 H   1.0000    0     1.008   -1.741751   -0.683170   -0.398396
   4 I  53.0000    0   126.900    0.026524    0.609486    4.436066
   5 F   9.0000    0    18.998    0.024725    0.733155   -4.079465

      -----------------------------------------------------------      
     |                   =====================                   |     
     |                           x T B                           |     
     |                   =====================                   |     
     |                         S. Grimme                         |     
     |          Mulliken Center for Theoretical Chemistry        |     
     |                    University of Bonn                     |     
      -----------------------------------------------------------      

   * xtb version 6.7.1 (edcfbbe) compiled by 'albert@albert-system' on 2024-07-22

   xtb is free software: you can redistribute it and/or modify it under
   the terms of the GNU Lesser General Public License as published by
   the Free Software Foundation, either version 3 of the License, or
   (at your option) any later version.
   
   xtb is distributed in the hope that it will be useful,
   but WITHOUT ANY WARRANTY; without even the implied warranty of
   MERCHANTABILITY or FITNESS FOR A PARTICULAR PURPOSE.  See the
   GNU Lesser General Public License for more details.
   
   Cite this work as:
   * C. Bannwarth, E. Caldeweyher, S. Ehlert, A. Hansen, P. Pracht,
     J. Seibert, S. Spicher, S. Grimme, WIREs Comput. Mol. Sci., 2020, 11,
     e01493. DOI: 10.1002/wcms.1493
   
   for GFN2-xTB:
   * C. Bannwarth, S. Ehlert and S. Grimme., J. Chem. Theory Comput., 2019,
     15, 1652-1671. DOI: 10.1021/acs.jctc.8b01176
   for GFN1-xTB:
   * S. Grimme, C. Bannwarth, P. Shushkov, J. Chem. Theory Comput., 2017,
     13, 1989-2009. DOI: 10.1021/acs.jctc.7b00118
   for GFN0-xTB:
   * P. Pracht, E. Caldeweyher, S. Ehlert, S. Grimme, ChemRxiv, 2019, preprint.
     DOI: 10.26434/chemrxiv.8326202.v1
   for GFN-FF:
   * S. Spicher and S. Grimme, Angew. Chem. Int. Ed., 2020, 59, 15665-15673.
     DOI: 10.1002/anie.202004239
   
   for ALPB and GBSA implicit solvation:
   * S. Ehlert, M. Stahn, S. Spicher, S. Grimme, J. Chem. Theory Comput.,
     2021, 17, 4250-4261. DOI: 10.1021/acs.jctc.1c00471
   
   for ddCOSMO and CPCM-X implicit solvation:
   * M. Stahn, S. Ehlert, S. Grimme, J. Phys. Chem. A,
     2023, XX, XXXX-XXXX. DOI: 10.1021/acs.jpca.3c04382
   
   for DFT-D4:
   * E. Caldeweyher, C. Bannwarth and S. Grimme, J. Chem. Phys., 2017,
     147, 034112. DOI: 10.1063/1.4993215
   * E. Caldeweyher, S. Ehlert, A. Hansen, H. Neugebauer, S. Spicher,
     C. Bannwarth and S. Grimme, J. Chem. Phys., 2019, 150, 154122.
     DOI: 10.1063/1.5090222
   * E. Caldeweyher, J.-M. Mewes, S. Ehlert and S. Grimme, Phys. Chem. Chem. Phys.
     2020, 22, 8499-8512. DOI: 10.1039/D0CP00502A
   
   for sTDA-xTB:
   * S. Grimme and C. Bannwarth, J. Chem. Phys., 2016, 145, 054103.
     DOI: 10.1063/1.4959605
   
   in the mass-spec context:
   * V. Asgeirsson, C. Bauer and S. Grimme, Chem. Sci., 2017, 8, 4879.
     DOI: 10.1039/c7sc00601b
   * J. Koopman and S. Grimme, ACS Omega 2019, 4, 12, 15120-15133.
     DOI: 10.1021/acsomega.9b02011
   
   for metadynamics refer to:
   * S. Grimme, J. Chem. Theory Comput., 2019, 155, 2847-2862
     DOI: 10.1021/acs.jctc.9b00143
   
   for SPH calculations refer to:
   * S. Spicher and S. Grimme, J. Chem. Theory Comput., 2021, 17, 1701-1714
     DOI: 10.1021/acs.jctc.0c01306
   
   for ONIOM refer to:
   * C. Plett, A. Katbashev, S. Ehlert, S. Grimme, M. Bursch,
     Phys. Chem. Chem. Phys., 2023, 25, 17860-17868. DOI: 10.1039/D3CP02178E
   
   for DIPRO refer to:
   * J. Kohn, N. Gildemeister, S. Grimme, D. Fazzi, A. Hansen,
     J. Chem. Phys., 2023, just accepted.
   
   for PTB refer to:
   * S. Grimme, M. Mueller, A. Hansen, J. Chem. Phys., 2023, 158, 124111.
     DOI: 10.1063/5.0137838
   
   with help from (in alphabetical order)
   P. Atkinson, C. Bannwarth, F. Bohle, G. Brandenburg, E. Caldeweyher
   M. Checinski, S. Dohm, S. Ehlert, S. Ehrlich, I. Gerasimov, C. Hölzer
   A. Katbashev, J. Kohn, J. Koopman, C. Lavigne, S. Lehtola, F. März, M. Müller,
   F. Musil, H. Neugebauer, J. Pisarek, C. Plett, P. Pracht, F. Pultar,
   J. Seibert, P. Shushkov, S. Spicher, M. Stahn, M. Steiner, T. Strunk,
   J. Stückrath, T. Rose, and J. Unsleber
   
 * started run on 2026/03/16 at 14:19:01.574     
   ID    Z sym.   atoms
    1    6 C      1
    2    1 H      2-4
    3   53 I      5
    4    9 F      6

           -------------------------------------------------
          |                Calculation Setup                |
           -------------------------------------------------

          program call               : /software/orca-6.1.0-el8-x86_64/bin/otool_xtb reactant_optfreq_XTB.xyz --grad -c -1 -u 0 -P 8 --namespace reactant_optfreq --input reactant_optfreq_XTB.input.tmp --acc 0.200000
          hostname                   : midway3-login4.rcc.local
          calculation namespace      : reactant_optfreq
          coordinate file            : reactant_optfreq_XTB.xyz
          omp threads                :                     8


molecular fragmentation (1/2 indicates fragments):
111112
# atoms in fragment 1/2:     5     1
 fragment masses (1/2) :      141.94       19.00
CMA distance (Bohr)    :   8.025
constraining FC (au)   :  0.0500

           -------------------------------------------------
          |                 G F N 2 - x T B                 |
           -------------------------------------------------

        Reference                      10.1021/acs.jctc.8b01176
      * Hamiltonian:
        H0-scaling (s, p, d)           1.850000    2.230000    2.230000
        zeta-weighting                 0.500000
      * Dispersion:
        s8                             2.700000
        a1                             0.520000
        a2                             5.000000
        s9                             5.000000
      * Repulsion:
        kExp                           1.500000    1.000000
        rExp                           1.000000
      * Coulomb:
        alpha                          2.000000
        third order                    shell-resolved
        anisotropic                    true
        a3                             3.000000
        a5                             4.000000
        cn-shift                       1.200000
        cn-exp                         4.000000
        max-rad                        5.000000


          ...................................................
          :                      SETUP                      :
          :.................................................:
          :  # basis functions                  21          :
          :  # atomic orbitals                  20          :
          :  # shells                           10          :
          :  # electrons                        22          :
          :  max. iterations                   250          :
          :  Hamiltonian                  GFN2-xTB          :
          :  restarted?                      false          :
          :  GBSA solvation                  false          :
          :  PC potential                    false          :
          :  electronic temp.          300.0000000     K    :
          :  accuracy                    0.2000000          :
          :  -> integral cutoff          0.3198970E+02      :
          :  -> integral neglect         0.2000000E-08      :
          :  -> SCF convergence          0.2000000E-06 Eh   :
          :  -> wf. convergence          0.2000000E-04 e    :
          :  Broyden damping             0.4000000          :
          :  net charge                         -1          :
          :  unpaired electrons                  0          :
          ...................................................

 iter      E             dE          RMSdq      gap      omega  full diag
   1    -12.4491827 -0.124492E+02  0.106E+01    3.70       0.0  T
   2    -12.4841238 -0.349410E-01  0.404E+00    2.65       1.0  T
   3    -12.4851208 -0.997076E-03  0.162E+00    2.52       1.0  T
   4    -12.4851842 -0.634061E-04  0.671E-01    2.83       1.0  T
   5    -12.4852655 -0.812938E-04  0.643E-01    2.47       1.0  T
   6    -12.4856697 -0.404157E-03  0.256E-01    2.73       1.0  T
   7    -12.4856144  0.553368E-04  0.263E-01    2.51       1.0  T
   8    -12.4859078 -0.293483E-03  0.191E-02    2.62       2.1  T
   9    -12.4859085 -0.677182E-06  0.667E-03    2.62       6.1  T
  10    -12.4859086 -0.827210E-07  0.658E-04    2.62      62.0  T
  11    -12.4859086 -0.102738E-08  0.272E-04    2.62     149.9  T
  12    -12.4859086 -0.129626E-09  0.788E-05    2.62     518.2  T
  13    -12.4859086  0.223821E-12  0.359E-05    2.62    1137.8  T

   *** convergence criteria satisfied after 13 iterations ***

         #    Occupation            Energy/Eh            Energy/eV
      -------------------------------------------------------------
         1        2.0000           -0.5368344             -14.6080
       ...           ...                  ...                  ...
         5        2.0000           -0.3288795              -8.9493
         6        2.0000           -0.2748402              -7.4788
         7        2.0000           -0.2284297              -6.2159
         8        2.0000           -0.2283584              -6.2139
         9        2.0000           -0.1785815              -4.8594
        10        2.0000           -0.1751720              -4.7667
        11        2.0000           -0.1745729              -4.7504 (HOMO)
        12                         -0.0782232              -2.1286 (LUMO)
        13                          0.2441911               6.6448
        14                          0.2445844               6.6555
        15                          0.2574864               7.0066
        16                          0.2576201               7.0102
       ...                                ...                  ...
        20                          0.4611706              12.5491
      -------------------------------------------------------------
                  HL-Gap            0.0963497 Eh            2.6218 eV
             Fermi-level           -0.1263980 Eh           -3.4395 eV

 SCC (total)                   0 d,  0 h,  0 min,  0.015 sec
 SCC setup                      ...        0 min,  0.000 sec (  1.828%)
 Dispersion                     ...        0 min,  0.000 sec (  0.444%)
 classical contributions        ...        0 min,  0.000 sec (  0.255%)
 integral evaluation            ...        0 min,  0.012 sec ( 80.840%)
 iterations                     ...        0 min,  0.002 sec ( 12.556%)
 molecular gradient             ...        0 min,  0.000 sec (  2.570%)
 printout                       ...        0 min,  0.000 sec (  1.379%)

         :::::::::::::::::::::::::::::::::::::::::::::::::::::
         ::                     SUMMARY                     ::
         :::::::::::::::::::::::::::::::::::::::::::::::::::::
         :: total energy             -12.424713814651 Eh    ::
         :: gradient norm              0.014752863295 Eh/a0 ::
         :: HOMO-LUMO gap              2.621809700332 eV    ::
         ::.................................................::
         :: SCC energy               -12.485908800449 Eh    ::
         :: -> isotropic ES            0.184079641244 Eh    ::
         :: -> anisotropic ES         -0.004323230987 Eh    ::
         :: -> anisotropic XC          0.000196704338 Eh    ::
         :: -> dispersion             -0.002520464811 Eh    ::
         :: repulsion energy           0.061194985797 Eh    ::
         :: add. restraining           0.000000000000 Eh    ::
         :: total charge              -1.000000000000 e     ::
         :::::::::::::::::::::::::::::::::::::::::::::::::::::


Property printout bound to 'properties.out'

           -------------------------------------------------
          | TOTAL ENERGY              -12.424713814651 Eh   |
          | GRADIENT NORM               0.014752863295 Eh/α |
          | HOMO-LUMO GAP               2.621809700332 eV   |
           -------------------------------------------------

------------------------------------------------------------------------
 * finished run on 2026/03/16 at 14:19:01.602     
------------------------------------------------------------------------
 total:
 * wall-time:     0 d,  0 h,  0 min,  0.028 sec
 *  cpu-time:     0 d,  0 h,  0 min,  0.190 sec
 * ratio c/w:     6.838 speedup
 SCF:
 * wall-time:     0 d,  0 h,  0 min,  0.015 sec
 *  cpu-time:     0 d,  0 h,  0 min,  0.110 sec
 * ratio c/w:     7.269 speedup


-------------------------   --------------------
FINAL SINGLE POINT ENERGY       -12.424713814650
-------------------------   --------------------


-------------
DIPOLE MOMENT
-------------
                                X             Y             Z
Total Dipole Moment    :     -0.03000      -0.77900      -0.38200
                        -----------------------------------------
Magnitude (a.u.)       :      0.86814
Magnitude (Debye)      :      2.20663


------------------
CARTESIAN GRADIENT
------------------

   1   C   :   -0.000105459   -0.002954881    0.009331173
   2   H   :   -0.000104188   -0.002674014   -0.003441388
   3   H   :   -0.001266774   -0.001171426    0.001528099
   4   H   :    0.001175805   -0.001262942    0.001529433
   5   I   :    0.000071530    0.001921605   -0.002160297
   6   F   :    0.000229087    0.006141658   -0.006787020

Difference to translation invariance:
           :    0.0000000000    0.0000000000    0.0000000000

Difference to rotation invariance:
           :   -0.0000000328    0.0000000012    0.0000000000

Norm of the Cartesian gradient     ...    0.0147528633
RMS gradient                       ...    0.0034772832
MAX gradient                       ...    0.0093311725
------------------------------------------------------------------------------
                         ORCA GEOMETRY RELAXATION STEP
------------------------------------------------------------------------------

Reading the OPT-File                    .... done
Getting information on internals        .... done
Copying old internal coords+grads       .... done
Making the new internal coordinates     .... (2022 redundants) done
Validating the new internal coordinates .... (2022 redundants) done
Calculating the B-matrix                .... done
Calculating the G,G- and P matrices     .... done
Transforming gradient to internals      .... done
Projecting the internal gradient        .... done
Number of atoms                         ....   6
Number of internal coordinates          ....  21
Current Energy                          ....   -12.424713815 Eh
Current gradient norm                   ....     0.014752863 Eh/bohr
Maximum allowed component of the step   ....  0.300
Current trust radius                    ....  0.300
Evaluating the initial hessian          ....  (Almloef) done
Projecting the Hessian                  .... done
Forming the augmented Hessian           .... done
Diagonalizing the augmented Hessian     .... done
Last element of RFO vector              ....  0.976712738
Lowest eigenvalues of augmented Hessian:
 -0.001675089  0.019124839  0.019600921  0.059064371  0.062223212
Length of the computed step             ....  0.219666660
The final length of the internal step   ....  0.219666660
Converting the step to Cartesian space:
 Initial RMS(Int)=    0.0479351951
Transforming coordinates:
 Iter   0:  RMS(Cart)=    0.0325992169 RMS(Int)=    0.0476489585
done
Storing new coordinates                 .... done

                                .--------------------.
          ----------------------|Geometry convergence|-------------------------
          Item                value                   Tolerance       Converged
          ---------------------------------------------------------------------
          RMS gradient        0.0023297610            0.0001000000      NO
          MAX gradient        0.0045406864            0.0003000000      NO
          RMS step            0.0479351951            0.0020000000      NO
          MAX step            0.1210240117            0.0040000000      NO
          -------------------------------------------------------------------------
          ........................................................
          Max(Bonds)      0.0640      Max(Angles)    2.15
          Max(Dihed)        0.00      Max(Improp)    0.00
          ---------------------------------------------------------------------

The optimization has not yet converged - more geometry cycles are needed


    ---------------------------------------------------------------------------
                         Redundant Internal Coordinates
                            (Angstroem and degrees)

        Definition                    Value    dE/dq     Step     New-Value
    ----------------------------------------------------------------------------
     1. B(H   1,C   0)                1.0627 -0.000403  0.0024    1.0651   
     2. B(H   2,C   0)                1.0689 -0.002291  0.0015    1.0703   
     3. B(H   3,C   0)                1.0689 -0.002293  0.0015    1.0703   
     4. B(I   4,H   1)                2.7794 -0.001621  0.0149    2.7943   
     5. B(I   4,H   2)                2.8086  0.000610  0.0078    2.8164   
     6. B(I   4,C   0)                2.4334 -0.001653  0.0157    2.4491   
     7. B(I   4,H   3)                2.8086  0.000611  0.0078    2.8164   
     8. B(F   5,H   3)                2.2869  0.003375 -0.0640    2.2229   
     9. B(F   5,H   2)                2.2867  0.003370 -0.0640    2.2227   
    10. B(F   5,C   0)                2.0919  0.004541 -0.0603    2.0316   
    11. B(F   5,H   1)                2.0342 -0.003542 -0.0128    2.0214   
    12. A(H   1,C   0,H   3)          118.64  0.000237   -0.02    118.63   
    13. A(H   2,C   0,H   3)          116.17 -0.002412    0.52    116.69   
    14. A(H   1,C   0,F   5)           72.09 -0.003765    2.15     74.24   
    15. A(H   2,C   0,F   5)           86.29  0.000157   -0.66     85.63   
    16. A(H   3,C   0,F   5)           86.30  0.000160   -0.66     85.64   
    17. A(H   1,C   0,I   4)           97.49  0.000062   -0.05     97.44   
    18. A(H   2,C   0,I   4)           99.12  0.001926   -0.47     98.65   
    19. A(H   3,C   0,I   4)           99.12  0.001927   -0.47     98.65   
    20. A(I   4,C   0,F   5)          169.58 -0.003703    2.10    171.68   
    21. A(H   1,C   0,H   2)          118.65  0.000240   -0.02    118.63   
    ----------------------------------------------------------------------------

Geometry step timings:
Preparation and reading OPT file:      0.000 s ( 3.342 %)
Internal coordinates            :      0.000 s ( 4.078 %)
B/P matrices and projection     :      0.000 s (11.230 %)
Hessian update/contruction      :      0.000 s (30.682 %)
Making the step                 :      0.000 s (10.094 %)
Converting the step to Cartesian:      0.000 s ( 4.412 %)
Storing new data                :      0.000 s ( 6.217 %)
Checking convergence            :      0.000 s ( 6.350 %)
Final printing                  :      0.000 s (23.329 %)
Total time                      :      0.001 s

Time for energy+gradient        :      0.039 s
Time for complete geometry iter :      0.042 s

         *************************************************************
         *                GEOMETRY OPTIMIZATION CYCLE   2            *
         *************************************************************
---------------------------------
CARTESIAN COORDINATES (ANGSTROEM)
---------------------------------
  C     0.006169    0.165864   -0.094965
  H     0.045349    1.211987   -0.291327
  H     0.895952   -0.414227   -0.226570
  H    -0.924888   -0.345742   -0.225115
  I     0.013246    0.301718    2.350323
  F     0.011570    0.347467   -2.118260

----------------------------
CARTESIAN COORDINATES (A.U.)
----------------------------
  NO LB    ZA    FRAG    MASS        X           Y           Z
   0 C   6.0000    0    12.011    0.011658    0.313438   -0.179458
   1 H   1.0000    0     1.008    0.085696    2.290323   -0.550528
   2 H   1.0000    0     1.008    1.693104   -0.782776   -0.428156
   3 H   1.0000    0     1.008   -1.747784   -0.653358   -0.425406
   4 I  53.0000    0   126.900    0.025031    0.570165    4.441466
   5 F   9.0000    0    18.998    0.021864    0.656617   -4.002930

      -----------------------------------------------------------      
     |                   =====================                   |     
     |                           x T B                           |     
     |                   =====================                   |     
     |                         S. Grimme                         |     
     |          Mulliken Center for Theoretical Chemistry        |     
     |                    University of Bonn                     |     
      -----------------------------------------------------------      

   * xtb version 6.7.1 (edcfbbe) compiled by 'albert@albert-system' on 2024-07-22

   xtb is free software: you can redistribute it and/or modify it under
   the terms of the GNU Lesser General Public License as published by
   the Free Software Foundation, either version 3 of the License, or
   (at your option) any later version.
   
   xtb is distributed in the hope that it will be useful,
   but WITHOUT ANY WARRANTY; without even the implied warranty of
   MERCHANTABILITY or FITNESS FOR A PARTICULAR PURPOSE.  See the
   GNU Lesser General Public License for more details.
   
   Cite this work as:
   * C. Bannwarth, E. Caldeweyher, S. Ehlert, A. Hansen, P. Pracht,
     J. Seibert, S. Spicher, S. Grimme, WIREs Comput. Mol. Sci., 2020, 11,
     e01493. DOI: 10.1002/wcms.1493
   
   for GFN2-xTB:
   * C. Bannwarth, S. Ehlert and S. Grimme., J. Chem. Theory Comput., 2019,
     15, 1652-1671. DOI: 10.1021/acs.jctc.8b01176
   for GFN1-xTB:
   * S. Grimme, C. Bannwarth, P. Shushkov, J. Chem. Theory Comput., 2017,
     13, 1989-2009. DOI: 10.1021/acs.jctc.7b00118
   for GFN0-xTB:
   * P. Pracht, E. Caldeweyher, S. Ehlert, S. Grimme, ChemRxiv, 2019, preprint.
     DOI: 10.26434/chemrxiv.8326202.v1
   for GFN-FF:
   * S. Spicher and S. Grimme, Angew. Chem. Int. Ed., 2020, 59, 15665-15673.
     DOI: 10.1002/anie.202004239
   
   for ALPB and GBSA implicit solvation:
   * S. Ehlert, M. Stahn, S. Spicher, S. Grimme, J. Chem. Theory Comput.,
     2021, 17, 4250-4261. DOI: 10.1021/acs.jctc.1c00471
   
   for ddCOSMO and CPCM-X implicit solvation:
   * M. Stahn, S. Ehlert, S. Grimme, J. Phys. Chem. A,
     2023, XX, XXXX-XXXX. DOI: 10.1021/acs.jpca.3c04382
   
   for DFT-D4:
   * E. Caldeweyher, C. Bannwarth and S. Grimme, J. Chem. Phys., 2017,
     147, 034112. DOI: 10.1063/1.4993215
   * E. Caldeweyher, S. Ehlert, A. Hansen, H. Neugebauer, S. Spicher,
     C. Bannwarth and S. Grimme, J. Chem. Phys., 2019, 150, 154122.
     DOI: 10.1063/1.5090222
   * E. Caldeweyher, J.-M. Mewes, S. Ehlert and S. Grimme, Phys. Chem. Chem. Phys.
     2020, 22, 8499-8512. DOI: 10.1039/D0CP00502A
   
   for sTDA-xTB:
   * S. Grimme and C. Bannwarth, J. Chem. Phys., 2016, 145, 054103.
     DOI: 10.1063/1.4959605
   
   in the mass-spec context:
   * V. Asgeirsson, C. Bauer and S. Grimme, Chem. Sci., 2017, 8, 4879.
     DOI: 10.1039/c7sc00601b
   * J. Koopman and S. Grimme, ACS Omega 2019, 4, 12, 15120-15133.
     DOI: 10.1021/acsomega.9b02011
   
   for metadynamics refer to:
   * S. Grimme, J. Chem. Theory Comput., 2019, 155, 2847-2862
     DOI: 10.1021/acs.jctc.9b00143
   
   for SPH calculations refer to:
   * S. Spicher and S. Grimme, J. Chem. Theory Comput., 2021, 17, 1701-1714
     DOI: 10.1021/acs.jctc.0c01306
   
   for ONIOM refer to:
   * C. Plett, A. Katbashev, S. Ehlert, S. Grimme, M. Bursch,
     Phys. Chem. Chem. Phys., 2023, 25, 17860-17868. DOI: 10.1039/D3CP02178E
   
   for DIPRO refer to:
   * J. Kohn, N. Gildemeister, S. Grimme, D. Fazzi, A. Hansen,
     J. Chem. Phys., 2023, just accepted.
   
   for PTB refer to:
   * S. Grimme, M. Mueller, A. Hansen, J. Chem. Phys., 2023, 158, 124111.
     DOI: 10.1063/5.0137838
   
   with help from (in alphabetical order)
   P. Atkinson, C. Bannwarth, F. Bohle, G. Brandenburg, E. Caldeweyher
   M. Checinski, S. Dohm, S. Ehlert, S. Ehrlich, I. Gerasimov, C. Hölzer
   A. Katbashev, J. Kohn, J. Koopman, C. Lavigne, S. Lehtola, F. März, M. Müller,
   F. Musil, H. Neugebauer, J. Pisarek, C. Plett, P. Pracht, F. Pultar,
   J. Seibert, P. Shushkov, S. Spicher, M. Stahn, M. Steiner, T. Strunk,
   J. Stückrath, T. Rose, and J. Unsleber
   
 * started run on 2026/03/16 at 14:19:01.615     
   ID    Z sym.   atoms
    1    6 C      1
    2    1 H      2-4
    3   53 I      5
    4    9 F      6

           -------------------------------------------------
          |                Calculation Setup                |
           -------------------------------------------------

          program call               : /software/orca-6.1.0-el8-x86_64/bin/otool_xtb reactant_optfreq_XTB.xyz --grad -c -1 -u 0 -P 8 --namespace reactant_optfreq --input reactant_optfreq_XTB.input.tmp --acc 0.200000
          hostname                   : midway3-login4.rcc.local
          calculation namespace      : reactant_optfreq
          coordinate file            : reactant_optfreq_XTB.xyz
          omp threads                :                     8


molecular fragmentation (1/2 indicates fragments):
111112
# atoms in fragment 1/2:     5     1
 fragment masses (1/2) :      141.94       19.00
CMA distance (Bohr)    :   7.950
constraining FC (au)   :  0.0500

           -------------------------------------------------
          |                 G F N 2 - x T B                 |
           -------------------------------------------------

        Reference                      10.1021/acs.jctc.8b01176
      * Hamiltonian:
        H0-scaling (s, p, d)           1.850000    2.230000    2.230000
        zeta-weighting                 0.500000
      * Dispersion:
        s8                             2.700000
        a1                             0.520000
        a2                             5.000000
        s9                             5.000000
      * Repulsion:
        kExp                           1.500000    1.000000
        rExp                           1.000000
      * Coulomb:
        alpha                          2.000000
        third order                    shell-resolved
        anisotropic                    true
        a3                             3.000000
        a5                             4.000000
        cn-shift                       1.200000
        cn-exp                         4.000000
        max-rad                        5.000000

q/qsh data taken from xtbrestart
CAMM data taken from xtbrestart

          ...................................................
          :                      SETUP                      :
          :.................................................:
          :  # basis functions                  21          :
          :  # atomic orbitals                  20          :
          :  # shells                           10          :
          :  # electrons                        22          :
          :  max. iterations                   250          :
          :  Hamiltonian                  GFN2-xTB          :
          :  restarted?                       true          :
          :  GBSA solvation                  false          :
          :  PC potential                    false          :
          :  electronic temp.          300.0000000     K    :
          :  accuracy                    0.2000000          :
          :  -> integral cutoff          0.3198970E+02      :
          :  -> integral neglect         0.2000000E-08      :
          :  -> SCF convergence          0.2000000E-06 Eh   :
          :  -> wf. convergence          0.2000000E-04 e    :
          :  Broyden damping             0.4000000          :
          :  net charge                         -1          :
          :  unpaired electrons                  0          :
          ...................................................

 iter      E             dE          RMSdq      gap      omega  full diag
   1    -12.4857488 -0.124857E+02  0.611E-01    2.78       0.0  T
   2    -12.4865209 -0.772010E-03  0.266E-01    3.01       1.0  T
   3    -12.4865723 -0.514156E-04  0.107E-01    2.96       1.0  T
   4    -12.4865711  0.118041E-05  0.375E-02    2.97       1.1  T
   5    -12.4865736 -0.252085E-05  0.177E-02    2.96       2.3  T
   6    -12.4865736 -0.137532E-07  0.675E-03    2.96       6.0  T
   7    -12.4865737 -0.562754E-07  0.347E-03    2.96      11.8  T
   8    -12.4865737 -0.267363E-07  0.591E-04    2.96      69.1  T
   9    -12.4865737 -0.200613E-09  0.117E-04    2.96     349.0  T
  10    -12.4865737 -0.250822E-11  0.717E-05    2.96     569.1  T

   *** convergence criteria satisfied after 10 iterations ***

         #    Occupation            Energy/Eh            Energy/eV
      -------------------------------------------------------------
         1        2.0000           -0.5308048             -14.4439
       ...           ...                  ...                  ...
         5        2.0000           -0.3283398              -8.9346
         6        2.0000           -0.2723148              -7.4101
         7        2.0000           -0.2242903              -6.1033
         8        2.0000           -0.2242011              -6.1008
         9        2.0000           -0.1854698              -5.0469
        10        2.0000           -0.1832599              -4.9868
        11        2.0000           -0.1824143              -4.9637 (HOMO)
        12                         -0.0735759              -2.0021 (LUMO)
        13                          0.2515022               6.8437
        14                          0.2518518               6.8532
        15                          0.2640215               7.1844
        16                          0.2641489               7.1879
       ...                                ...                  ...
        20                          0.4563645              12.4183
      -------------------------------------------------------------
                  HL-Gap            0.1088385 Eh            2.9616 eV
             Fermi-level           -0.1279951 Eh           -3.4829 eV

 SCC (total)                   0 d,  0 h,  0 min,  0.026 sec
 SCC setup                      ...        0 min,  0.000 sec (  1.054%)
 Dispersion                     ...        0 min,  0.000 sec (  0.219%)
 classical contributions        ...        0 min,  0.000 sec (  0.116%)
 integral evaluation            ...        0 min,  0.023 sec ( 90.296%)
 iterations                     ...        0 min,  0.002 sec (  5.980%)
 molecular gradient             ...        0 min,  0.000 sec (  1.539%)
 printout                       ...        0 min,  0.000 sec (  0.728%)

         :::::::::::::::::::::::::::::::::::::::::::::::::::::
         ::                     SUMMARY                     ::
         :::::::::::::::::::::::::::::::::::::::::::::::::::::
         :: total energy             -12.426279366447 Eh    ::
         :: gradient norm              0.017416767003 Eh/a0 ::
         :: HOMO-LUMO gap              2.961645260955 eV    ::
         ::.................................................::
         :: SCC energy               -12.486573881332 Eh    ::
         :: -> isotropic ES            0.180524953183 Eh    ::
         :: -> anisotropic ES         -0.004345134776 Eh    ::
         :: -> anisotropic XC          0.000299571612 Eh    ::
         :: -> dispersion             -0.002524541952 Eh    ::
         :: repulsion energy           0.060294514885 Eh    ::
         :: add. restraining           0.000000000000 Eh    ::
         :: total charge              -1.000000000000 e     ::
         :::::::::::::::::::::::::::::::::::::::::::::::::::::


Property printout bound to 'properties.out'

           -------------------------------------------------
          | TOTAL ENERGY              -12.426279366447 Eh   |
          | GRADIENT NORM               0.017416767003 Eh/α |
          | HOMO-LUMO GAP               2.961645260955 eV   |
           -------------------------------------------------

------------------------------------------------------------------------
 * finished run on 2026/03/16 at 14:19:01.653     
------------------------------------------------------------------------
 total:
 * wall-time:     0 d,  0 h,  0 min,  0.037 sec
 *  cpu-time:     0 d,  0 h,  0 min,  0.179 sec
 * ratio c/w:     4.844 speedup
 SCF:
 * wall-time:     0 d,  0 h,  0 min,  0.026 sec
 *  cpu-time:     0 d,  0 h,  0 min,  0.113 sec
 * ratio c/w:     4.312 speedup


-------------------------   --------------------
FINAL SINGLE POINT ENERGY       -12.426279366450
-------------------------   --------------------


-------------
DIPOLE MOMENT
-------------
                                X             Y             Z
Total Dipole Moment    :     -0.02700      -0.69700      -0.58700
                        -----------------------------------------
Magnitude (a.u.)       :      0.91165
Magnitude (Debye)      :      2.31723


------------------
CARTESIAN GRADIENT
------------------

   1   C   :   -0.000091152   -0.002658373    0.013871608
   2   H   :   -0.000061847   -0.001510631   -0.005728324
   3   H   :   -0.000066360   -0.001492572   -0.000272067
   4   H   :   -0.000047966   -0.001493307   -0.000268339
   5   I   :    0.000056163    0.001532700   -0.003017444
   6   F   :    0.000211162    0.005622182   -0.004585434

Difference to translation invariance:
           :   -0.0000000000    0.0000000000   -0.0000000000

Difference to rotation invariance:
           :   -0.0000001063    0.0000000040    0.0000000001

Norm of the Cartesian gradient     ...    0.0174167670
RMS gradient                       ...    0.0041051714
MAX gradient                       ...    0.0138716081
------------------------------------------------------------------------------
                         ORCA GEOMETRY RELAXATION STEP
------------------------------------------------------------------------------

Reading the OPT-File                    .... done
Getting information on internals        .... done
Copying old internal coords+grads       .... done
Making the new internal coordinates     .... (2022 redundants) done
Validating the new internal coordinates .... (2022 redundants) done
Calculating the B-matrix                .... done
Calculating the G,G- and P matrices     .... done
Transforming gradient to internals      .... done
Projecting the internal gradient        .... done
Number of atoms                         ....   6
Number of internal coordinates          ....  21
Current Energy                          ....   -12.426279366 Eh
Current gradient norm                   ....     0.017416767 Eh/bohr
Maximum allowed component of the step   ....  0.300
Current trust radius                    ....  0.300
Updating the Hessian (BFGS)             .... done
Forming the augmented Hessian           .... done
Diagonalizing the augmented Hessian     .... done
Last element of RFO vector              ....  0.801025470
Lowest eigenvalues of augmented Hessian:
 -0.006008009  0.008667334  0.020913671  0.046315748  0.059064375
Length of the computed step             ....  0.747329878
Warning: the length of the step is outside the trust region - taking restricted step instead
The input lambda is                     ....     0.002547
   iter:   5  x=   -0.003877  g=  791.188709 f(x)=     1.907139
   iter:  10  x=   -0.021002  g=    8.005024 f(x)=     0.009171
The output lambda is                    ....    -0.021092 (14 iterations)
The final length of the internal step   ....  0.300000000
Converting the step to Cartesian space:
 Initial RMS(Int)=    0.0654653671
Transforming coordinates:
 Iter   0:  RMS(Cart)=    0.0549191497 RMS(Int)=    0.0647551729
done
Storing new coordinates                 .... done
The predicted energy change is          ....    -0.002281199
Previously predicted energy change      ....    -0.000877959
Actually observed energy change         ....    -0.001565552
Ratio of predicted to observed change   ....     1.783172596
New trust radius                        ....     0.200000000

                                .--------------------.
          ----------------------|Geometry convergence|-------------------------
          Item                value                   Tolerance       Converged
          ---------------------------------------------------------------------
          Energy change      -0.0015655518            0.0000050000      NO
          RMS gradient        0.0023280215            0.0001000000      NO
          MAX gradient        0.0043946773            0.0003000000      NO
          RMS step            0.0654653671            0.0020000000      NO
          MAX step            0.1470467781            0.0040000000      NO
          -------------------------------------------------------------------------
          ........................................................
          Max(Bonds)      0.0778      Max(Angles)    5.11
          Max(Dihed)        0.00      Max(Improp)    0.00
          ---------------------------------------------------------------------

The optimization has not yet converged - more geometry cycles are needed


    ---------------------------------------------------------------------------
                         Redundant Internal Coordinates
                            (Angstroem and degrees)

        Definition                    Value    dE/dq     Step     New-Value
    ----------------------------------------------------------------------------
     1. B(H   1,C   0)                1.0651  0.001122  0.0019    1.0670   
     2. B(H   2,C   0)                1.0703 -0.000611  0.0015    1.0718   
     3. B(H   3,C   0)                1.0703 -0.000613  0.0015    1.0718   
     4. B(I   4,H   1)                2.7943 -0.000961  0.0226    2.8168   
     5. B(I   4,H   2)                2.8164  0.000750  0.0076    2.8240   
     6. B(I   4,C   0)                2.4491 -0.003430  0.0362    2.4853   
     7. B(I   4,H   3)                2.8164  0.000751  0.0076    2.8240   
     8. B(F   5,H   3)                2.2229  0.002470 -0.0778    2.1451   
     9. B(F   5,H   2)                2.2228  0.002465 -0.0777    2.1450   
    10. B(F   5,C   0)                2.0314  0.004395 -0.0759    1.9556   
    11. B(F   5,H   1)                2.0214 -0.004239  0.0274    2.0488   
    12. A(H   1,C   0,H   3)          118.62 -0.000214    0.28    118.90   
    13. A(H   2,C   0,H   3)          116.69 -0.002371    1.46    118.15   
    14. A(H   1,C   0,F   5)           74.25 -0.004270    5.11     79.35   
    15. A(H   2,C   0,F   5)           85.63 -0.000617   -0.68     84.95   
    16. A(H   3,C   0,F   5)           85.64 -0.000615   -0.69     84.95   
    17. A(H   1,C   0,I   4)           97.44  0.000949   -0.74     96.70   
    18. A(H   2,C   0,I   4)           98.65  0.002439   -1.67     96.98   
    19. A(H   3,C   0,I   4)           98.65  0.002440   -1.67     96.98   
    20. A(I   4,C   0,F   5)          171.69 -0.003321    4.37    176.06   
    21. A(H   1,C   0,H   2)          118.63 -0.000212    0.28    118.90   
    ----------------------------------------------------------------------------

Geometry step timings:
Preparation and reading OPT file:      0.000 s ( 2.397 %)
Internal coordinates            :      0.000 s ( 3.529 %)
B/P matrices and projection     :      0.000 s (10.320 %)
Hessian update/contruction      :      0.000 s (28.362 %)
Making the step                 :      0.000 s (14.647 %)
Converting the step to Cartesian:      0.000 s ( 2.530 %)
Storing new data                :      0.000 s ( 7.590 %)
Checking convergence            :      0.000 s ( 7.790 %)
Final printing                  :      0.000 s (22.836 %)
Total time                      :      0.002 s

Time for energy+gradient        :      0.047 s
Time for complete geometry iter :      0.050 s

         *************************************************************
         *                GEOMETRY OPTIMIZATION CYCLE   3            *
         *************************************************************
---------------------------------
CARTESIAN COORDINATES (ANGSTROEM)
---------------------------------
  C     0.007079    0.190356   -0.125175
  H     0.046647    1.245698   -0.278647
  H     0.905041   -0.382757   -0.241933
  H    -0.931578   -0.313686   -0.240488
  I     0.011606    0.258537    2.359192
  F     0.008602    0.268919   -2.078863

----------------------------
CARTESIAN COORDINATES (A.U.)
----------------------------
  NO LB    ZA    FRAG    MASS        X           Y           Z
   0 C   6.0000    0    12.011    0.013378    0.359720   -0.236546
   1 H   1.0000    0     1.008    0.088151    2.354028   -0.526567
   2 H   1.0000    0     1.008    1.710280   -0.723306   -0.457187
   3 H   1.0000    0     1.008   -1.760427   -0.592781   -0.454456
   4 I  53.0000    0   126.900    0.021932    0.488564    4.458227
   5 F   9.0000    0    18.998    0.016255    0.508183   -3.928481

      -----------------------------------------------------------      
     |                   =====================                   |     
     |                           x T B                           |     
     |                   =====================                   |     
     |                         S. Grimme                         |     
     |          Mulliken Center for Theoretical Chemistry        |     
     |                    University of Bonn                     |     
      -----------------------------------------------------------      

   * xtb version 6.7.1 (edcfbbe) compiled by 'albert@albert-system' on 2024-07-22

   xtb is free software: you can redistribute it and/or modify it under
   the terms of the GNU Lesser General Public License as published by
   the Free Software Foundation, either version 3 of the License, or
   (at your option) any later version.
   
   xtb is distributed in the hope that it will be useful,
   but WITHOUT ANY WARRANTY; without even the implied warranty of
   MERCHANTABILITY or FITNESS FOR A PARTICULAR PURPOSE.  See the
   GNU Lesser General Public License for more details.
   
   Cite this work as:
   * C. Bannwarth, E. Caldeweyher, S. Ehlert, A. Hansen, P. Pracht,
     J. Seibert, S. Spicher, S. Grimme, WIREs Comput. Mol. Sci., 2020, 11,
     e01493. DOI: 10.1002/wcms.1493
   
   for GFN2-xTB:
   * C. Bannwarth, S. Ehlert and S. Grimme., J. Chem. Theory Comput., 2019,
     15, 1652-1671. DOI: 10.1021/acs.jctc.8b01176
   for GFN1-xTB:
   * S. Grimme, C. Bannwarth, P. Shushkov, J. Chem. Theory Comput., 2017,
     13, 1989-2009. DOI: 10.1021/acs.jctc.7b00118
   for GFN0-xTB:
   * P. Pracht, E. Caldeweyher, S. Ehlert, S. Grimme, ChemRxiv, 2019, preprint.
     DOI: 10.26434/chemrxiv.8326202.v1
   for GFN-FF:
   * S. Spicher and S. Grimme, Angew. Chem. Int. Ed., 2020, 59, 15665-15673.
     DOI: 10.1002/anie.202004239
   
   for ALPB and GBSA implicit solvation:
   * S. Ehlert, M. Stahn, S. Spicher, S. Grimme, J. Chem. Theory Comput.,
     2021, 17, 4250-4261. DOI: 10.1021/acs.jctc.1c00471
   
   for ddCOSMO and CPCM-X implicit solvation:
   * M. Stahn, S. Ehlert, S. Grimme, J. Phys. Chem. A,
     2023, XX, XXXX-XXXX. DOI: 10.1021/acs.jpca.3c04382
   
   for DFT-D4:
   * E. Caldeweyher, C. Bannwarth and S. Grimme, J. Chem. Phys., 2017,
     147, 034112. DOI: 10.1063/1.4993215
   * E. Caldeweyher, S. Ehlert, A. Hansen, H. Neugebauer, S. Spicher,
     C. Bannwarth and S. Grimme, J. Chem. Phys., 2019, 150, 154122.
     DOI: 10.1063/1.5090222
   * E. Caldeweyher, J.-M. Mewes, S. Ehlert and S. Grimme, Phys. Chem. Chem. Phys.
     2020, 22, 8499-8512. DOI: 10.1039/D0CP00502A
   
   for sTDA-xTB:
   * S. Grimme and C. Bannwarth, J. Chem. Phys., 2016, 145, 054103.
     DOI: 10.1063/1.4959605
   
   in the mass-spec context:
   * V. Asgeirsson, C. Bauer and S. Grimme, Chem. Sci., 2017, 8, 4879.
     DOI: 10.1039/c7sc00601b
   * J. Koopman and S. Grimme, ACS Omega 2019, 4, 12, 15120-15133.
     DOI: 10.1021/acsomega.9b02011
   
   for metadynamics refer to:
   * S. Grimme, J. Chem. Theory Comput., 2019, 155, 2847-2862
     DOI: 10.1021/acs.jctc.9b00143
   
   for SPH calculations refer to:
   * S. Spicher and S. Grimme, J. Chem. Theory Comput., 2021, 17, 1701-1714
     DOI: 10.1021/acs.jctc.0c01306
   
   for ONIOM refer to:
   * C. Plett, A. Katbashev, S. Ehlert, S. Grimme, M. Bursch,
     Phys. Chem. Chem. Phys., 2023, 25, 17860-17868. DOI: 10.1039/D3CP02178E
   
   for DIPRO refer to:
   * J. Kohn, N. Gildemeister, S. Grimme, D. Fazzi, A. Hansen,
     J. Chem. Phys., 2023, just accepted.
   
   for PTB refer to:
   * S. Grimme, M. Mueller, A. Hansen, J. Chem. Phys., 2023, 158, 124111.
     DOI: 10.1063/5.0137838
   
   with help from (in alphabetical order)
   P. Atkinson, C. Bannwarth, F. Bohle, G. Brandenburg, E. Caldeweyher
   M. Checinski, S. Dohm, S. Ehlert, S. Ehrlich, I. Gerasimov, C. Hölzer
   A. Katbashev, J. Kohn, J. Koopman, C. Lavigne, S. Lehtola, F. März, M. Müller,
   F. Musil, H. Neugebauer, J. Pisarek, C. Plett, P. Pracht, F. Pultar,
   J. Seibert, P. Shushkov, S. Spicher, M. Stahn, M. Steiner, T. Strunk,
   J. Stückrath, T. Rose, and J. Unsleber
   
 * started run on 2026/03/16 at 14:19:01.665     
   ID    Z sym.   atoms
    1    6 C      1
    2    1 H      2-4
    3   53 I      5
    4    9 F      6

           -------------------------------------------------
          |                Calculation Setup                |
           -------------------------------------------------

          program call               : /software/orca-6.1.0-el8-x86_64/bin/otool_xtb reactant_optfreq_XTB.xyz --grad -c -1 -u 0 -P 8 --namespace reactant_optfreq --input reactant_optfreq_XTB.input.tmp --acc 0.200000
          hostname                   : midway3-login4.rcc.local
          calculation namespace      : reactant_optfreq
          coordinate file            : reactant_optfreq_XTB.xyz
          omp threads                :                     8


molecular fragmentation (1/2 indicates fragments):
111112
# atoms in fragment 1/2:     5     1
 fragment masses (1/2) :      141.94       19.00
CMA distance (Bohr)    :   7.884
constraining FC (au)   :  0.0500

           -------------------------------------------------
          |                 G F N 2 - x T B                 |
           -------------------------------------------------

        Reference                      10.1021/acs.jctc.8b01176
      * Hamiltonian:
        H0-scaling (s, p, d)           1.850000    2.230000    2.230000
        zeta-weighting                 0.500000
      * Dispersion:
        s8                             2.700000
        a1                             0.520000
        a2                             5.000000
        s9                             5.000000
      * Repulsion:
        kExp                           1.500000    1.000000
        rExp                           1.000000
      * Coulomb:
        alpha                          2.000000
        third order                    shell-resolved
        anisotropic                    true
        a3                             3.000000
        a5                             4.000000
        cn-shift                       1.200000
        cn-exp                         4.000000
        max-rad                        5.000000

q/qsh data taken from xtbrestart
CAMM data taken from xtbrestart

          ...................................................
          :                      SETUP                      :
          :.................................................:
          :  # basis functions                  21          :
          :  # atomic orbitals                  20          :
          :  # shells                           10          :
          :  # electrons                        22          :
          :  max. iterations                   250          :
          :  Hamiltonian                  GFN2-xTB          :
          :  restarted?                       true          :
          :  GBSA solvation                  false          :
          :  PC potential                    false          :
          :  electronic temp.          300.0000000     K    :
          :  accuracy                    0.2000000          :
          :  -> integral cutoff          0.3198970E+02      :
          :  -> integral neglect         0.2000000E-08      :
          :  -> SCF convergence          0.2000000E-06 Eh   :
          :  -> wf. convergence          0.2000000E-04 e    :
          :  Broyden damping             0.4000000          :
          :  net charge                         -1          :
          :  unpaired electrons                  0          :
          ...................................................

 iter      E             dE          RMSdq      gap      omega  full diag
   1    -12.4861069 -0.124861E+02  0.977E-01    3.19       0.0  T
   2    -12.4880537 -0.194685E-02  0.376E-01    3.45       1.0  T
   3    -12.4881140 -0.602341E-04  0.174E-01    3.43       1.0  T
   4    -12.4881149 -0.915478E-06  0.543E-02    3.43       1.0  T
   5    -12.4881169 -0.205215E-05  0.337E-02    3.43       1.2  T
   6    -12.4881171 -0.168447E-06  0.106E-02    3.43       3.8  T
   7    -12.4881172 -0.108533E-06  0.642E-03    3.43       6.4  T
   8    -12.4881173 -0.809864E-07  0.889E-04    3.43      45.9  T
   9    -12.4881173 -0.429685E-09  0.195E-04    3.43     209.0  T
  10    -12.4881173 -0.122391E-10  0.994E-05    3.43     410.7  T

   *** convergence criteria satisfied after 10 iterations ***

         #    Occupation            Energy/Eh            Energy/eV
      -------------------------------------------------------------
         1        2.0000           -0.5209158             -14.1748
       ...           ...                  ...                  ...
         5        2.0000           -0.3295706              -8.9681
         6        2.0000           -0.2700383              -7.3481
         7        2.0000           -0.2178643              -5.9284
         8        2.0000           -0.2177960              -5.9265
         9        2.0000           -0.1967267              -5.3532
        10        2.0000           -0.1967150              -5.3529
        11        2.0000           -0.1944604              -5.2915 (HOMO)
        12                         -0.0684801              -1.8634 (LUMO)
        13                          0.2635889               7.1726
        14                          0.2638440               7.1796
        15                          0.2743032               7.4642
        16                          0.2743522               7.4655
       ...                                ...                  ...
        20                          0.4509628              12.2713
      -------------------------------------------------------------
                  HL-Gap            0.1259804 Eh            3.4281 eV
             Fermi-level           -0.1314703 Eh           -3.5775 eV

 SCC (total)                   0 d,  0 h,  0 min,  0.076 sec
 SCC setup                      ...        0 min,  0.000 sec (  0.241%)
 Dispersion                     ...        0 min,  0.000 sec (  0.077%)
 classical contributions        ...        0 min,  0.000 sec (  0.038%)
 integral evaluation            ...        0 min,  0.074 sec ( 96.862%)
 iterations                     ...        0 min,  0.001 sec (  1.877%)
 molecular gradient             ...        0 min,  0.001 sec (  0.683%)
 printout                       ...        0 min,  0.000 sec (  0.197%)

         :::::::::::::::::::::::::::::::::::::::::::::::::::::
         ::                     SUMMARY                     ::
         :::::::::::::::::::::::::::::::::::::::::::::::::::::
         :: total energy             -12.428716931060 Eh    ::
         :: gradient norm              0.021711734246 Eh/a0 ::
         :: HOMO-LUMO gap              3.428099936294 eV    ::
         ::.................................................::
         :: SCC energy               -12.488117447213 Eh    ::
         :: -> isotropic ES            0.174947001174 Eh    ::
         :: -> anisotropic ES         -0.004044921672 Eh    ::
         :: -> anisotropic XC          0.000585145246 Eh    ::
         :: -> dispersion             -0.002521180163 Eh    ::
         :: repulsion energy           0.059400516153 Eh    ::
         :: add. restraining           0.000000000000 Eh    ::
         :: total charge              -1.000000000000 e     ::
         :::::::::::::::::::::::::::::::::::::::::::::::::::::


Property printout bound to 'properties.out'

           -------------------------------------------------
          | TOTAL ENERGY              -12.428716931060 Eh   |
          | GRADIENT NORM               0.021711734246 Eh/α |
          | HOMO-LUMO GAP               3.428099936294 eV   |
           -------------------------------------------------

------------------------------------------------------------------------
 * finished run on 2026/03/16 at 14:19:01.752     
------------------------------------------------------------------------
 total:
 * wall-time:     0 d,  0 h,  0 min,  0.086 sec
 *  cpu-time:     0 d,  0 h,  0 min,  0.323 sec
 * ratio c/w:     3.741 speedup
 SCF:
 * wall-time:     0 d,  0 h,  0 min,  0.076 sec
 *  cpu-time:     0 d,  0 h,  0 min,  0.265 sec
 * ratio c/w:     3.469 speedup


-------------------------   --------------------
FINAL SINGLE POINT ENERGY       -12.428716931060
-------------------------   --------------------


-------------
DIPOLE MOMENT
-------------
                                X             Y             Z
Total Dipole Moment    :     -0.02100      -0.53700      -0.89300
                        -----------------------------------------
Magnitude (a.u.)       :      1.04224
Magnitude (Debye)      :      2.64916


------------------
CARTESIAN GRADIENT
------------------

   1   C   :   -0.000000465   -0.000368459    0.019196077
   2   H   :   -0.000023381   -0.000497759   -0.006178289
   3   H   :    0.001619627   -0.001524747   -0.002637525
   4   H   :   -0.001735323   -0.001399611   -0.002631741
   5   I   :    0.000020612    0.000617658   -0.004062089
   6   F   :    0.000118929    0.003172917   -0.003686432

Difference to translation invariance:
           :    0.0000000000   -0.0000000000    0.0000000000

Difference to rotation invariance:
           :   -0.0000001644    0.0000000066    0.0000000001

Norm of the Cartesian gradient     ...    0.0217117342
RMS gradient                       ...    0.0051175048
MAX gradient                       ...    0.0191960765
------------------------------------------------------------------------------
                         ORCA GEOMETRY RELAXATION STEP
------------------------------------------------------------------------------

Reading the OPT-File                    .... done
Getting information on internals        .... done
Copying old internal coords+grads       .... done
Making the new internal coordinates     .... (2022 redundants) done
Validating the new internal coordinates .... (2022 redundants) done
Calculating the B-matrix                .... done
Calculating the G,G- and P matrices     .... done
Transforming gradient to internals      .... done
Projecting the internal gradient        .... done
Number of atoms                         ....   6
Number of internal coordinates          ....  21
Current Energy                          ....   -12.428716931 Eh
Current gradient norm                   ....     0.021711734 Eh/bohr
Maximum allowed component of the step   ....  0.300
Current trust radius                    ....  0.200
Updating the Hessian (BFGS)             .... done
Forming the augmented Hessian           .... done
Diagonalizing the augmented Hessian     .... done
Last element of RFO vector              ....  0.814217008
Lowest eigenvalues of augmented Hessian:
 -0.005846342  0.008945266  0.021224236  0.026743828  0.059064374
Length of the computed step             ....  0.713029377
Warning: the length of the step is outside the trust region - taking restricted step instead
The input lambda is                     ....     0.003257
   iter:   5  x=   -0.003316  g=  766.329956 f(x)=     1.925748
   iter:  10  x=   -0.032454  g=    3.608914 f(x)=     0.020274
   iter:  15  x=   -0.034521  g=    1.909698 f(x)=     0.000000
The output lambda is                    ....    -0.034521 (15 iterations)
The final length of the internal step   ....  0.200000000
Converting the step to Cartesian space:
 Initial RMS(Int)=    0.0436435780
Transforming coordinates:
 Iter   0:  RMS(Cart)=    0.0381198717 RMS(Int)=    0.0433758872
done
Storing new coordinates                 .... done
The predicted energy change is          ....    -0.001618990
Previously predicted energy change      ....    -0.002281199
Actually observed energy change         ....    -0.002437565
Ratio of predicted to observed change   ....     1.068545421
New trust radius                        ....     0.300000000

                                .--------------------.
          ----------------------|Geometry convergence|-------------------------
          Item                value                   Tolerance       Converged
          ---------------------------------------------------------------------
          Energy change      -0.0024375646            0.0000050000      NO
          RMS gradient        0.0024301851            0.0001000000      NO
          MAX gradient        0.0054426524            0.0003000000      NO
          RMS step            0.0436435780            0.0020000000      NO
          MAX step            0.0925292509            0.0040000000      NO
          -------------------------------------------------------------------------
          ........................................................
          Max(Bonds)      0.0490      Max(Angles)    4.35
          Max(Dihed)        0.00      Max(Improp)    0.00
          ---------------------------------------------------------------------

The optimization has not yet converged - more geometry cycles are needed


    ---------------------------------------------------------------------------
                         Redundant Internal Coordinates
                            (Angstroem and degrees)

        Definition                    Value    dE/dq     Step     New-Value
    ----------------------------------------------------------------------------
     1. B(H   1,C   0)                1.0672  0.001467  0.0002    1.0673   
     2. B(H   2,C   0)                1.0716  0.001656 -0.0004    1.0712   
     3. B(H   3,C   0)                1.0716  0.001656 -0.0004    1.0712   
     4. B(I   4,H   1)                2.8167 -0.000037  0.0137    2.8304   
     5. B(I   4,H   2)                2.8241  0.000774 -0.0000    2.8240   
     6. B(I   4,C   0)                2.4853 -0.005443  0.0354    2.5207   
     7. B(I   4,H   3)                2.8241  0.000774 -0.0000    2.8240   
     8. B(F   5,H   3)                2.1455  0.001023 -0.0363    2.1091   
     9. B(F   5,H   2)                2.1454  0.001019 -0.0363    2.1091   
    10. B(F   5,C   0)                1.9553  0.004658 -0.0490    1.9063   
    11. B(F   5,H   1)                2.0485 -0.003048  0.0349    2.0834   
    12. A(H   1,C   0,H   3)          118.82 -0.000851    0.46    119.29   
    13. A(H   2,C   0,H   3)          118.08 -0.001597    1.43    119.51   
    14. A(H   1,C   0,F   5)           79.43 -0.003993    4.35     83.78   
    15. A(H   2,C   0,F   5)           84.95 -0.002021    0.37     85.32   
    16. A(H   3,C   0,F   5)           84.96 -0.002019    0.37     85.32   
    17. A(H   1,C   0,I   4)           96.69  0.002432   -1.18     95.51   
[...]
                  HL-Gap            0.3320855 Eh            9.0365 eV
             Fermi-level            0.0122171 Eh            0.3324 eV

 SCC (total)                   0 d,  0 h,  0 min,  0.048 sec
 SCC setup                      ...        0 min,  0.000 sec (  0.411%)
 Dispersion                     ...        0 min,  0.000 sec (  0.109%)
 classical contributions        ...        0 min,  0.000 sec (  0.049%)
 integral evaluation            ...        0 min,  0.047 sec ( 96.732%)
 iterations                     ...        0 min,  0.001 sec (  1.652%)
 molecular gradient             ...        0 min,  0.000 sec (  0.758%)
 printout                       ...        0 min,  0.000 sec (  0.260%)

         :::::::::::::::::::::::::::::::::::::::::::::::::::::
         ::                     SUMMARY                     ::
         :::::::::::::::::::::::::::::::::::::::::::::::::::::
         :: total energy             -12.467194769053 Eh    ::
         :: gradient norm              0.000091772823 Eh/a0 ::
         :: HOMO-LUMO gap              9.036505587939 eV    ::
         ::.................................................::
         :: SCC energy               -12.526694535782 Eh    ::
         :: -> isotropic ES            0.167337392073 Eh    ::
         :: -> anisotropic ES         -0.000913137355 Eh    ::
         :: -> anisotropic XC         -0.001436273842 Eh    ::
         :: -> dispersion             -0.002229250107 Eh    ::
         :: repulsion energy           0.059499766729 Eh    ::
         :: add. restraining           0.000000000000 Eh    ::
         :: total charge              -1.000000000000 e     ::
         :::::::::::::::::::::::::::::::::::::::::::::::::::::

           ------------------------------------------------- 
          |                Numerical Hessian                |
           ------------------------------------------------- 
step length          :   0.00500
SCC accuracy         :   0.30000
Hessian scale factor :   1.00000
frozen atoms in %    :   0.00000    0
RMS gradient         :   0.00009
estimated CPU  time      0.00 min
estimated wall time      0.00 min

writing file <hessian>.

 projected vibrational frequencies (cm⁻¹)
eigval :       -0.00    -0.00    -0.00    -0.00     0.00     0.00
eigval :       96.13   100.36   100.39  1000.94  1106.13  1106.16
eigval :     1386.52  1451.66  1451.87  3036.84  3043.89  3044.26

Property printout bound to 'properties.out'
Refinement of some symmetry elements was terminated before convergence was reached.
Some symmetry elements may remain unidentified.
Molecule has the following symmetry elements: (C3) 3*(sigma) 
It seems to be the C3v point group

           -------------------------------------------------
          | TOTAL ENERGY              -12.467194769053 Eh   |
          | TOTAL ENTHALPY            -12.422544374365 Eh   |
          | TOTAL FREE ENERGY         -12.457953754634 Eh   |
          | GRADIENT NORM               0.000091763524 Eh/α |
          | HOMO-LUMO GAP               9.036505513026 eV   |
           -------------------------------------------------

------------------------------------------------------------------------
 * finished run on 2026/03/16 at 14:19:03.857     
------------------------------------------------------------------------
 total:
 * wall-time:     0 d,  0 h,  0 min,  0.131 sec
 *  cpu-time:     0 d,  0 h,  0 min,  0.509 sec
 * ratio c/w:     3.901 speedup
 SCF:
 * wall-time:     0 d,  0 h,  0 min,  0.049 sec
 *  cpu-time:     0 d,  0 h,  0 min,  0.343 sec
 * ratio c/w:     7.057 speedup
 analytical hessian:
 * wall-time:     0 d,  0 h,  0 min,  0.058 sec
 *  cpu-time:     0 d,  0 h,  0 min,  0.097 sec
 * ratio c/w:     1.669 speedup


-------------------------   --------------------
FINAL SINGLE POINT ENERGY       -12.467194769050
-------------------------   --------------------


-------------
DIPOLE MOMENT
-------------
                                X             Y             Z
Total Dipole Moment    :     -0.01800      -0.38300      -4.25800
                        -----------------------------------------
Magnitude (a.u.)       :      4.27523
Magnitude (Debye)      :     10.86677


-----------------------
VIBRATIONAL FREQUENCIES
-----------------------

Scaling factor for frequencies =  1.000000000  (already applied!)

     0:       0.00 cm**-1
     1:       0.00 cm**-1
     2:       0.00 cm**-1
     3:       0.00 cm**-1
     4:       0.00 cm**-1
     5:       0.00 cm**-1
     6:      96.13 cm**-1
     7:     100.36 cm**-1
     8:     100.39 cm**-1
     9:    1000.94 cm**-1
    10:    1106.10 cm**-1
    11:    1106.13 cm**-1
    12:    1386.48 cm**-1
    13:    1451.62 cm**-1
    14:    1451.83 cm**-1
    15:    3036.75 cm**-1
    16:    3043.81 cm**-1
    17:    3044.18 cm**-1


------------
NORMAL MODES
------------

These modes are the Cartesian displacements weighted by the diagonal matrix
M(i,i)=1/sqrt(m[i]) where m[i] is the mass of the displaced atom
Thus, these vectors are normalized but *not* orthogonal

                  0          1          2          3          4          5    
      0       0.000000   0.000000   0.000000   0.000000   0.000000   0.000000
      1       0.000000   0.000000   0.000000   0.000000   0.000000   0.000000
      2       0.000000   0.000000   0.000000   0.000000   0.000000   0.000000
      3       0.000000   0.000000   0.000000   0.000000   0.000000   0.000000
      4       0.000000   0.000000   0.000000   0.000000   0.000000   0.000000
      5       0.000000   0.000000   0.000000   0.000000   0.000000   0.000000
      6       0.000000   0.000000   0.000000   0.000000   0.000000   0.000000
      7       0.000000   0.000000   0.000000   0.000000   0.000000   0.000000
      8       0.000000   0.000000   0.000000   0.000000   0.000000   0.000000
      9       0.000000   0.000000   0.000000   0.000000   0.000000   0.000000
     10       0.000000   0.000000   0.000000   0.000000   0.000000   0.000000
     11       0.000000   0.000000   0.000000   0.000000   0.000000   0.000000
     12       0.000000   0.000000   0.000000   0.000000   0.000000   0.000000
     13       0.000000   0.000000   0.000000   0.000000   0.000000   0.000000
     14       0.000000   0.000000   0.000000   0.000000   0.000000   0.000000
     15       0.000000   0.000000   0.000000   0.000000   0.000000   0.000000
     16       0.000000   0.000000   0.000000   0.000000   0.000000   0.000000
     17       0.000000   0.000000   0.000000   0.000000   0.000000   0.000000
                  6          7          8          9         10         11    
      0       0.000495  -0.330423  -0.008512  -0.000347   0.134687   0.007421
      1       0.007351   0.008513  -0.330437   0.002580  -0.007420   0.134708
      2       0.449438   0.000231   0.002712  -0.564571  -0.000120   0.000692
      3       0.000578  -0.456024  -0.011731  -0.000721  -0.267564  -0.009679
      4       0.011212   0.011663  -0.463491  -0.011177   0.012660  -0.148420
      5       0.430008   0.004893   0.388497  -0.408528  -0.012833   0.747319
      6       0.000645  -0.459267  -0.008862  -0.011340  -0.176599  -0.065197
      7       0.010754   0.014360  -0.456069   0.008107  -0.044938  -0.234682
      8       0.446056   0.332731  -0.195051  -0.409636   0.654243  -0.363603
      9       0.000498  -0.460043  -0.014837   0.011304  -0.175261   0.040739
     10       0.010757   0.009413  -0.455789   0.007248   0.066408  -0.236730
     11       0.445801  -0.336660  -0.187123  -0.409588  -0.640914  -0.386271
     12      -0.000084   0.013991   0.000360   0.000000   0.000013   0.000001
     13       0.000068  -0.000360   0.013995  -0.000001  -0.000001   0.000013
     14      -0.120077  -0.000008  -0.001040  -0.000025   0.000000  -0.000001
     15       0.000158   0.188416   0.004858   0.000259  -0.052374  -0.002885
     16      -0.006841  -0.004854   0.188401  -0.001848   0.002885  -0.052366
     17       0.447790  -0.000145   0.004894   0.422245   0.000049  -0.000297
                 12         13         14         15         16         17    
      0      -0.000069   0.002687   0.064397   0.000142  -0.003199   0.089732
      1       0.000567   0.064374  -0.002687   0.001990  -0.089687  -0.003202
      2      -0.112819   0.000422  -0.000058   0.037446   0.000592  -0.000088
      3      -0.006993   0.001546  -0.735961  -0.021505   0.028605   0.045389
      4      -0.198186   0.128299   0.027144  -0.568607   0.752813  -0.002911
      5       0.537912  -0.324963   0.001939  -0.177758   0.259886  -0.000459
      6      -0.166315  -0.393119  -0.101609  -0.458933  -0.359376  -0.550849
      7       0.101556  -0.508517  -0.366899   0.290178   0.179915   0.373932
      8       0.539691   0.158846  -0.283277  -0.164692  -0.134364  -0.223976
      9       0.174308   0.353434  -0.076214   0.478684   0.369425  -0.578915
     10       0.088697  -0.533531   0.377887   0.254616   0.151128  -0.332329
     11       0.539380   0.160595   0.282163  -0.165221  -0.134054   0.225518
     12      -0.000000   0.000001   0.000023   0.000000   0.000001  -0.000018
     13       0.000001   0.000023  -0.000001  -0.000001   0.000018   0.000001
     14      -0.000195   0.000000  -0.000000   0.000057   0.000001  -0.000000
     15      -0.000009   0.000318   0.007614   0.000003  -0.000033   0.000922
     16       0.000055   0.007626  -0.000318   0.000010  -0.000923  -0.000033
     17      -0.013164   0.000025  -0.000007   0.002879   0.000069  -0.000002


The first frequency considered to be a vibration is 6
The total number of vibrations considered is 12


--------------------------
THERMOCHEMISTRY AT 298.15K
--------------------------

Temperature         ...   298.15 K
Pressure            ...     1.00 atm
Total Mass          ...   160.93 AMU
Quasi RRHO          ...     True
Cut-Off Frequency   ...     1.00 cm^-1

Throughout the following assumptions are being made:
  (1) The electronic state is orbitally nondegenerate
  (2) There are no thermally accessible electronically excited states
  (3) Hindered rotations indicated by low frequency modes are not
      treated as such but are treated as vibrations and this may
      cause some error
  (4) All equations used are the standard statistical mechanics
      equations for an ideal gas
  (5) All vibrations are strictly harmonic

freq.      96.13  E(vib)   ...       0.47 
freq.     100.36  E(vib)   ...       0.46 
freq.     100.39  E(vib)   ...       0.46 
freq.    1000.94  E(vib)   ...       0.02 
freq.    1106.10  E(vib)   ...       0.02 
freq.    1106.13  E(vib)   ...       0.02 
freq.    1386.48  E(vib)   ...       0.00 
freq.    1451.62  E(vib)   ...       0.00 
freq.    1451.83  E(vib)   ...       0.00 
freq.    3036.75  E(vib)   ...       0.00 
freq.    3043.81  E(vib)   ...       0.00 
freq.    3044.18  E(vib)   ...       0.00 

------------
INNER ENERGY
------------

The inner energy is: U= E(el) + E(ZPE) + E(vib) + E(rot) + E(trans)
    E(el)   - is the total energy from the electronic structure calculation
              = E(kin-el) + E(nuc-el) + E(el-el) + E(nuc-nuc)
    E(ZPE)  - the the zero temperature vibrational energy from the frequency calculation
    E(vib)  - the the finite temperature correction to E(ZPE) due to population
              of excited vibrational states
    E(rot)  - is the rotational thermal energy
    E(trans)- is the translational thermal energy

Summary of contributions to the inner energy U:
Electronic energy                ...    -12.46719477 Eh
Zero point energy                ...      0.03855737 Eh      24.20 kcal/mol
Thermal vibrational correction   ...      0.00231522 Eh       1.45 kcal/mol
Thermal rotational correction    ...      0.00141627 Eh       0.89 kcal/mol
Thermal translational correction ...      0.00141627 Eh       0.89 kcal/mol
-----------------------------------------------------------------------
Total thermal energy                    -12.42348964 Eh


Summary of corrections to the electronic energy:
(perhaps to be used in another calculation)
Total thermal correction                  0.00514776 Eh       3.23 kcal/mol
Non-thermal (ZPE) correction              0.03855737 Eh      24.20 kcal/mol
-----------------------------------------------------------------------
Total correction                          0.04370513 Eh      27.43 kcal/mol


--------
ENTHALPY
--------

The enthalpy is H = U + kB*T
                kB is Boltzmann's constant
Total thermal energy              ...    -12.42348964 Eh 
Thermal Enthalpy correction       ...      0.00094421 Eh       0.59 kcal/mol
-----------------------------------------------------------------------
Total Enthalpy                    ...    -12.42254543 Eh


WARNING (ORCA/SYM): The number of Z matrix atoms does not agree with
the number of centers in the basis set. The point group will therefore
be determined without considering basis set information.


Note: Rotational entropy computed according to Herzberg 
Infrared and Raman Spectra, Chapter V,1, Van Nostrand Reinhold, 1945 
Point Group:  Cs, Symmetry Number:   1  
Rotational constants in cm-1:     5.243723     0.035323     0.035323 

Vibrational entropy computed according to the QRRHO of S. Grimme
Chem.Eur.J. 2012 18 9955 using a reference frequency of 100.0 cm-1


-------
ENTROPY
-------

The entropy contributions are T*S = T*(S(el)+S(vib)+S(rot)+S(trans))
     S(el)   - electronic entropy
     S(vib)  - vibrational entropy
     S(rot)  - rotational entropy
     S(trans)- translational entropy
The entropies will be listed as multiplied by the temperature to get
units of energy

Electronic entropy                ...      0.00000000 Eh      0.00 kcal/mol
Vibrational entropy               ...      0.00463388 Eh      2.91 kcal/mol
Rotational entropy                ...      0.01188515 Eh      7.46 kcal/mol
Translational entropy             ...      0.01954513 Eh     12.26 kcal/mol
-----------------------------------------------------------------------
Final entropy term                ...      0.03606416 Eh     22.63 kcal/mol

In case the symmetry of your molecule has not been determined correctly
or in case you have a reason to use a different symmetry number we print 
out the resulting rotational entropy values for sn=1,12:

 non-linear molecules -----------------------------------
|  sn= 1 | S(rot)=       0.01188515 Eh      7.46 kcal/mol|
|  sn= 2 | S(rot)=       0.01123070 Eh      7.05 kcal/mol|
|  sn= 3 | S(rot)=       0.01084786 Eh      6.81 kcal/mol|
|  sn= 4 | S(rot)=       0.01057624 Eh      6.64 kcal/mol|
|  sn= 5 | S(rot)=       0.01036555 Eh      6.50 kcal/mol|
|  sn= 6 | S(rot)=       0.01019341 Eh      6.40 kcal/mol|
|  sn= 7 | S(rot)=       0.01004786 Eh      6.31 kcal/mol|
|  sn= 8 | S(rot)=       0.00992178 Eh      6.23 kcal/mol|
|  sn= 9 | S(rot)=       0.00981058 Eh      6.16 kcal/mol|
|  sn=10 | S(rot)=       0.00971110 Eh      6.09 kcal/mol|
|  sn=11 | S(rot)=       0.00962111 Eh      6.04 kcal/mol|
|  sn=12 | S(rot)=       0.00953895 Eh      5.99 kcal/mol|
 linear molecules ---------------------------------------
|  Dinfh | S(rot)=       0.00848242 Eh      5.32 kcal/mol|
|  Cinfv | S(rot)=       0.00913687 Eh      5.73 kcal/mol|
 --------------------------------------------------------


-------------------
GIBBS FREE ENERGY
-------------------

The Gibbs free energy is G = H - T*S

Total enthalpy                    ...    -12.42254543 Eh 
Total entropy correction          ...     -0.03606416 Eh    -22.63 kcal/mol
-----------------------------------------------------------------------
Final Gibbs free energy         ...    -12.45860959 Eh

For completeness - the Gibbs free energy minus the electronic energy
G-E(el)                           ...      0.00858518 Eh      5.39 kcal/mol


--------------------------------
SUGGESTED CITATIONS FOR THIS RUN
--------------------------------

Below you find a list of papers that are relevant to this ORCA run
We neither can nor want to force you to cite these papers, but we appreciate if you do
You receive ORCA, which is the product of decades of hard work by many enthusiastic individuals, for free
The only thing we kindly ask in return is that you cite our papers,
We deeply appreciate it, if you show your appreciation for ORCA by not just citing the generic ORCA reference.

Please note that relegating all ORCA citations to the supporting information does *not* help us.
SI sections are not indexed - citations you put there will not count into any citation statistics
But we need these citations in order to attract the funding resources that allow us to do what we are doing

Therefore, if you are a happy ORCA user, please consider citing a few of the papers listed below in the main body of your paper

In addition to the list printed below, the program has created the file reactant_optfreq.bibtex that contains the list in bibtex format
You can import this file easily into all common literature databanks and citation aid programs


List of essential papers. We consider these as the minimum necessary citations

  1. Bannwarth, C.; Ehlert, S.; Grimme, S.
     GFN2-xTB—An Accurate and Broadly Parametrized Self-Consistent Tight-Binding Quantum Chemical Method with Multipole Electrostatics and Density-Dependent Dispersion Contributions
     J. Chem. Theory Comput. 2019 15(3), 1652-1671
     doi.org/10.1021/acs.jctc.8b01176
  2. Neese, F.
     Software update: the ORCA program system, version 6.0
     WIRES Comput. Molec. Sci. 2025 15(1), e70019
     doi.org/10.1002/wcms.7019

List of papers to cite with high priority. The work reported in these papers was absolutely
necessary for this run to complete.
Our perspective: the developers of density functionals and basis sets usually get cited in chemistry papers
Good! But without the algorithms to do something with them, the functionals or basis sets would not do anything.
Hence, in our opinion, the algorithm design and method developments papers are equally worthy of getting cited

  1. Bykov, D.; Petrenko, T.; Izsak, R.; Kossmann, S.; Becker, U.; Valeev, E.; Neese, F.
     Efficient implementation of the analytic second derivatives of Hartree-Fock and hybrid DFT energies: a detailed analysis of different approximations
     Molec. Phys. 2015 113 , 1961-1977
     doi.org/10.1080/00268976.2015.1025114
  2. Bannwarth, C.; Caldeweyher, E.; Ehlert, S.; Hansen, A.; Pracht, P.; Seibert, J.; Spicher, S.; Grimme, S.
     Extended tight-binding quantum chemistry methods
     WIRES Comput. Molec. Sci. 2020 11(2), e1493
     doi.org/10.1002/wcms.1493

List of suggested additional citations. These are papers that are important in the 'surrounding' of 
of this run, or papers that preceded the highly important papers. If you like your results we are grateful for a citation.

  1. Neese, F.
     The ORCA program system
     WIRES Comput. Molec. Sci. 2012 2(1), 73-78
     doi.org/10.1002/wcms.81
  2. Neese, F.
     Software update: the ORCA program system, version 4.0
     WIRES Comput. Molec. Sci. 2018 8(1), 1-6
     doi.org/10.1002/wcms.1327
  3. Neese, F.; Wennmohs, F.; Becker, U.; Riplinger, C.
     The ORCA quantum chemistry program package
     J. Chem. Phys. 2020 152(22), 224108
     doi.org/10.1063/5.0004608
  4. Neese, F.
     Software update: The ORCA program system—Version 5.0
     WIRES Comput. Molec. Sci. 2022 12(1), e1606
     doi.org/10.1002/wcms.1606

List of optional additional citations

  1. Neese, F.
     Approximate second-order SCF convergence for spin unrestricted wavefunctions
     Chem. Phys. Lett. 2000 325(1-3), 93-98
     doi.org/10.1016/s0009-2614(00)00662-x

Timings for individual modules:

Sum of individual times          ...        2.234 sec (=   0.037 min)
Geometry relaxation              ...        0.046 sec (=   0.001 min)   2.0 %
XTB module                       ...        2.188 sec (=   0.036 min)  98.0 %
                             ****ORCA TERMINATED NORMALLY****
TOTAL RUN TIME: 0 days 0 hours 0 minutes 2 seconds 803 msec
