
                                 *****************
                                 * O   R   C   A *
                                 *****************

                                            #,                                       
                                            ###                                      
                                            ####                                     
                                            #####                                    
                                            ######                                   
                                           ########,                                 
                                     ,,################,,,,,                         
                               ,,#################################,,                 
                          ,,##########################################,,             
                       ,#########################################, ''#####,          
                    ,#############################################,,   '####,        
                  ,##################################################,,,,####,       
                ,###########''''           ''''###############################       
              ,#####''   ,,,,##########,,,,          '''####'''          '####       
            ,##' ,,,,###########################,,,                        '##       
           ' ,,###''''                  '''############,,,                           
         ,,##''                                '''############,,,,        ,,,,,,###''
      ,#''                                            '''#######################'''  
     '                                                          ''''####''''         
             ,#######,   #######,   ,#######,      ##                                
            ,#'     '#,  ##    ##  ,#'     '#,    #''#        ,####,    ,#,          
            ##       ##  ##   ,#'  ##            #'  '#       #'       ,# #          
            ##       ##  #######   ##           ,######,      #####,      #          
            '#,     ,#'  ##    ##  '#,     ,#' ,#      #,     #,   #      #          
             '#######'   ##     ##  '#######'  #'      '#     '####' #    #          



                #########################################################
                #                        -***-                          #
                #          Department of theory and spectroscopy        #
                #                                                       #
                #                      Frank Neese                      #
                #                                                       #
                #     Directorship, Architecture, Infrastructure        #
                #                    SHARK, DRIVERS                     #
                #        Core code/Algorithms in most modules           #
                #                                                       #
                #        Max Planck Institute fuer Kohlenforschung      #
                #                Kaiser Wilhelm Platz 1                 #
                #                 D-45470 Muelheim/Ruhr                 #
                #                      Germany                          #
                #                                                       #
                #                  All rights reserved                  #
                #                        -***-                          #
                #########################################################


                         Program Version 6.1.0  -  RELEASE   -
                                (GIT: $679e74b$)
                          ($2025-06-10 18:02:51 +0200$)


 With contributions from (in alphabetic order):
[Max-Planck-Institut fuer Kohlenforschung]                               
  Daniel Aravena         : Magnetic Suceptibility                        
  Michael Atanasov       : Ab Initio Ligand Field Theory (pilot matlab implementation)
  Alexander A. Auer      : GIAO ZORA, VPT2 properties, NMR spectrum      
  Ute Becker             : All parallelization in ORCA, NUMFREQ, NUMCALC 
  Giovanni Bistoni       : ED, misc. LED, open-shell LED, HFLD           
  Dmytro Bykov           : pre 5.0 version of the SCF Hessian            
  Marcos Casanova-Páez   : Triplet and SCS-CIS(D). UHF-(DLPNO)-IP/EA/STEOM-CCSD. UHF-CVS-IP/STEOM-CCSD   
  Vijay G. Chilkuri      : MRCI spin determinant printing, contributions to CSF-ICE 
  Pauline Colinet        : FMM embedding                                 
  Dipayan Datta          : RHF DLPNO-CCSD density                        
  Achintya Kumar Dutta   : EOM-CC, STEOM-CC                              
  Nicolas Foglia         : Exact transition moments, OPA infrastructure, MCD improvements    
  Dmitry Ganyushin       : Spin-Orbit,Spin-Spin,Magnetic field MRCI      
  Miquel Garcia-Rates    : C-PCM and meta-GGA Hessian, CCSD/C-PCM, Gaussian charge scheme 
  Tiago L. C. Gouveia    : GS-ROHF, GS-ROCIS                             
  Yang Guo               : DLPNO-NEVPT2, F12-NEVPT2, CIM, IAO-localization        
  Andreas Hansen         : Spin unrestricted coupled pair/coupled cluster methods 
  Ingolf Harden          : AUTO-CI MPn and infrastructure                
  Benjamin Helmich-Paris : MC-RPA, TRAH-(SCF,CASSCF), AVAS, COSX integrals, SCF dyn. polar., MC-PDFT, srDFT 
  Lee Huntington         : MR-EOM, pCC                                   
  Robert Izsak           : Overlap fitted RIJCOSX, COSX-SCS-MP3, EOM     
  Riya Kayal             : Wick's Theorem for AUTO-CI, AUTO-CI UHF-CCSDT 
  Emily Kempfer          : AUTO-CI RHF CISDT and CCSDT, approximate NEVPT4
  Christian Kollmar      : KDIIS, OOCD, Brueckner-CCSD(T), CCSD density, CASPT2, CASPT2-K, improved NEVPT2 
  Axel Koslowski         : Symmetry handling                             
  Simone Kossmann        : meta-GGA functionals, TD-DFT gradient, OOMP2, (MP2 Hessian; deprecated post 5.0) 
  Lucas Lang             : DCDCAS, Hyperfine gauge corrections, ICE-SOC+SSC
  Marvin Lechner         : AUTO-CI (C++ implementation), FIC-MRCC        
  Spencer Leger          : CASSCF response                               
  Dagmar Lenk            : GEPOL surface, SMD, ORCA-2-JSON               
  Dimitrios Liakos       : Extrapolation schemes; Compound Job, Property file
  Dimitrios Manganas     : Further ROCIS development; embedding schemes. LFT, Crystal Embedding 
  Dimitrios Pantazis     : SARC Basis sets                               
  Anastasios Papadopoulos: AUTO-CI, single reference methods and gradients 
  Taras Petrenko         : pre 6.0 DFT Hessian and TD-DFT gradient,  ECA, NRVS 
  Petra Pikulova         : Analytic Raman intensities                    
  Peter Pinski           : DLPNO-MP2, DLPNO-MP2 Gradient                 
  Shashank Vittal Rao    : ES-AILFT, MagRelax                            
  Christoph Reimann      : Effective Core Potentials                     
  Marius Retegan         : Local ZFS, SOC                                
  Christoph Riplinger    : Optimizer, TS searches, QM/MM, DLPNO-CCSD(T), (RO)-DLPNO pert. Triples 
  Michael Roemelt        : Original ROCIS implementation, recursive CI coupling coefficients
  Masaaki Saitow         : Open-shell DLPNO-CCSD energy and density      
  Barbara Sandhoefer     : DKH picture change effects                    
  Yorick L. A. Schmerwitz: GMF and freeze-and-release deltaSCF, NEB S-IDPP initial path                    
  Kantharuban Sivalingam : CASSCF convergence/infrastructure, NEVPT2, NEVPT3, NEVPT4(SD), FIC-MRCI and CEPA variants
  Bernardo de Souza      : ESD, SOC TD-DFT                               
  Georgi L. Stoychev     : AutoAux, RI-MP2 NMR, DLPNO-MP2 response, X2C  
  Van Anh Tran           : RI-MP2 g-tensors                              
  Willem Van den Heuvel  : Paramagnetic NMR                              
  Zikuan Wang            : NOTCH, Electric field optimization            
  Frank Wennmohs         : Technical directorship and infrastructure     
  Hang Xu                : AUTO-CI-Response properties                   
                                                                         
[FACCTs GmbH]                                                            
  Markus Bursch, Nicolas Foglia, Miquel Garcia-Rates, Ingolf Harden, Hagen Neugebauer, Anastasios Papadopoulos, 
  Christoph Riplinger, Bernardo de Souza, Georgi L. Stoychev                                                    
                                                                 
  APM, various basis sets, CI-OPT, improved COSX, DLPNO-Multilevel,           
  DOCKER, DRACO, updates on ESD, Fragmentator, GOAT, IRC, LR-CPCM, L-BFGS, MBIS, meta-GGA TD-DFT gradient, ML-optimized integration grids, 
  MM, NACMEs, nearIR, NEB, NEB-TS, NL-DFT gradient (VV10), 2- and 3-layer-ONIOM, interface openCOSMO-RS, QMMM,   
  Crystal-QMMM, RESP, rigid body optimization, SF, symmetry and pop. for TD-DFT, various functionals, SOLVATOR                                   
                                                                         
[Other institutions]                                                     
  V. Asgeirsson          : NEB                                           
  Christoph Bannwarth    : sTDA-DFT, sTD-DFT, PBEh-3c, B97-3c, D3        
  Giovanni Bistoni       : ETS/NOCV, ADLD/ADEX, COVALED                  
  Martin Brehm           : Molecular dynamics                            
  Ronald Cardenas        : ETS/NOCV                                      
  Martina Colucci        : COVALED                                       
  Sebastian Ehlert       : rSCAN, r2SCAN, r2SCAN-3c, D4, dhf basis sets  
  Marvin Friede          : D4 for Fr, Ra, Ac-Lr                          
  Lars Goerigk           : TD-DFT with DH, B97 family of functionals     
  Stefan Grimme          : VdW corrections, initial TS optimization, DFT functionals, gCP, sTDA/sTD-DF 
  Waldemar Hujo          : DFT-NL                                        
  H. Jonsson             : NEB                                           
  Holger Kruse           : gCP                                           
  Marcel Mueller         : wB97X-3c, vDZP basis set                      
  Hagen Neugebauer       : wr2SCAN, Native XTB                           
  Gianluca Regni         : ADLD/ADEX                                     
  Tobias Risthaus        : pre 6.0 range-separated hybrid DFT and stability analysis
  Lukas Wittmann         : regularized MP2, r2SCAN double-hybrids, wr2SCAN        
                                                                         
We gratefully acknowledge several colleagues who have allowed us to      
interface, adapt or use parts of their codes:                            
  Ed Valeev, F. Pavosevic, A. Kumar             : LibInt (2-el integral package), F12 methods 
  Garnet Chan, S. Sharma, J. Yang, R. Olivares  : DMRG                   
  Ulf Ekstrom                                   : XCFun DFT Library      
  Mihaly Kallay                                 : mrcc  (arbitrary order and MRCC methods)
  Frank Weinhold                                : gennbo (NPA and NBO analysis)           
  Simon Mueller                                 : openCOSMO-RS                            
  Christopher J. Cramer and Donald G. Truhlar   : smd solvation model                     
  S Lehtola, MJT Oliveira, MAL Marques          : LibXC Library                           
  Liviu Ungur et al                             : ANISO software                          


 Your calculation uses the libint2 library for the computation of 2-el integrals
 For citations please refer to: http://libint.valeyev.net

 Your ORCA version has been built with support for libXC version: 7.0.0
 For citations please refer to: https://libxc.gitlab.io

 This ORCA versions uses:
   CBLAS   interface :  Fast vector & matrix operations
   LAPACKE interface :  Fast linear algebra routines
   SCALAPACK package :  Parallel linear algebra routines
   Shared memory     :  Shared parallel matrices
   BLAS/LAPACK       :  OpenBLAS 0.3.29  USE64BITINT DYNAMIC_ARCH NO_AFFINITY SkylakeX SINGLE_THREADED
        Core in use  :  SkylakeX
   Copyright (c) 2011-2014, The OpenBLAS Project


  ***********************************
  * Starting time: Thu Mar 12 12:41:17 2026
  * Host name:     midway3-login4.rcc.local
  * Process ID:    2751696
  * Working dir.:  /home/rzhu16/orca_TS_search/sn2_i_f/geo_opt_reactant_product
  ***********************************

Your calculation utilizes the semiempirical GFN2-xTB method
Please cite in your paper:
Bannwarth, C.; Ehlert S.; Grimme, S. J. Chem. Theory Comput. 2019, 15, 1652.
   

================================================================================

cite the ECPs for I  [Def2-ECP] as follows:
Ce-Yb(ecp-28): M. Dolg, H. Stoll, H.Preuss, J. Chem. Phys., 1989, 90, 1730-1734.
Y-Cd(ecp-28), Hf-Hg(ecp-46): D. Andrae,U. Haeussermann, M. Dolg, H. Stoll, H. Preuss, Theor. Chim. Acta, 1990, 77, 123-141.
In-Sb(ecp-28), Tl-Bi(ecp-46): B. Metz, H. Stoll, M. Dolg, J. Chem. Phys., 2000, 113, 2563-2569.
Te-Xe(ecp-28), Po-Rn(ecp-46): K. A. Peterson, D. Figgen, E. Goll, H. Stoll, M. Dolg, J. Chem. Phys., 2003, 119, 11113-11123.
Rb(ecp-28), Cs(ecp-46): T. Leininger, A. Nicklass, W. Kuechle, H. Stoll, M. Dolg, A. Bergner, Chem. Phys. Lett., 1996, 255, 274-280.
Sr(ecp-28), Ba(ecp-46): M. Kaupp, P. V. Schleyer, H. Stoll and H. Preuss, J. Chem. Phys., 1991, 94, 1360-1366.
La(ecp-46): M. Dolg, H. Stoll, A. Savin, H. Preuss, Theor. Chim. Acta, 1989, 75, 173-194.
Lu(ecp-28): X. Cao, M. Dolg, J. Chem. Phys., 2001, 115, 7348-7355.

ECP parameters for I  [Def2-ECP] have been obtained from:
TURBOMOLE (7.0.2)

================================================================================
                                        WARNINGS
                       Please study these warnings very carefully!
================================================================================


WARNING: Analytical Hessian for XTB is limited in the analysis of the data.
       : If you want to obtain extensive IR and deltaG analysis, please use ! XTB NumFreq. 


WARNING: Geometry Optimization
  ===> : Switching off AutoStart
         For restart on a previous wavefunction, please use MOREAD

WARNING: Found dipole moment calculation with XTB calculation
  ===> : Switching off dipole moment calculation


WARNING: Found frequency calculation in combination with XTB calculation
  ===> : Need to redirect dipole moment calculation to properties.out


================================================================================
                                       INPUT FILE
================================================================================
NAME = reactant_optfreq.inp
|  1> ! XTB2 Opt Freq PAL8
|  2> 
|  3> * xyz -1 1
|  4>   C      -0.000288     -0.503826      0.274131
|  5>   H      -0.000009      0.207464     -0.583414
|  6>   H       0.886294     -1.129123      0.247883
|  7>   H      -0.887409     -1.128366      0.247975
|  8>   I       0.000217      0.429819      2.241736
|  9>   F       0.000375      0.786014     -2.147977
| 10> *
| 11> 
| 12>                          ****END OF INPUT****
================================================================================

                       *****************************
                       * Geometry Optimization Run *
                       *****************************

Geometry optimization settings:
Update method            Update   .... BFGS
Choice of coordinates    CoordSys .... (2022) Redundant Internals
Initial Hessian          InHess   .... Almloef's Model
Max. no of cycles        MaxIter  .... 50

Convergence Tolerances:
Energy Change            TolE     ....  5.0000e-06 Eh
Max. Gradient            TolMAXG  ....  3.0000e-04 Eh/bohr
RMS Gradient             TolRMSG  ....  1.0000e-04 Eh/bohr
Max. Displacement        TolMAXD  ....  4.0000e-03 bohr
RMS Displacement         TolRMSD  ....  2.0000e-03 bohr
Strict Convergence                .... False

------------------------------------------------------------------------------
                        ORCA OPTIMIZATION COORDINATE SETUP
------------------------------------------------------------------------------

The optimization will be done in redundant internal coordinates (2022)
Making redundant internal coordinates   ...  (2022 redundants) done
Evaluating the initial hessian          ...  (Almloef) done
Evaluating the coordinates              ...  done
Calculating the B-matrix                .... done
Calculating the G-matrix                .... done
The number of degrees of freedom        ....   15

    -----------------------------------------------------------------
                    Redundant Internal Coordinates


    -----------------------------------------------------------------
         Definition                    Initial Value    Approx d2E/dq
    -----------------------------------------------------------------
      1. B(H   1,C   0)                  1.1141         0.329536   
      2. B(H   2,C   0)                  1.0852         0.366473   
      3. B(H   3,C   0)                  1.0852         0.366470   
      4. B(I   4,C   0)                  2.1779         0.116204   
      5. B(F   5,H   1)                  1.6681         0.035836   
      6. A(H   1,C   0,H   3)          110.4297         0.287614   
      7. A(H   1,C   0,H   2)          110.4280         0.287615   
      8. A(H   1,C   0,I   4)          114.9413         0.281116   
      9. A(H   2,C   0,I   4)          105.5853         0.285792   
     10. A(H   3,C   0,I   4)          105.5854         0.285791   
     11. A(H   2,C   0,H   3)          109.6119         0.292448   
     12. A(C   0,H   1,F   5)          160.6196         0.204056   
     13. D(F   5,H   1,C   0,H   3)    -60.7174         0.098003   
     14. D(F   5,H   1,C   0,I   4)    179.9797         0.098003   
     15. D(F   5,H   1,C   0,H   2)     60.6783         0.098003   
    -----------------------------------------------------------------

Number of atoms                         .... 6
Number of degrees of freedom            .... 15


         *************************************************************
         *                GEOMETRY OPTIMIZATION CYCLE   1            *
         *************************************************************
---------------------------------
CARTESIAN COORDINATES (ANGSTROEM)
---------------------------------
  C    -0.000288   -0.503826    0.274131
  H    -0.000009    0.207464   -0.583414
  H     0.886294   -1.129123    0.247883
  H    -0.887409   -1.128366    0.247975
  I     0.000217    0.429819    2.241736
  F     0.000375    0.786014   -2.147977

----------------------------
CARTESIAN COORDINATES (A.U.)
----------------------------
  NO LB    ZA    FRAG    MASS        X           Y           Z
   0 C   6.0000    0    12.011   -0.000544   -0.952093    0.518033
   1 H   1.0000    0     1.008   -0.000017    0.392050   -1.102493
   2 H   1.0000    0     1.008    1.674853   -2.133733    0.468431
   3 H   1.0000    0     1.008   -1.676960   -2.132303    0.468605
   4 I  53.0000    0   126.900    0.000410    0.812240    4.236267
   5 F   9.0000    0    18.998    0.000709    1.485351   -4.059088

      -----------------------------------------------------------      
     |                   =====================                   |     
     |                           x T B                           |     
     |                   =====================                   |     
     |                         S. Grimme                         |     
     |          Mulliken Center for Theoretical Chemistry        |     
     |                    University of Bonn                     |     
      -----------------------------------------------------------      

   * xtb version 6.7.1 (edcfbbe) compiled by 'albert@albert-system' on 2024-07-22

   xtb is free software: you can redistribute it and/or modify it under
   the terms of the GNU Lesser General Public License as published by
   the Free Software Foundation, either version 3 of the License, or
   (at your option) any later version.
   
   xtb is distributed in the hope that it will be useful,
   but WITHOUT ANY WARRANTY; without even the implied warranty of
   MERCHANTABILITY or FITNESS FOR A PARTICULAR PURPOSE.  See the
   GNU Lesser General Public License for more details.
   
   Cite this work as:
   * C. Bannwarth, E. Caldeweyher, S. Ehlert, A. Hansen, P. Pracht,
     J. Seibert, S. Spicher, S. Grimme, WIREs Comput. Mol. Sci., 2020, 11,
     e01493. DOI: 10.1002/wcms.1493
   
   for GFN2-xTB:
   * C. Bannwarth, S. Ehlert and S. Grimme., J. Chem. Theory Comput., 2019,
     15, 1652-1671. DOI: 10.1021/acs.jctc.8b01176
   for GFN1-xTB:
   * S. Grimme, C. Bannwarth, P. Shushkov, J. Chem. Theory Comput., 2017,
     13, 1989-2009. DOI: 10.1021/acs.jctc.7b00118
   for GFN0-xTB:
   * P. Pracht, E. Caldeweyher, S. Ehlert, S. Grimme, ChemRxiv, 2019, preprint.
     DOI: 10.26434/chemrxiv.8326202.v1
   for GFN-FF:
   * S. Spicher and S. Grimme, Angew. Chem. Int. Ed., 2020, 59, 15665-15673.
     DOI: 10.1002/anie.202004239
   
   for ALPB and GBSA implicit solvation:
   * S. Ehlert, M. Stahn, S. Spicher, S. Grimme, J. Chem. Theory Comput.,
     2021, 17, 4250-4261. DOI: 10.1021/acs.jctc.1c00471
   
   for ddCOSMO and CPCM-X implicit solvation:
   * M. Stahn, S. Ehlert, S. Grimme, J. Phys. Chem. A,
     2023, XX, XXXX-XXXX. DOI: 10.1021/acs.jpca.3c04382
   
   for DFT-D4:
   * E. Caldeweyher, C. Bannwarth and S. Grimme, J. Chem. Phys., 2017,
     147, 034112. DOI: 10.1063/1.4993215
   * E. Caldeweyher, S. Ehlert, A. Hansen, H. Neugebauer, S. Spicher,
     C. Bannwarth and S. Grimme, J. Chem. Phys., 2019, 150, 154122.
     DOI: 10.1063/1.5090222
   * E. Caldeweyher, J.-M. Mewes, S. Ehlert and S. Grimme, Phys. Chem. Chem. Phys.
     2020, 22, 8499-8512. DOI: 10.1039/D0CP00502A
   
   for sTDA-xTB:
   * S. Grimme and C. Bannwarth, J. Chem. Phys., 2016, 145, 054103.
     DOI: 10.1063/1.4959605
   
   in the mass-spec context:
   * V. Asgeirsson, C. Bauer and S. Grimme, Chem. Sci., 2017, 8, 4879.
     DOI: 10.1039/c7sc00601b
   * J. Koopman and S. Grimme, ACS Omega 2019, 4, 12, 15120-15133.
     DOI: 10.1021/acsomega.9b02011
   
   for metadynamics refer to:
   * S. Grimme, J. Chem. Theory Comput., 2019, 155, 2847-2862
     DOI: 10.1021/acs.jctc.9b00143
   
   for SPH calculations refer to:
   * S. Spicher and S. Grimme, J. Chem. Theory Comput., 2021, 17, 1701-1714
     DOI: 10.1021/acs.jctc.0c01306
   
   for ONIOM refer to:
   * C. Plett, A. Katbashev, S. Ehlert, S. Grimme, M. Bursch,
     Phys. Chem. Chem. Phys., 2023, 25, 17860-17868. DOI: 10.1039/D3CP02178E
   
   for DIPRO refer to:
   * J. Kohn, N. Gildemeister, S. Grimme, D. Fazzi, A. Hansen,
     J. Chem. Phys., 2023, just accepted.
   
   for PTB refer to:
   * S. Grimme, M. Mueller, A. Hansen, J. Chem. Phys., 2023, 158, 124111.
     DOI: 10.1063/5.0137838
   
   with help from (in alphabetical order)
   P. Atkinson, C. Bannwarth, F. Bohle, G. Brandenburg, E. Caldeweyher
   M. Checinski, S. Dohm, S. Ehlert, S. Ehrlich, I. Gerasimov, C. Hölzer
   A. Katbashev, J. Kohn, J. Koopman, C. Lavigne, S. Lehtola, F. März, M. Müller,
   F. Musil, H. Neugebauer, J. Pisarek, C. Plett, P. Pracht, F. Pultar,
   J. Seibert, P. Shushkov, S. Spicher, M. Stahn, M. Steiner, T. Strunk,
   J. Stückrath, T. Rose, and J. Unsleber
   
 * started run on 2026/03/12 at 12:41:17.815     
   ID    Z sym.   atoms
    1    6 C      1
    2    1 H      2-4
    3   53 I      5
    4    9 F      6

           -------------------------------------------------
          |                Calculation Setup                |
           -------------------------------------------------

          program call               : /software/orca-6.1.0-el8-x86_64/bin/otool_xtb reactant_optfreq_XTB.xyz --grad -c -1 -u 0 -P 8 --namespace reactant_optfreq --input reactant_optfreq_XTB.input.tmp --acc 0.200000
          hostname                   : midway3-login4.rcc.local
          calculation namespace      : reactant_optfreq
          coordinate file            : reactant_optfreq_XTB.xyz
          omp threads                :                     8


molecular fragmentation (1/2 indicates fragments):
111112
# atoms in fragment 1/2:     5     1
 fragment masses (1/2) :      141.94       19.00
CMA distance (Bohr)    :   7.937
constraining FC (au)   :  0.0500

           -------------------------------------------------
          |                 G F N 2 - x T B                 |
           -------------------------------------------------

        Reference                      10.1021/acs.jctc.8b01176
      * Hamiltonian:
        H0-scaling (s, p, d)           1.850000    2.230000    2.230000
        zeta-weighting                 0.500000
      * Dispersion:
        s8                             2.700000
        a1                             0.520000
        a2                             5.000000
        s9                             5.000000
      * Repulsion:
        kExp                           1.500000    1.000000
        rExp                           1.000000
      * Coulomb:
        alpha                          2.000000
        third order                    shell-resolved
        anisotropic                    true
        a3                             3.000000
        a5                             4.000000
        cn-shift                       1.200000
        cn-exp                         4.000000
        max-rad                        5.000000


          ...................................................
          :                      SETUP                      :
          :.................................................:
          :  # basis functions                  21          :
          :  # atomic orbitals                  20          :
          :  # shells                           10          :
          :  # electrons                        22          :
          :  max. iterations                   250          :
          :  Hamiltonian                  GFN2-xTB          :
          :  restarted?                      false          :
          :  GBSA solvation                  false          :
          :  PC potential                    false          :
          :  electronic temp.          300.0000000     K    :
          :  accuracy                    0.2000000          :
          :  -> integral cutoff          0.3198970E+02      :
          :  -> integral neglect         0.2000000E-08      :
          :  -> SCF convergence          0.2000000E-06 Eh   :
          :  -> wf. convergence          0.2000000E-04 e    :
          :  Broyden damping             0.4000000          :
          :  net charge                         -1          :
          :  unpaired electrons                  0          :
          ...................................................

 iter      E             dE          RMSdq      gap      omega  full diag
   1    -12.4432672 -0.124433E+02  0.109E+01    4.90       0.0  T
   2    -12.4639950 -0.207278E-01  0.415E+00    2.62       1.0  T
   3    -12.4693887 -0.539375E-02  0.185E+00    0.90       1.0  T
   4    -12.4691936  0.195114E-03  0.934E-01    1.48       1.0  T
   5    -12.4703788 -0.118520E-02  0.564E-01    1.02       1.0  T
   6    -12.4701097  0.269165E-03  0.557E-01    0.88       1.0  T
   7    -12.4705089 -0.399220E-03  0.738E-02    1.11       1.0  T
   8    -12.4705352 -0.263153E-04  0.453E-02    1.07       1.0  T
   9    -12.4705375 -0.234025E-05  0.194E-02    1.03       2.1  T
  10    -12.4705397 -0.216683E-05  0.381E-03    1.04      10.7  T
  11    -12.4705397  0.844096E-09  0.147E-03    1.04      27.8  T
  12    -12.4705397 -0.528739E-08  0.982E-04    1.04      41.6  T
  13    -12.4705397 -0.588112E-08  0.142E-04    1.04     288.2  T
  14    -12.4705397 -0.882068E-10  0.120E-05    1.04    3409.4  T

   *** convergence criteria satisfied after 14 iterations ***

         #    Occupation            Energy/Eh            Energy/eV
      -------------------------------------------------------------
         1        2.0000           -0.5860130             -15.9462
       ...           ...                  ...                  ...
         5        2.0000           -0.3243471              -8.8259
         6        2.0000           -0.3155257              -8.5859
         7        2.0000           -0.2606398              -7.0924
         8        2.0000           -0.2576440              -7.0108
         9        2.0000           -0.1164942              -3.1700
        10        2.0000           -0.1137101              -3.0942
        11        2.0000           -0.1136924              -3.0937 (HOMO)
        12                         -0.0753852              -2.0513 (LUMO)
        13                          0.1806697               4.9163
        14                          0.1822065               4.9581
        15                          0.2105809               5.7302
        16                          0.2112617               5.7487
       ...                                ...                  ...
        20                          0.5055177              13.7558
      -------------------------------------------------------------
                  HL-Gap            0.0383073 Eh            1.0424 eV
             Fermi-level           -0.0942015 Eh           -2.5634 eV

 SCC (total)                   0 d,  0 h,  0 min,  0.121 sec
 SCC setup                      ...        0 min,  0.000 sec (  0.143%)
 Dispersion                     ...        0 min,  0.000 sec (  0.045%)
 classical contributions        ...        0 min,  0.000 sec (  0.024%)
 integral evaluation            ...        0 min,  0.067 sec ( 55.729%)
 iterations                     ...        0 min,  0.052 sec ( 42.974%)
 molecular gradient             ...        0 min,  0.001 sec (  0.927%)
 printout                       ...        0 min,  0.000 sec (  0.136%)

         :::::::::::::::::::::::::::::::::::::::::::::::::::::
         ::                     SUMMARY                     ::
         :::::::::::::::::::::::::::::::::::::::::::::::::::::
         :: total energy             -12.416123289325 Eh    ::
         :: gradient norm              0.001809473786 Eh/a0 ::
         :: HOMO-LUMO gap              1.042394316834 eV    ::
         ::.................................................::
         :: SCC energy               -12.470539428318 Eh    ::
         :: -> isotropic ES            0.220360495156 Eh    ::
         :: -> anisotropic ES         -0.006226300535 Eh    ::
         :: -> anisotropic XC         -0.003193670360 Eh    ::
         :: -> dispersion             -0.002581487043 Eh    ::
         :: repulsion energy           0.054416138993 Eh    ::
         :: add. restraining           0.000000000000 Eh    ::
         :: total charge              -0.999999999858 e     ::
         :::::::::::::::::::::::::::::::::::::::::::::::::::::


Property printout bound to 'properties.out'

           -------------------------------------------------
          | TOTAL ENERGY              -12.416123289325 Eh   |
          | GRADIENT NORM               0.001809473786 Eh/α |
          | HOMO-LUMO GAP               1.042394316834 eV   |
           -------------------------------------------------

------------------------------------------------------------------------
 * finished run on 2026/03/12 at 12:41:17.955     
------------------------------------------------------------------------
 total:
 * wall-time:     0 d,  0 h,  0 min,  0.140 sec
 *  cpu-time:     0 d,  0 h,  0 min,  0.573 sec
 * ratio c/w:     4.088 speedup
 SCF:
 * wall-time:     0 d,  0 h,  0 min,  0.121 sec
 *  cpu-time:     0 d,  0 h,  0 min,  0.516 sec
 * ratio c/w:     4.270 speedup


-------------------------   --------------------
FINAL SINGLE POINT ENERGY       -12.416123289330
-------------------------   --------------------


-------------
DIPOLE MOMENT
-------------
                                X             Y             Z
Total Dipole Moment    :     -0.00100      -1.90400       1.11700
                        -----------------------------------------
Magnitude (a.u.)       :      2.20747
Magnitude (Debye)      :      5.61093


------------------
CARTESIAN GRADIENT
------------------

   1   C   :    0.000000305    0.000117323    0.000051586
   2   H   :   -0.000001129   -0.000519240   -0.000197891
   3   H   :    0.000089993   -0.000128278    0.000517910
   4   H   :   -0.000090788   -0.000129654    0.000518761
   5   I   :    0.000000275   -0.000206177    0.000320702
   6   F   :    0.000001343    0.000866026   -0.001211068

Difference to translation invariance:
           :   -0.0000000000   -0.0000000000   -0.0000000000

Difference to rotation invariance:
           :   -0.0000000045    0.0000000000   -0.0000000000

Norm of the Cartesian gradient     ...    0.0018094738
RMS gradient                       ...    0.0004264971
MAX gradient                       ...    0.0012110679
------------------------------------------------------------------------------
                         ORCA GEOMETRY RELAXATION STEP
------------------------------------------------------------------------------

Reading the OPT-File                    .... done
Getting information on internals        .... done
Copying old internal coords+grads       .... done
Making the new internal coordinates     .... (2022 redundants) done
Validating the new internal coordinates .... (2022 redundants) done
Calculating the B-matrix                .... done
Calculating the G,G- and P matrices     .... done
Transforming gradient to internals      .... done
Projecting the internal gradient        .... done
Number of atoms                         ....   6
Number of internal coordinates          ....  15
Current Energy                          ....   -12.416123289 Eh
Current gradient norm                   ....     0.001809474 Eh/bohr
Maximum allowed component of the step   ....  0.300
Current trust radius                    ....  0.300
Evaluating the initial hessian          ....  (Almloef) done
Projecting the Hessian                  .... done
Forming the augmented Hessian           .... done
Diagonalizing the augmented Hessian     .... done
Last element of RFO vector              ....  0.999162124
Lowest eigenvalues of augmented Hessian:
 -0.000076891  0.035893480  0.098002656  0.116203985  0.204063374
Length of the computed step             ....  0.040961691
The final length of the internal step   ....  0.040961691
Converting the step to Cartesian space:
 Initial RMS(Int)=    0.0105762630
Transforming coordinates:
 Iter   0:  RMS(Cart)=    0.0105119453 RMS(Int)=    0.0105719352
done
Storing new coordinates                 .... done

                                .--------------------.
          ----------------------|Geometry convergence|-------------------------
          Item                value                   Tolerance       Converged
          ---------------------------------------------------------------------
          RMS gradient        0.0006903783            0.0001000000      NO
          MAX gradient        0.0014362587            0.0003000000      NO
          RMS step            0.0105762630            0.0020000000      NO
          MAX step            0.0399927943            0.0040000000      NO
          -------------------------------------------------------------------------
          ........................................................
          Max(Bonds)      0.0212      Max(Angles)    0.35
          Max(Dihed)        0.04      Max(Improp)    0.00
          ---------------------------------------------------------------------

The optimization has not yet converged - more geometry cycles are needed


    ---------------------------------------------------------------------------
                         Redundant Internal Coordinates
                            (Angstroem and degrees)

        Definition                    Value    dE/dq     Step     New-Value
    ----------------------------------------------------------------------------
     1. B(H   1,C   0)                1.1141  0.001306 -0.0021    1.1120   
     2. B(H   2,C   0)                1.0852  0.000135 -0.0002    1.0850   
     3. B(H   3,C   0)                1.0852  0.000136 -0.0002    1.0850   
     4. B(I   4,C   0)                2.1779  0.000201 -0.0009    2.1770   
     5. B(F   5,H   1)                1.6681  0.001436 -0.0212    1.6469   
     6. A(H   1,C   0,H   3)          110.43  0.000437   -0.09    110.34   
     7. A(H   1,C   0,H   2)          110.43  0.000434   -0.09    110.34   
     8. A(H   1,C   0,I   4)          114.94  0.000612   -0.12    114.82   
     9. A(H   2,C   0,I   4)          105.59 -0.000680    0.14    105.73   
    10. A(H   3,C   0,I   4)          105.59 -0.000680    0.14    105.73   
    11. A(H   2,C   0,H   3)          109.61 -0.000238    0.03    109.65   
    12. A(C   0,H   1,F   5)          160.62  0.001236   -0.35    160.27   
    13. D(F   5,H   1,C   0,H   3)    -60.72 -0.000139    0.04    -60.68   
    14. D(F   5,H   1,C   0,I   4)    179.98 -0.000001    0.00    179.98   
    15. D(F   5,H   1,C   0,H   2)     60.68  0.000140   -0.04     60.64   
    ----------------------------------------------------------------------------

Geometry step timings:
Preparation and reading OPT file:      0.000 s ( 3.101 %)
Internal coordinates            :      0.000 s ( 3.604 %)
B/P matrices and projection     :      0.000 s (12.406 %)
Hessian update/contruction      :      0.000 s (34.702 %)
Making the step                 :      0.000 s (10.813 %)
Converting the step to Cartesian:      0.000 s ( 4.275 %)
Storing new data                :      0.000 s ( 6.622 %)
Checking convergence            :      0.000 s ( 5.029 %)
Final printing                  :      0.000 s (19.028 %)
Total time                      :      0.001 s

Time for energy+gradient        :      0.150 s
Time for complete geometry iter :      0.153 s

         *************************************************************
         *                GEOMETRY OPTIMIZATION CYCLE   2            *
         *************************************************************
---------------------------------
CARTESIAN COORDINATES (ANGSTROEM)
---------------------------------
  C    -0.000285   -0.501830    0.271322
  H    -0.000008    0.209923   -0.583112
  H     0.886323   -1.126614    0.241980
  H    -0.887434   -1.125850    0.242068
  I     0.000216    0.431327    2.238145
  F     0.000367    0.775026   -2.130070

----------------------------
CARTESIAN COORDINATES (A.U.)
----------------------------
  NO LB    ZA    FRAG    MASS        X           Y           Z
   0 C   6.0000    0    12.011   -0.000538   -0.948321    0.512725
   1 H   1.0000    0     1.008   -0.000014    0.396697   -1.101921
   2 H   1.0000    0     1.008    1.674908   -2.128993    0.457275
   3 H   1.0000    0     1.008   -1.677007   -2.127549    0.457443
   4 I  53.0000    0   126.900    0.000408    0.815090    4.229481
   5 F   9.0000    0    18.998    0.000693    1.464587   -4.025248

      -----------------------------------------------------------      
     |                   =====================                   |     
     |                           x T B                           |     
     |                   =====================                   |     
     |                         S. Grimme                         |     
     |          Mulliken Center for Theoretical Chemistry        |     
     |                    University of Bonn                     |     
      -----------------------------------------------------------      

   * xtb version 6.7.1 (edcfbbe) compiled by 'albert@albert-system' on 2024-07-22

   xtb is free software: you can redistribute it and/or modify it under
   the terms of the GNU Lesser General Public License as published by
   the Free Software Foundation, either version 3 of the License, or
   (at your option) any later version.
   
   xtb is distributed in the hope that it will be useful,
   but WITHOUT ANY WARRANTY; without even the implied warranty of
   MERCHANTABILITY or FITNESS FOR A PARTICULAR PURPOSE.  See the
   GNU Lesser General Public License for more details.
   
   Cite this work as:
   * C. Bannwarth, E. Caldeweyher, S. Ehlert, A. Hansen, P. Pracht,
     J. Seibert, S. Spicher, S. Grimme, WIREs Comput. Mol. Sci., 2020, 11,
     e01493. DOI: 10.1002/wcms.1493
   
   for GFN2-xTB:
   * C. Bannwarth, S. Ehlert and S. Grimme., J. Chem. Theory Comput., 2019,
     15, 1652-1671. DOI: 10.1021/acs.jctc.8b01176
   for GFN1-xTB:
   * S. Grimme, C. Bannwarth, P. Shushkov, J. Chem. Theory Comput., 2017,
     13, 1989-2009. DOI: 10.1021/acs.jctc.7b00118
   for GFN0-xTB:
   * P. Pracht, E. Caldeweyher, S. Ehlert, S. Grimme, ChemRxiv, 2019, preprint.
     DOI: 10.26434/chemrxiv.8326202.v1
   for GFN-FF:
   * S. Spicher and S. Grimme, Angew. Chem. Int. Ed., 2020, 59, 15665-15673.
     DOI: 10.1002/anie.202004239
   
   for ALPB and GBSA implicit solvation:
   * S. Ehlert, M. Stahn, S. Spicher, S. Grimme, J. Chem. Theory Comput.,
     2021, 17, 4250-4261. DOI: 10.1021/acs.jctc.1c00471
   
   for ddCOSMO and CPCM-X implicit solvation:
   * M. Stahn, S. Ehlert, S. Grimme, J. Phys. Chem. A,
     2023, XX, XXXX-XXXX. DOI: 10.1021/acs.jpca.3c04382
   
   for DFT-D4:
   * E. Caldeweyher, C. Bannwarth and S. Grimme, J. Chem. Phys., 2017,
     147, 034112. DOI: 10.1063/1.4993215
   * E. Caldeweyher, S. Ehlert, A. Hansen, H. Neugebauer, S. Spicher,
     C. Bannwarth and S. Grimme, J. Chem. Phys., 2019, 150, 154122.
     DOI: 10.1063/1.5090222
   * E. Caldeweyher, J.-M. Mewes, S. Ehlert and S. Grimme, Phys. Chem. Chem. Phys.
     2020, 22, 8499-8512. DOI: 10.1039/D0CP00502A
   
   for sTDA-xTB:
   * S. Grimme and C. Bannwarth, J. Chem. Phys., 2016, 145, 054103.
     DOI: 10.1063/1.4959605
   
   in the mass-spec context:
   * V. Asgeirsson, C. Bauer and S. Grimme, Chem. Sci., 2017, 8, 4879.
     DOI: 10.1039/c7sc00601b
   * J. Koopman and S. Grimme, ACS Omega 2019, 4, 12, 15120-15133.
     DOI: 10.1021/acsomega.9b02011
   
   for metadynamics refer to:
   * S. Grimme, J. Chem. Theory Comput., 2019, 155, 2847-2862
     DOI: 10.1021/acs.jctc.9b00143
   
   for SPH calculations refer to:
   * S. Spicher and S. Grimme, J. Chem. Theory Comput., 2021, 17, 1701-1714
     DOI: 10.1021/acs.jctc.0c01306
   
   for ONIOM refer to:
   * C. Plett, A. Katbashev, S. Ehlert, S. Grimme, M. Bursch,
     Phys. Chem. Chem. Phys., 2023, 25, 17860-17868. DOI: 10.1039/D3CP02178E
   
   for DIPRO refer to:
   * J. Kohn, N. Gildemeister, S. Grimme, D. Fazzi, A. Hansen,
     J. Chem. Phys., 2023, just accepted.
   
   for PTB refer to:
   * S. Grimme, M. Mueller, A. Hansen, J. Chem. Phys., 2023, 158, 124111.
     DOI: 10.1063/5.0137838
   
   with help from (in alphabetical order)
   P. Atkinson, C. Bannwarth, F. Bohle, G. Brandenburg, E. Caldeweyher
   M. Checinski, S. Dohm, S. Ehlert, S. Ehrlich, I. Gerasimov, C. Hölzer
   A. Katbashev, J. Kohn, J. Koopman, C. Lavigne, S. Lehtola, F. März, M. Müller,
   F. Musil, H. Neugebauer, J. Pisarek, C. Plett, P. Pracht, F. Pultar,
   J. Seibert, P. Shushkov, S. Spicher, M. Stahn, M. Steiner, T. Strunk,
   J. Stückrath, T. Rose, and J. Unsleber
   
 * started run on 2026/03/12 at 12:41:17.967     
   ID    Z sym.   atoms
    1    6 C      1
    2    1 H      2-4
    3   53 I      5
    4    9 F      6

           -------------------------------------------------
          |                Calculation Setup                |
           -------------------------------------------------

          program call               : /software/orca-6.1.0-el8-x86_64/bin/otool_xtb reactant_optfreq_XTB.xyz --grad -c -1 -u 0 -P 8 --namespace reactant_optfreq --input reactant_optfreq_XTB.input.tmp --acc 0.200000
          hostname                   : midway3-login4.rcc.local
          calculation namespace      : reactant_optfreq
          coordinate file            : reactant_optfreq_XTB.xyz
          omp threads                :                     8


molecular fragmentation (1/2 indicates fragments):
111112
# atoms in fragment 1/2:     5     1
 fragment masses (1/2) :      141.94       19.00
CMA distance (Bohr)    :   7.894
constraining FC (au)   :  0.0500

           -------------------------------------------------
          |                 G F N 2 - x T B                 |
           -------------------------------------------------

        Reference                      10.1021/acs.jctc.8b01176
      * Hamiltonian:
        H0-scaling (s, p, d)           1.850000    2.230000    2.230000
        zeta-weighting                 0.500000
      * Dispersion:
        s8                             2.700000
        a1                             0.520000
        a2                             5.000000
        s9                             5.000000
      * Repulsion:
        kExp                           1.500000    1.000000
        rExp                           1.000000
      * Coulomb:
        alpha                          2.000000
        third order                    shell-resolved
        anisotropic                    true
        a3                             3.000000
        a5                             4.000000
        cn-shift                       1.200000
        cn-exp                         4.000000
        max-rad                        5.000000

q/qsh data taken from xtbrestart
CAMM data taken from xtbrestart

          ...................................................
          :                      SETUP                      :
          :.................................................:
          :  # basis functions                  21          :
          :  # atomic orbitals                  20          :
          :  # shells                           10          :
          :  # electrons                        22          :
          :  max. iterations                   250          :
          :  Hamiltonian                  GFN2-xTB          :
          :  restarted?                       true          :
          :  GBSA solvation                  false          :
          :  PC potential                    false          :
          :  electronic temp.          300.0000000     K    :
          :  accuracy                    0.2000000          :
          :  -> integral cutoff          0.3198970E+02      :
          :  -> integral neglect         0.2000000E-08      :
          :  -> SCF convergence          0.2000000E-06 Eh   :
          :  -> wf. convergence          0.2000000E-04 e    :
          :  Broyden damping             0.4000000          :
          :  net charge                         -1          :
          :  unpaired electrons                  0          :
          ...................................................

 iter      E             dE          RMSdq      gap      omega  full diag
   1    -12.4708935 -0.124709E+02  0.676E-02    1.08       0.0  T
   2    -12.4708999 -0.640468E-05  0.275E-02    1.11       1.5  T
   3    -12.4709003 -0.468054E-06  0.161E-02    1.10       2.5  T
   4    -12.4709003 -0.116261E-07  0.727E-03    1.11       5.6  T
   5    -12.4709004 -0.726841E-07  0.224E-03    1.10      18.2  T
   6    -12.4709004 -0.100228E-08  0.861E-04    1.10      47.4  T
   7    -12.4709004 -0.240160E-09  0.444E-04    1.10      92.0  T
   8    -12.4709004 -0.168491E-09  0.930E-05    1.10     438.8  T
   9    -12.4709004 -0.107381E-10  0.329E-05    1.10    1240.4  T

   *** convergence criteria satisfied after 9 iterations ***

         #    Occupation            Energy/Eh            Energy/eV
      -------------------------------------------------------------
         1        2.0000           -0.5852197             -15.9246
       ...           ...                  ...                  ...
         5        2.0000           -0.3234728              -8.8021
         6        2.0000           -0.3140665              -8.5462
         7        2.0000           -0.2599038              -7.0723
         8        2.0000           -0.2568015              -6.9879
         9        2.0000           -0.1172603              -3.1908
        10        2.0000           -0.1146467              -3.1197
        11        2.0000           -0.1146244              -3.1191 (HOMO)
        12                         -0.0740273              -2.0144 (LUMO)
        13                          0.1815470               4.9401
        14                          0.1830499               4.9810
        15                          0.2116158               5.7584
        16                          0.2121200               5.7721
       ...                                ...                  ...
        20                          0.5072016              13.8017
      -------------------------------------------------------------
                  HL-Gap            0.0405972 Eh            1.1047 eV
             Fermi-level           -0.0940010 Eh           -2.5579 eV

 SCC (total)                   0 d,  0 h,  0 min,  0.081 sec
 SCC setup                      ...        0 min,  0.000 sec (  0.214%)
 Dispersion                     ...        0 min,  0.000 sec (  0.069%)
 classical contributions        ...        0 min,  0.000 sec (  0.042%)
 integral evaluation            ...        0 min,  0.079 sec ( 96.732%)
 iterations                     ...        0 min,  0.002 sec (  2.050%)
 molecular gradient             ...        0 min,  0.001 sec (  0.638%)
 printout                       ...        0 min,  0.000 sec (  0.234%)

         :::::::::::::::::::::::::::::::::::::::::::::::::::::
         ::                     SUMMARY                     ::
         :::::::::::::::::::::::::::::::::::::::::::::::::::::
         :: total energy             -12.416164761425 Eh    ::
         :: gradient norm              0.002157083896 Eh/a0 ::
         :: HOMO-LUMO gap              1.104705058223 eV    ::
         ::.................................................::
         :: SCC energy               -12.470900135651 Eh    ::
         :: -> isotropic ES            0.219666473673 Eh    ::
         :: -> anisotropic ES         -0.006188074156 Eh    ::
         :: -> anisotropic XC         -0.003222359056 Eh    ::
         :: -> dispersion             -0.002591740201 Eh    ::
         :: repulsion energy           0.054735374226 Eh    ::
         :: add. restraining           0.000000000000 Eh    ::
         :: total charge              -0.999999998907 e     ::
         :::::::::::::::::::::::::::::::::::::::::::::::::::::


Property printout bound to 'properties.out'

           -------------------------------------------------
          | TOTAL ENERGY              -12.416164761425 Eh   |
          | GRADIENT NORM               0.002157083896 Eh/α |
          | HOMO-LUMO GAP               1.104705058223 eV   |
           -------------------------------------------------

------------------------------------------------------------------------
 * finished run on 2026/03/12 at 12:41:18.061     
------------------------------------------------------------------------
 total:
 * wall-time:     0 d,  0 h,  0 min,  0.094 sec
 *  cpu-time:     0 d,  0 h,  0 min,  0.412 sec
 * ratio c/w:     4.395 speedup
 SCF:
 * wall-time:     0 d,  0 h,  0 min,  0.081 sec
 *  cpu-time:     0 d,  0 h,  0 min,  0.350 sec
 * ratio c/w:     4.295 speedup


-------------------------   --------------------
FINAL SINGLE POINT ENERGY       -12.416164761430
-------------------------   --------------------


-------------
DIPOLE MOMENT
-------------
                                X             Y             Z
Total Dipole Moment    :     -0.00100      -1.88400       1.08000
                        -----------------------------------------
Magnitude (a.u.)       :      2.17160
Magnitude (Debye)      :      5.51977


------------------
CARTESIAN GRADIENT
------------------

   1   C   :    0.000000261    0.000894924   -0.001284289
   2   H   :   -0.000001867   -0.001256036    0.000637546
   3   H   :   -0.000011032    0.000065769    0.000242328
   4   H   :    0.000011364    0.000065493    0.000242981
   5   I   :    0.000000235   -0.000045128    0.000106405
   6   F   :    0.000001039    0.000274978    0.000055029

Difference to translation invariance:
           :   -0.0000000000    0.0000000000    0.0000000000

Difference to rotation invariance:
           :    0.0000000749    0.0000000000   -0.0000000000

Norm of the Cartesian gradient     ...    0.0021570839
RMS gradient                       ...    0.0005084296
MAX gradient                       ...    0.0012842888
------------------------------------------------------------------------------
                         ORCA GEOMETRY RELAXATION STEP
------------------------------------------------------------------------------

Reading the OPT-File                    .... done
Getting information on internals        .... done
Copying old internal coords+grads       .... done
Making the new internal coordinates     .... (2022 redundants) done
Validating the new internal coordinates .... (2022 redundants) done
Calculating the B-matrix                .... done
Calculating the G,G- and P matrices     .... done
Transforming gradient to internals      .... done
Projecting the internal gradient        .... done
Number of atoms                         ....   6
Number of internal coordinates          ....  15
Current Energy                          ....   -12.416164761 Eh
Current gradient norm                   ....     0.002157084 Eh/bohr
Maximum allowed component of the step   ....  0.300
Current trust radius                    ....  0.300
Updating the Hessian (BFGS)             .... done
Forming the augmented Hessian           .... done
Diagonalizing the augmented Hessian     .... done
Last element of RFO vector              ....  0.999956629
Lowest eigenvalues of augmented Hessian:
 -0.000010062  0.032352153  0.098002651  0.115800321  0.183707695
Length of the computed step             ....  0.009313839
The final length of the internal step   ....  0.009313839
Converting the step to Cartesian space:
 Initial RMS(Int)=    0.0024048229
Transforming coordinates:
 Iter   0:  RMS(Cart)=    0.0027429233 RMS(Int)=    0.0024017782
done
Storing new coordinates                 .... done
The predicted energy change is          ....    -0.000005031
Previously predicted energy change      ....    -0.000038510
Actually observed energy change         ....    -0.000041472
Ratio of predicted to observed change   ....     1.076916240
New trust radius                        ....     0.450000000

                                .--------------------.
          ----------------------|Geometry convergence|-------------------------
          Item                value                   Tolerance       Converged
          ---------------------------------------------------------------------
          Energy change      -0.0000414721            0.0000050000      NO
          RMS gradient        0.0003972928            0.0001000000      NO
          MAX gradient        0.0011600520            0.0003000000      NO
          RMS step            0.0024048229            0.0020000000      NO
          MAX step            0.0063354805            0.0040000000      NO
          -------------------------------------------------------------------------
          ........................................................
          Max(Bonds)      0.0034      Max(Angles)    0.30
          Max(Dihed)        0.04      Max(Improp)    0.00
          ---------------------------------------------------------------------

The optimization has not yet converged - more geometry cycles are needed


    ---------------------------------------------------------------------------
                         Redundant Internal Coordinates
                            (Angstroem and degrees)

        Definition                    Value    dE/dq     Step     New-Value
    ----------------------------------------------------------------------------
     1. B(H   1,C   0)                1.1120 -0.001160  0.0017    1.1138   
     2. B(H   2,C   0)                1.0850 -0.000053  0.0001    1.0851   
     3. B(H   3,C   0)                1.0850 -0.000054  0.0001    1.0851   
     4. B(I   4,C   0)                2.1770  0.000077 -0.0005    2.1765   
     5. B(F   5,H   1)                1.6469  0.000043 -0.0034    1.6436   
     6. A(H   1,C   0,H   3)          110.34  0.000207   -0.06    110.28   
     7. A(H   1,C   0,H   2)          110.34  0.000205   -0.06    110.28   
     8. A(H   1,C   0,I   4)          114.82  0.000078   -0.03    114.80   
     9. A(H   2,C   0,I   4)          105.73 -0.000262    0.08    105.81   
    10. A(H   3,C   0,I   4)          105.73 -0.000262    0.08    105.81   
    11. A(H   2,C   0,H   3)          109.65 -0.000002   -0.01    109.64   
    12. A(C   0,H   1,F   5)          160.27  0.000863   -0.30    159.97   
    13. D(F   5,H   1,C   0,H   3)    -60.68 -0.000134    0.04    -60.64   
    14. D(F   5,H   1,C   0,I   4)    179.98 -0.000001    0.00    179.98   
    15. D(F   5,H   1,C   0,H   2)     60.64  0.000134   -0.04     60.60   
    ----------------------------------------------------------------------------

Geometry step timings:
Preparation and reading OPT file:      0.000 s ( 2.718 %)
Internal coordinates            :      0.000 s ( 3.592 %)
B/P matrices and projection     :      0.000 s (12.136 %)
Hessian update/contruction      :      0.000 s (32.718 %)
Making the step                 :      0.000 s ( 7.961 %)
Converting the step to Cartesian:      0.000 s ( 2.621 %)
Storing new data                :      0.000 s ( 6.796 %)
Checking convergence            :      0.000 s ( 7.087 %)
Final printing                  :      0.000 s (24.369 %)
Total time                      :      0.001 s

Time for energy+gradient        :      0.103 s
Time for complete geometry iter :      0.105 s

         *************************************************************
         *                GEOMETRY OPTIMIZATION CYCLE   3            *
         *************************************************************
---------------------------------
CARTESIAN COORDINATES (ANGSTROEM)
---------------------------------
  C    -0.000282   -0.501056    0.271941
  H    -0.000006    0.212972   -0.582833
  H     0.886326   -1.125832    0.240388
  H    -0.887435   -1.125063    0.240474
  I     0.000214    0.430056    2.239192
  F     0.000363    0.770904   -2.128828

----------------------------
CARTESIAN COORDINATES (A.U.)
----------------------------
  NO LB    ZA    FRAG    MASS        X           Y           Z
   0 C   6.0000    0    12.011   -0.000533   -0.946858    0.513894
   1 H   1.0000    0     1.008   -0.000011    0.402459   -1.101395
   2 H   1.0000    0     1.008    1.674914   -2.127513    0.454268
   3 H   1.0000    0     1.008   -1.677009   -2.126061    0.454430
   4 I  53.0000    0   126.900    0.000404    0.812689    4.231459
   5 F   9.0000    0    18.998    0.000685    1.456797   -4.022902

      -----------------------------------------------------------      
     |                   =====================                   |     
     |                           x T B                           |     
     |                   =====================                   |     
     |                         S. Grimme                         |     
     |          Mulliken Center for Theoretical Chemistry        |     
     |                    University of Bonn                     |     
      -----------------------------------------------------------      

   * xtb version 6.7.1 (edcfbbe) compiled by 'albert@albert-system' on 2024-07-22

   xtb is free software: you can redistribute it and/or modify it under
   the terms of the GNU Lesser General Public License as published by
   the Free Software Foundation, either version 3 of the License, or
   (at your option) any later version.
   
   xtb is distributed in the hope that it will be useful,
   but WITHOUT ANY WARRANTY; without even the implied warranty of
   MERCHANTABILITY or FITNESS FOR A PARTICULAR PURPOSE.  See the
   GNU Lesser General Public License for more details.
   
   Cite this work as:
   * C. Bannwarth, E. Caldeweyher, S. Ehlert, A. Hansen, P. Pracht,
     J. Seibert, S. Spicher, S. Grimme, WIREs Comput. Mol. Sci., 2020, 11,
     e01493. DOI: 10.1002/wcms.1493
   
   for GFN2-xTB:
   * C. Bannwarth, S. Ehlert and S. Grimme., J. Chem. Theory Comput., 2019,
     15, 1652-1671. DOI: 10.1021/acs.jctc.8b01176
   for GFN1-xTB:
   * S. Grimme, C. Bannwarth, P. Shushkov, J. Chem. Theory Comput., 2017,
     13, 1989-2009. DOI: 10.1021/acs.jctc.7b00118
   for GFN0-xTB:
   * P. Pracht, E. Caldeweyher, S. Ehlert, S. Grimme, ChemRxiv, 2019, preprint.
     DOI: 10.26434/chemrxiv.8326202.v1
   for GFN-FF:
   * S. Spicher and S. Grimme, Angew. Chem. Int. Ed., 2020, 59, 15665-15673.
     DOI: 10.1002/anie.202004239
   
   for ALPB and GBSA implicit solvation:
   * S. Ehlert, M. Stahn, S. Spicher, S. Grimme, J. Chem. Theory Comput.,
     2021, 17, 4250-4261. DOI: 10.1021/acs.jctc.1c00471
   
   for ddCOSMO and CPCM-X implicit solvation:
   * M. Stahn, S. Ehlert, S. Grimme, J. Phys. Chem. A,
     2023, XX, XXXX-XXXX. DOI: 10.1021/acs.jpca.3c04382
   
   for DFT-D4:
   * E. Caldeweyher, C. Bannwarth and S. Grimme, J. Chem. Phys., 2017,
     147, 034112. DOI: 10.1063/1.4993215
   * E. Caldeweyher, S. Ehlert, A. Hansen, H. Neugebauer, S. Spicher,
     C. Bannwarth and S. Grimme, J. Chem. Phys., 2019, 150, 154122.
     DOI: 10.1063/1.5090222
   * E. Caldeweyher, J.-M. Mewes, S. Ehlert and S. Grimme, Phys. Chem. Chem. Phys.
     2020, 22, 8499-8512. DOI: 10.1039/D0CP00502A
   
   for sTDA-xTB:
   * S. Grimme and C. Bannwarth, J. Chem. Phys., 2016, 145, 054103.
     DOI: 10.1063/1.4959605
   
   in the mass-spec context:
   * V. Asgeirsson, C. Bauer and S. Grimme, Chem. Sci., 2017, 8, 4879.
     DOI: 10.1039/c7sc00601b
   * J. Koopman and S. Grimme, ACS Omega 2019, 4, 12, 15120-15133.
     DOI: 10.1021/acsomega.9b02011
   
   for metadynamics refer to:
   * S. Grimme, J. Chem. Theory Comput., 2019, 155, 2847-2862
     DOI: 10.1021/acs.jctc.9b00143
   
   for SPH calculations refer to:
   * S. Spicher and S. Grimme, J. Chem. Theory Comput., 2021, 17, 1701-1714
     DOI: 10.1021/acs.jctc.0c01306
   
   for ONIOM refer to:
   * C. Plett, A. Katbashev, S. Ehlert, S. Grimme, M. Bursch,
     Phys. Chem. Chem. Phys., 2023, 25, 17860-17868. DOI: 10.1039/D3CP02178E
   
   for DIPRO refer to:
   * J. Kohn, N. Gildemeister, S. Grimme, D. Fazzi, A. Hansen,
     J. Chem. Phys., 2023, just accepted.
   
   for PTB refer to:
   * S. Grimme, M. Mueller, A. Hansen, J. Chem. Phys., 2023, 158, 124111.
     DOI: 10.1063/5.0137838
   
   with help from (in alphabetical order)
   P. Atkinson, C. Bannwarth, F. Bohle, G. Brandenburg, E. Caldeweyher
   M. Checinski, S. Dohm, S. Ehlert, S. Ehrlich, I. Gerasimov, C. Hölzer
   A. Katbashev, J. Kohn, J. Koopman, C. Lavigne, S. Lehtola, F. März, M. Müller,
   F. Musil, H. Neugebauer, J. Pisarek, C. Plett, P. Pracht, F. Pultar,
   J. Seibert, P. Shushkov, S. Spicher, M. Stahn, M. Steiner, T. Strunk,
   J. Stückrath, T. Rose, and J. Unsleber
   
 * started run on 2026/03/12 at 12:41:18.072     
   ID    Z sym.   atoms
    1    6 C      1
    2    1 H      2-4
    3   53 I      5
    4    9 F      6

           -------------------------------------------------
          |                Calculation Setup                |
           -------------------------------------------------

          program call               : /software/orca-6.1.0-el8-x86_64/bin/otool_xtb reactant_optfreq_XTB.xyz --grad -c -1 -u 0 -P 8 --namespace reactant_optfreq --input reactant_optfreq_XTB.input.tmp --acc 0.200000
          hostname                   : midway3-login4.rcc.local
          calculation namespace      : reactant_optfreq
          coordinate file            : reactant_optfreq_XTB.xyz
          omp threads                :                     8


molecular fragmentation (1/2 indicates fragments):
111112
# atoms in fragment 1/2:     5     1
 fragment masses (1/2) :      141.94       19.00
CMA distance (Bohr)    :   7.893
constraining FC (au)   :  0.0500

           -------------------------------------------------
          |                 G F N 2 - x T B                 |
           -------------------------------------------------

        Reference                      10.1021/acs.jctc.8b01176
      * Hamiltonian:
        H0-scaling (s, p, d)           1.850000    2.230000    2.230000
        zeta-weighting                 0.500000
      * Dispersion:
        s8                             2.700000
        a1                             0.520000
        a2                             5.000000
        s9                             5.000000
      * Repulsion:
        kExp                           1.500000    1.000000
        rExp                           1.000000
      * Coulomb:
        alpha                          2.000000
        third order                    shell-resolved
        anisotropic                    true
        a3                             3.000000
        a5                             4.000000
        cn-shift                       1.200000
        cn-exp                         4.000000
        max-rad                        5.000000

q/qsh data taken from xtbrestart
CAMM data taken from xtbrestart

          ...................................................
          :                      SETUP                      :
          :.................................................:
          :  # basis functions                  21          :
          :  # atomic orbitals                  20          :
          :  # shells                           10          :
          :  # electrons                        22          :
          :  max. iterations                   250          :
          :  Hamiltonian                  GFN2-xTB          :
          :  restarted?                       true          :
          :  GBSA solvation                  false          :
          :  PC potential                    false          :
          :  electronic temp.          300.0000000     K    :
          :  accuracy                    0.2000000          :
          :  -> integral cutoff          0.3198970E+02      :
          :  -> integral neglect         0.2000000E-08      :
          :  -> SCF convergence          0.2000000E-06 Eh   :
          :  -> wf. convergence          0.2000000E-04 e    :
          :  Broyden damping             0.4000000          :
          :  net charge                         -1          :
          :  unpaired electrons                  0          :
          ...................................................

 iter      E             dE          RMSdq      gap      omega  full diag
   1    -12.4707237 -0.124707E+02  0.220E-02    1.11       0.0  T
   2    -12.4707241 -0.429253E-06  0.996E-03    1.12       4.1  T
   3    -12.4707242 -0.167057E-07  0.459E-03    1.12       8.9  T
   4    -12.4707242 -0.227850E-07  0.263E-03    1.12      15.5  T
   5    -12.4707242 -0.364909E-08  0.980E-04    1.12      41.7  T
   6    -12.4707242 -0.306008E-09  0.402E-04    1.12     101.4  T
   7    -12.4707242 -0.703562E-10  0.149E-04    1.12     274.6  T
   8    -12.4707242 -0.403766E-11  0.135E-05    1.12    3031.8  T

   *** convergence criteria satisfied after 8 iterations ***

         #    Occupation            Energy/Eh            Energy/eV
      -------------------------------------------------------------
         1        2.0000           -0.5851040             -15.9215
       ...           ...                  ...                  ...
         5        2.0000           -0.3233457              -8.7987
         6        2.0000           -0.3136644              -8.5352
         7        2.0000           -0.2597935              -7.0693
         8        2.0000           -0.2566528              -6.9839
         9        2.0000           -0.1174759              -3.1967
        10        2.0000           -0.1148725              -3.1258
        11        2.0000           -0.1148490              -3.1252 (HOMO)
        12                         -0.0737252              -2.0062 (LUMO)
        13                          0.1816813               4.9438
        14                          0.1831499               4.9838
        15                          0.2117871               5.7630
        16                          0.2122537               5.7757
       ...                                ...                  ...
        20                          0.5077559              13.8167
      -------------------------------------------------------------
                  HL-Gap            0.0411238 Eh            1.1190 eV
             Fermi-level           -0.0939623 Eh           -2.5568 eV

 SCC (total)                   0 d,  0 h,  0 min,  0.066 sec
 SCC setup                      ...        0 min,  0.000 sec (  0.252%)
 Dispersion                     ...        0 min,  0.000 sec (  0.076%)
 classical contributions        ...        0 min,  0.000 sec (  0.043%)
 integral evaluation            ...        0 min,  0.064 sec ( 96.909%)
 iterations                     ...        0 min,  0.001 sec (  1.777%)
 molecular gradient             ...        0 min,  0.000 sec (  0.759%)
 printout                       ...        0 min,  0.000 sec (  0.163%)

         :::::::::::::::::::::::::::::::::::::::::::::::::::::
         ::                     SUMMARY                     ::
         :::::::::::::::::::::::::::::::::::::::::::::::::::::
         :: total energy             -12.416172580513 Eh    ::
         :: gradient norm              0.001082376112 Eh/a0 ::
         :: HOMO-LUMO gap              1.119036042638 eV    ::
         ::.................................................::
         :: SCC energy               -12.470723898868 Eh    ::
         :: -> isotropic ES            0.219465573035 Eh    ::
         :: -> anisotropic ES         -0.006153350612 Eh    ::
         :: -> anisotropic XC         -0.003213414459 Eh    ::
         :: -> dispersion             -0.002592568559 Eh    ::
         :: repulsion energy           0.054551318355 Eh    ::
         :: add. restraining           0.000000000000 Eh    ::
         :: total charge              -0.999999999172 e     ::
         :::::::::::::::::::::::::::::::::::::::::::::::::::::


Property printout bound to 'properties.out'

           -------------------------------------------------
          | TOTAL ENERGY              -12.416172580513 Eh   |
          | GRADIENT NORM               0.001082376112 Eh/α |
          | HOMO-LUMO GAP               1.119036042638 eV   |
           -------------------------------------------------

------------------------------------------------------------------------
 * finished run on 2026/03/12 at 12:41:18.162     
------------------------------------------------------------------------
 total:
 * wall-time:     0 d,  0 h,  0 min,  0.090 sec
 *  cpu-time:     0 d,  0 h,  0 min,  0.362 sec
 * ratio c/w:     4.033 speedup
 SCF:
 * wall-time:     0 d,  0 h,  0 min,  0.066 sec
 *  cpu-time:     0 d,  0 h,  0 min,  0.307 sec
 * ratio c/w:     4.653 speedup


-------------------------   --------------------
FINAL SINGLE POINT ENERGY       -12.416172580510
-------------------------   --------------------


-------------
DIPOLE MOMENT
-------------
                                X             Y             Z
Total Dipole Moment    :     -0.00100      -1.87400       1.07500
                        -----------------------------------------
Magnitude (a.u.)       :      2.16044
Magnitude (Debye)      :      5.49140


------------------
CARTESIAN GRADIENT
------------------

   1   C   :    0.000000458    0.000462714   -0.000596594
   2   H   :   -0.000001987   -0.000700731    0.000108324
   3   H   :    0.000012472    0.000029760    0.000131881
   4   H   :   -0.000012117    0.000029898    0.000132377
   5   I   :    0.000000180    0.000001846    0.000059576
   6   F   :    0.000000994    0.000176512    0.000164435

Difference to translation invariance:
           :    0.0000000000    0.0000000000    0.0000000000

Difference to rotation invariance:
           :    0.0000000362    0.0000000001   -0.0000000000

Norm of the Cartesian gradient     ...    0.0010823761
RMS gradient                       ...    0.0002551185
MAX gradient                       ...    0.0007007307
------------------------------------------------------------------------------
                         ORCA GEOMETRY RELAXATION STEP
------------------------------------------------------------------------------

Reading the OPT-File                    .... done
Getting information on internals        .... done
Copying old internal coords+grads       .... done
Making the new internal coordinates     .... (2022 redundants) done
Validating the new internal coordinates .... (2022 redundants) done
Calculating the B-matrix                .... done
Calculating the G,G- and P matrices     .... done
Transforming gradient to internals      .... done
Projecting the internal gradient        .... done
Number of atoms                         ....   6
Number of internal coordinates          ....  15
Current Energy                          ....   -12.416172581 Eh
Current gradient norm                   ....     0.001082376 Eh/bohr
Maximum allowed component of the step   ....  0.300
Current trust radius                    ....  0.450
Updating the Hessian (BFGS)             .... done
Forming the augmented Hessian           .... done
Diagonalizing the augmented Hessian     .... done
Last element of RFO vector              ....  0.999927182
Lowest eigenvalues of augmented Hessian:
 -0.000010160  0.033538906  0.082443186  0.098002962  0.118513760
Length of the computed step             ....  0.012068630
The final length of the internal step   ....  0.012068630
Converting the step to Cartesian space:
 Initial RMS(Int)=    0.0031161070
Transforming coordinates:
 Iter   0:  RMS(Cart)=    0.0049699278 RMS(Int)=    0.0031120825
done
Storing new coordinates                 .... done
The predicted energy change is          ....    -0.000005081
Previously predicted energy change      ....    -0.000005031
Actually observed energy change         ....    -0.000007819
Ratio of predicted to observed change   ....     1.554034717
New trust radius                        ....     0.300000000

                                .--------------------.
          ----------------------|Geometry convergence|-------------------------
          Item                value                   Tolerance       Converged
          ---------------------------------------------------------------------
          Energy change      -0.0000078191            0.0000050000      NO
          RMS gradient        0.0002397422            0.0001000000      NO
          MAX gradient        0.0006890417            0.0003000000      NO
          RMS step            0.0031161070            0.0020000000      NO
          MAX step            0.0101733277            0.0040000000      NO
          -------------------------------------------------------------------------
          ........................................................
          Max(Bonds)      0.0021      Max(Angles)    0.58
          Max(Dihed)        0.07      Max(Improp)    0.00
          ---------------------------------------------------------------------

The optimization has not yet converged - more geometry cycles are needed


    ---------------------------------------------------------------------------
                         Redundant Internal Coordinates
                            (Angstroem and degrees)

        Definition                    Value    dE/dq     Step     New-Value
    ----------------------------------------------------------------------------
     1. B(H   1,C   0)                1.1138 -0.000545  0.0021    1.1159   
     2. B(H   2,C   0)                1.0851 -0.000011  0.0000    1.0851   
     3. B(H   3,C   0)                1.0851 -0.000011  0.0000    1.0851   
     4. B(I   4,C   0)                2.1765  0.000055 -0.0009    2.1756   
     5. B(F   5,H   1)                1.6436 -0.000095 -0.0014    1.6422   
     6. A(H   1,C   0,H   3)          110.28  0.000125   -0.09    110.19   
     7. A(H   1,C   0,H   2)          110.28  0.000124   -0.09    110.19   
     8. A(H   1,C   0,I   4)          114.80 -0.000031   -0.00    114.79   
     9. A(H   2,C   0,I   4)          105.81 -0.000123    0.11    105.92   
    10. A(H   3,C   0,I   4)          105.81 -0.000122    0.11    105.92   
    11. A(H   2,C   0,H   3)          109.64  0.000011   -0.02    109.62   
    12. A(C   0,H   1,F   5)          159.97  0.000689   -0.58    159.39   
    13. D(F   5,H   1,C   0,H   3)    -60.64 -0.000089    0.07    -60.56   
    14. D(F   5,H   1,C   0,I   4)    179.98 -0.000001    0.00    179.98   
    15. D(F   5,H   1,C   0,H   2)     60.60  0.000088   -0.07     60.52   
    ----------------------------------------------------------------------------

Geometry step timings:
Preparation and reading OPT file:      0.000 s ( 2.982 %)
Internal coordinates            :      0.000 s ( 3.834 %)
B/P matrices and projection     :      0.000 s (12.780 %)
Hessian update/contruction      :      0.000 s (29.499 %)
Making the step                 :      0.000 s ( 8.626 %)
Converting the step to Cartesian:      0.000 s ( 3.088 %)
Storing new data                :      0.000 s ( 7.987 %)
Checking convergence            :      0.000 s ( 7.561 %)
Final printing                  :      0.000 s (23.536 %)
Total time                      :      0.001 s

Time for energy+gradient        :      0.098 s
Time for complete geometry iter :      0.100 s

         *************************************************************
         *                GEOMETRY OPTIMIZATION CYCLE   4            *
         *************************************************************
---------------------------------
CARTESIAN COORDINATES (ANGSTROEM)
---------------------------------
  C    -0.000278   -0.499330    0.273367
  H    -0.000003    0.218247   -0.581219
  H     0.886235   -1.124074    0.238032
  H    -0.887341   -1.123299    0.238113
  I     0.000210    0.426527    2.242148
  F     0.000356    0.763911   -2.130106

----------------------------
CARTESIAN COORDINATES (A.U.)
----------------------------
  NO LB    ZA    FRAG    MASS        X           Y           Z
   0 C   6.0000    0    12.011   -0.000525   -0.943597    0.516588
   1 H   1.0000    0     1.008   -0.000005    0.412427   -1.098345
   2 H   1.0000    0     1.008    1.674741   -2.124192    0.449816
   3 H   1.0000    0     1.008   -1.676831   -2.122727    0.449969
   4 I  53.0000    0   126.900    0.000398    0.806019    4.237045
   5 F   9.0000    0    18.998    0.000672    1.443583   -4.025318

      -----------------------------------------------------------      
     |                   =====================                   |     
     |                           x T B                           |     
     |                   =====================                   |     
     |                         S. Grimme                         |     
     |          Mulliken Center for Theoretical Chemistry        |     
     |                    University of Bonn                     |     
[...]
             Fermi-level           -0.0942189 Eh           -2.5638 eV

 SCC (total)                   0 d,  0 h,  0 min,  0.105 sec
 SCC setup                      ...        0 min,  0.000 sec (  0.158%)
 Dispersion                     ...        0 min,  0.000 sec (  0.051%)
 classical contributions        ...        0 min,  0.000 sec (  0.026%)
 integral evaluation            ...        0 min,  0.098 sec ( 92.859%)
 iterations                     ...        0 min,  0.006 sec (  5.992%)
 molecular gradient             ...        0 min,  0.001 sec (  0.771%)
 printout                       ...        0 min,  0.000 sec (  0.124%)

         :::::::::::::::::::::::::::::::::::::::::::::::::::::
         ::                     SUMMARY                     ::
         :::::::::::::::::::::::::::::::::::::::::::::::::::::
         :: total energy             -12.416188839153 Eh    ::
         :: gradient norm              0.000298976835 Eh/a0 ::
         :: HOMO-LUMO gap              1.114580486883 eV    ::
         ::.................................................::
         :: SCC energy               -12.470832066321 Eh    ::
         :: -> isotropic ES            0.219437213721 Eh    ::
         :: -> anisotropic ES         -0.006204739438 Eh    ::
         :: -> anisotropic XC         -0.003182318579 Eh    ::
         :: -> dispersion             -0.002584224107 Eh    ::
         :: repulsion energy           0.054643227167 Eh    ::
         :: add. restraining           0.000000000000 Eh    ::
         :: total charge              -0.999999999104 e     ::
         :::::::::::::::::::::::::::::::::::::::::::::::::::::

           ------------------------------------------------- 
          |                Numerical Hessian                |
           ------------------------------------------------- 
step length          :   0.00500
SCC accuracy         :   0.30000
Hessian scale factor :   1.00000
frozen atoms in %    :   0.00000    0
RMS gradient         :   0.00030
estimated CPU  time      0.00 min
estimated wall time      0.00 min

writing file <hessian>.

 projected vibrational frequencies (cm⁻¹)
eigval :       -0.00    -0.00    -0.00     0.00     0.00     0.00
eigval :       77.67   257.70   297.65   521.05   875.56   959.03
eigval :     1301.24  1402.61  1441.82  2535.36  3032.89  3039.68

Property printout bound to 'properties.out'
Molecule has the following symmetry elements: (sigma) 
It seems to be the Cs point group

           -------------------------------------------------
          | TOTAL ENERGY              -12.416188839153 Eh   |
          | TOTAL ENTHALPY            -12.374535149734 Eh   |
          | TOTAL FREE ENERGY         -12.410231011688 Eh   |
          | GRADIENT NORM               0.000298965084 Eh/α |
          | HOMO-LUMO GAP               1.114581130345 eV   |
           -------------------------------------------------

------------------------------------------------------------------------
 * finished run on 2026/03/12 at 12:41:18.960     
------------------------------------------------------------------------
 total:
 * wall-time:     0 d,  0 h,  0 min,  0.189 sec
 *  cpu-time:     0 d,  0 h,  0 min,  0.717 sec
 * ratio c/w:     3.804 speedup
 SCF:
 * wall-time:     0 d,  0 h,  0 min,  0.105 sec
 *  cpu-time:     0 d,  0 h,  0 min,  0.538 sec
 * ratio c/w:     5.099 speedup
 analytical hessian:
 * wall-time:     0 d,  0 h,  0 min,  0.060 sec
 *  cpu-time:     0 d,  0 h,  0 min,  0.111 sec
 * ratio c/w:     1.836 speedup


-------------------------   --------------------
FINAL SINGLE POINT ENERGY       -12.416188839150
-------------------------   --------------------


-------------
DIPOLE MOMENT
-------------
                                X             Y             Z
Total Dipole Moment    :     -0.00100      -1.80900       1.07800
                        -----------------------------------------
Magnitude (a.u.)       :      2.10584
Magnitude (Debye)      :      5.35262


-----------------------
VIBRATIONAL FREQUENCIES
-----------------------

Scaling factor for frequencies =  1.000000000  (already applied!)

     0:       0.00 cm**-1
     1:       0.00 cm**-1
     2:       0.00 cm**-1
     3:       0.00 cm**-1
     4:       0.00 cm**-1
     5:       0.00 cm**-1
     6:      77.67 cm**-1
     7:     257.70 cm**-1
     8:     297.64 cm**-1
     9:     521.04 cm**-1
    10:     875.54 cm**-1
    11:     959.01 cm**-1
    12:    1301.20 cm**-1
    13:    1402.57 cm**-1
    14:    1441.78 cm**-1
    15:    2535.29 cm**-1
    16:    3032.80 cm**-1
    17:    3039.60 cm**-1


------------
NORMAL MODES
------------

These modes are the Cartesian displacements weighted by the diagonal matrix
M(i,i)=1/sqrt(m[i]) where m[i] is the mass of the displaced atom
Thus, these vectors are normalized but *not* orthogonal

                  0          1          2          3          4          5    
      0       0.000000   0.000000   0.000000   0.000000   0.000000   0.000000
      1       0.000000   0.000000   0.000000   0.000000   0.000000   0.000000
      2       0.000000   0.000000   0.000000   0.000000   0.000000   0.000000
      3       0.000000   0.000000   0.000000   0.000000   0.000000   0.000000
      4       0.000000   0.000000   0.000000   0.000000   0.000000   0.000000
      5       0.000000   0.000000   0.000000   0.000000   0.000000   0.000000
      6       0.000000   0.000000   0.000000   0.000000   0.000000   0.000000
      7       0.000000   0.000000   0.000000   0.000000   0.000000   0.000000
      8       0.000000   0.000000   0.000000   0.000000   0.000000   0.000000
      9       0.000000   0.000000   0.000000   0.000000   0.000000   0.000000
     10       0.000000   0.000000   0.000000   0.000000   0.000000   0.000000
     11       0.000000   0.000000   0.000000   0.000000   0.000000   0.000000
     12       0.000000   0.000000   0.000000   0.000000   0.000000   0.000000
     13       0.000000   0.000000   0.000000   0.000000   0.000000   0.000000
     14       0.000000   0.000000   0.000000   0.000000   0.000000   0.000000
     15       0.000000   0.000000   0.000000   0.000000   0.000000   0.000000
     16       0.000000   0.000000   0.000000   0.000000   0.000000   0.000000
     17       0.000000   0.000000   0.000000   0.000000   0.000000   0.000000
                  6          7          8          9         10         11    
      0       0.000183   0.000113  -0.105602   0.000083   0.000029   0.097427
      1       0.380019   0.385534  -0.000019   0.203442   0.089815  -0.000035
      2      -0.149128  -0.101135  -0.000009   0.543989  -0.026620  -0.000007
      3       0.000179  -0.000205  -0.576415  -0.000043  -0.000213  -0.348721
      4       0.474199   0.501377   0.000167   0.133742  -0.512122   0.000103
      5      -0.034175  -0.007273  -0.000004   0.477381  -0.639292  -0.000043
      6      -0.002296  -0.006151   0.219072  -0.017558  -0.042430  -0.147680
      7       0.385925   0.380366   0.476525   0.177033  -0.024638  -0.289605
      8      -0.258361  -0.242614  -0.228443   0.414929   0.397172  -0.573333
      9       0.002723   0.006874   0.218664   0.017838   0.042465  -0.147362
     10       0.385826   0.379604  -0.476849   0.176801  -0.024722   0.289730
     11      -0.258336  -0.242273   0.228456   0.415049   0.397059   0.573425
     12      -0.000011  -0.000005   0.004522  -0.000013  -0.000001  -0.004649
     13      -0.024424  -0.017189   0.000002  -0.026347  -0.004437   0.000002
     14       0.076295  -0.043086   0.000008  -0.050752   0.000810   0.000000
     15      -0.000071  -0.000062   0.043917   0.000020   0.000001   0.003617
     16      -0.143219  -0.195851   0.000008   0.021496   0.002647  -0.000001
     17      -0.386113   0.377855  -0.000045  -0.074287   0.003196   0.000001
                 12         13         14         15         16         17    
      0      -0.000016   0.063016   0.000030  -0.000021   0.000137  -0.092098
      1      -0.027692  -0.000024   0.073743  -0.054428   0.062724   0.000119
      2      -0.105373   0.000000  -0.015504   0.056827   0.000754   0.000005
      3       0.000180  -0.778967   0.000112   0.000280   0.000043  -0.039076
      4       0.411852   0.000335   0.176720   0.720008  -0.010300   0.000005
      5       0.371857   0.000035   0.123328  -0.685327   0.034017   0.000043
      6       0.080046  -0.073570  -0.396497   0.035686   0.597789   0.568584
      7       0.076063  -0.164725  -0.561933  -0.038450  -0.371980  -0.415465
      8       0.572650   0.402578   0.030832   0.010372  -0.022580  -0.017994
      9      -0.079929  -0.073426   0.396005  -0.035720  -0.599465   0.567471
     10       0.076138   0.164747  -0.562301  -0.038417  -0.372429   0.414035
     11       0.572637  -0.402587   0.030826   0.010373  -0.022570   0.017888
     12      -0.000001   0.000854   0.000000   0.000000   0.000000  -0.000028
     13      -0.001618  -0.000000   0.000564   0.000153   0.000055   0.000000
     14      -0.002013  -0.000000   0.000138   0.000196   0.000052   0.000000
     15      -0.000001   0.003585  -0.000000  -0.000000  -0.000000   0.000207
     16      -0.001613  -0.000001  -0.000119  -0.000737   0.000020  -0.000000
     17      -0.000429  -0.000000  -0.000933  -0.001977  -0.000231  -0.000000


The first frequency considered to be a vibration is 6
The total number of vibrations considered is 12


--------------------------
THERMOCHEMISTRY AT 298.15K
--------------------------

Temperature         ...   298.15 K
Pressure            ...     1.00 atm
Total Mass          ...   160.93 AMU
Quasi RRHO          ...     True
Cut-Off Frequency   ...     1.00 cm^-1

Throughout the following assumptions are being made:
  (1) The electronic state is orbitally nondegenerate
  (2) There are no thermally accessible electronically excited states
  (3) Hindered rotations indicated by low frequency modes are not
      treated as such but are treated as vibrations and this may
      cause some error
  (4) All equations used are the standard statistical mechanics
      equations for an ideal gas
  (5) All vibrations are strictly harmonic

freq.      77.67  E(vib)   ...       0.49 
freq.     257.70  E(vib)   ...       0.30 
freq.     297.64  E(vib)   ...       0.27 
freq.     521.04  E(vib)   ...       0.13 
freq.     875.54  E(vib)   ...       0.04 
freq.     959.01  E(vib)   ...       0.03 
freq.    1301.20  E(vib)   ...       0.01 
freq.    1402.57  E(vib)   ...       0.00 
freq.    1441.78  E(vib)   ...       0.00 
freq.    2535.29  E(vib)   ...       0.00 
freq.    3032.80  E(vib)   ...       0.00 
freq.    3039.60  E(vib)   ...       0.00 

------------
INNER ENERGY
------------

The inner energy is: U= E(el) + E(ZPE) + E(vib) + E(rot) + E(trans)
    E(el)   - is the total energy from the electronic structure calculation
              = E(kin-el) + E(nuc-el) + E(el-el) + E(nuc-nuc)
    E(ZPE)  - the the zero temperature vibrational energy from the frequency calculation
    E(vib)  - the the finite temperature correction to E(ZPE) due to population
              of excited vibrational states
    E(rot)  - is the rotational thermal energy
    E(trans)- is the translational thermal energy

Summary of contributions to the inner energy U:
Electronic energy                ...    -12.41618884 Eh
Zero point energy                ...      0.03586254 Eh      22.50 kcal/mol
Thermal vibrational correction   ...      0.00201341 Eh       1.26 kcal/mol
Thermal rotational correction    ...      0.00141627 Eh       0.89 kcal/mol
Thermal translational correction ...      0.00141627 Eh       0.89 kcal/mol
-----------------------------------------------------------------------
Total thermal energy                    -12.37548035 Eh


Summary of corrections to the electronic energy:
(perhaps to be used in another calculation)
Total thermal correction                  0.00484595 Eh       3.04 kcal/mol
Non-thermal (ZPE) correction              0.03586254 Eh      22.50 kcal/mol
-----------------------------------------------------------------------
Total correction                          0.04070849 Eh      25.54 kcal/mol


--------
ENTHALPY
--------

The enthalpy is H = U + kB*T
                kB is Boltzmann's constant
Total thermal energy              ...    -12.37548035 Eh 
Thermal Enthalpy correction       ...      0.00094421 Eh       0.59 kcal/mol
-----------------------------------------------------------------------
Total Enthalpy                    ...    -12.37453614 Eh


WARNING (ORCA/SYM): The number of Z matrix atoms does not agree with
the number of centers in the basis set. The point group will therefore
be determined without considering basis set information.


Note: Only C1 symmetry has been detected, increase convergence thresholds 
      if your molecule has a higher symmetry. Symmetry factor of 1.0 is   
      used for the rotational entropy correction. 
 

Note: Rotational entropy computed according to Herzberg 
Infrared and Raman Spectra, Chapter V,1, Van Nostrand Reinhold, 1945 
Point Group:  C1, Symmetry Number:   1  
Rotational constants in cm-1:     0.949461     0.047979     0.046067 

Vibrational entropy computed according to the QRRHO of S. Grimme
Chem.Eur.J. 2012 18 9955 using a reference frequency of 100.0 cm-1


-------
ENTROPY
-------

The entropy contributions are T*S = T*(S(el)+S(vib)+S(rot)+S(trans))
     S(el)   - electronic entropy
     S(vib)  - vibrational entropy
     S(rot)  - rotational entropy
     S(trans)- translational entropy
The entropies will be listed as multiplied by the temperature to get
units of energy

Electronic entropy                ...      0.00000000 Eh      0.00 kcal/mol
Vibrational entropy               ...      0.00350674 Eh      2.20 kcal/mol
Rotational entropy                ...      0.01242197 Eh      7.79 kcal/mol
Translational entropy             ...      0.01954513 Eh     12.26 kcal/mol
-----------------------------------------------------------------------
Final entropy term                ...      0.03547383 Eh     22.26 kcal/mol

In case the symmetry of your molecule has not been determined correctly
or in case you have a reason to use a different symmetry number we print 
out the resulting rotational entropy values for sn=1,12:

 non-linear molecules -----------------------------------
|  sn= 1 | S(rot)=       0.01242197 Eh      7.79 kcal/mol|
|  sn= 2 | S(rot)=       0.01176751 Eh      7.38 kcal/mol|
|  sn= 3 | S(rot)=       0.01138468 Eh      7.14 kcal/mol|
|  sn= 4 | S(rot)=       0.01111305 Eh      6.97 kcal/mol|
|  sn= 5 | S(rot)=       0.01090236 Eh      6.84 kcal/mol|
|  sn= 6 | S(rot)=       0.01073022 Eh      6.73 kcal/mol|
|  sn= 7 | S(rot)=       0.01058467 Eh      6.64 kcal/mol|
|  sn= 8 | S(rot)=       0.01045860 Eh      6.56 kcal/mol|
|  sn= 9 | S(rot)=       0.01034739 Eh      6.49 kcal/mol|
|  sn=10 | S(rot)=       0.01024791 Eh      6.43 kcal/mol|
|  sn=11 | S(rot)=       0.01015792 Eh      6.37 kcal/mol|
|  sn=12 | S(rot)=       0.01007576 Eh      6.32 kcal/mol|
 linear molecules ---------------------------------------
|  Dinfh | S(rot)=       0.00823168 Eh      5.17 kcal/mol|
|  Cinfv | S(rot)=       0.00888614 Eh      5.58 kcal/mol|
 --------------------------------------------------------


-------------------
GIBBS FREE ENERGY
-------------------

The Gibbs free energy is G = H - T*S

Total enthalpy                    ...    -12.37453614 Eh 
Total entropy correction          ...     -0.03547383 Eh    -22.26 kcal/mol
-----------------------------------------------------------------------
Final Gibbs free energy         ...    -12.41000997 Eh

For completeness - the Gibbs free energy minus the electronic energy
G-E(el)                           ...      0.00617887 Eh      3.88 kcal/mol


--------------------------------
SUGGESTED CITATIONS FOR THIS RUN
--------------------------------

Below you find a list of papers that are relevant to this ORCA run
We neither can nor want to force you to cite these papers, but we appreciate if you do
You receive ORCA, which is the product of decades of hard work by many enthusiastic individuals, for free
The only thing we kindly ask in return is that you cite our papers,
We deeply appreciate it, if you show your appreciation for ORCA by not just citing the generic ORCA reference.

Please note that relegating all ORCA citations to the supporting information does *not* help us.
SI sections are not indexed - citations you put there will not count into any citation statistics
But we need these citations in order to attract the funding resources that allow us to do what we are doing

Therefore, if you are a happy ORCA user, please consider citing a few of the papers listed below in the main body of your paper

In addition to the list printed below, the program has created the file reactant_optfreq.bibtex that contains the list in bibtex format
You can import this file easily into all common literature databanks and citation aid programs


List of essential papers. We consider these as the minimum necessary citations

  1. Bannwarth, C.; Ehlert, S.; Grimme, S.
     GFN2-xTB—An Accurate and Broadly Parametrized Self-Consistent Tight-Binding Quantum Chemical Method with Multipole Electrostatics and Density-Dependent Dispersion Contributions
     J. Chem. Theory Comput. 2019 15(3), 1652-1671
     doi.org/10.1021/acs.jctc.8b01176
  2. Neese, F.
     Software update: the ORCA program system, version 6.0
     WIRES Comput. Molec. Sci. 2025 15(1), e70019
     doi.org/10.1002/wcms.7019

List of papers to cite with high priority. The work reported in these papers was absolutely
necessary for this run to complete.
Our perspective: the developers of density functionals and basis sets usually get cited in chemistry papers
Good! But without the algorithms to do something with them, the functionals or basis sets would not do anything.
Hence, in our opinion, the algorithm design and method developments papers are equally worthy of getting cited

  1. Bykov, D.; Petrenko, T.; Izsak, R.; Kossmann, S.; Becker, U.; Valeev, E.; Neese, F.
     Efficient implementation of the analytic second derivatives of Hartree-Fock and hybrid DFT energies: a detailed analysis of different approximations
     Molec. Phys. 2015 113 , 1961-1977
     doi.org/10.1080/00268976.2015.1025114
  2. Bannwarth, C.; Caldeweyher, E.; Ehlert, S.; Hansen, A.; Pracht, P.; Seibert, J.; Spicher, S.; Grimme, S.
     Extended tight-binding quantum chemistry methods
     WIRES Comput. Molec. Sci. 2020 11(2), e1493
     doi.org/10.1002/wcms.1493

List of suggested additional citations. These are papers that are important in the 'surrounding' of 
of this run, or papers that preceded the highly important papers. If you like your results we are grateful for a citation.

  1. Neese, F.
     The ORCA program system
     WIRES Comput. Molec. Sci. 2012 2(1), 73-78
     doi.org/10.1002/wcms.81
  2. Neese, F.
     Software update: the ORCA program system, version 4.0
     WIRES Comput. Molec. Sci. 2018 8(1), 1-6
     doi.org/10.1002/wcms.1327
  3. Neese, F.; Wennmohs, F.; Becker, U.; Riplinger, C.
     The ORCA quantum chemistry program package
     J. Chem. Phys. 2020 152(22), 224108
     doi.org/10.1063/5.0004608
  4. Neese, F.
     Software update: The ORCA program system—Version 5.0
     WIRES Comput. Molec. Sci. 2022 12(1), e1606
     doi.org/10.1002/wcms.1606

List of optional additional citations

  1. Neese, F.
     Approximate second-order SCF convergence for spin unrestricted wavefunctions
     Chem. Phys. Lett. 2000 325(1-3), 93-98
     doi.org/10.1016/s0009-2614(00)00662-x

Timings for individual modules:

Sum of individual times          ...        1.143 sec (=   0.019 min)
Geometry relaxation              ...        0.013 sec (=   0.000 min)   1.1 %
XTB module                       ...        1.130 sec (=   0.019 min)  98.9 %
                             ****ORCA TERMINATED NORMALLY****
TOTAL RUN TIME: 0 days 0 hours 0 minutes 1 seconds 764 msec
