
                                 *****************
                                 * O   R   C   A *
                                 *****************

                                            #,                                       
                                            ###                                      
                                            ####                                     
                                            #####                                    
                                            ######                                   
                                           ########,                                 
                                     ,,################,,,,,                         
                               ,,#################################,,                 
                          ,,##########################################,,             
                       ,#########################################, ''#####,          
                    ,#############################################,,   '####,        
                  ,##################################################,,,,####,       
                ,###########''''           ''''###############################       
              ,#####''   ,,,,##########,,,,          '''####'''          '####       
            ,##' ,,,,###########################,,,                        '##       
           ' ,,###''''                  '''############,,,                           
         ,,##''                                '''############,,,,        ,,,,,,###''
      ,#''                                            '''#######################'''  
     '                                                          ''''####''''         
             ,#######,   #######,   ,#######,      ##                                
            ,#'     '#,  ##    ##  ,#'     '#,    #''#        ,####,    ,#,          
            ##       ##  ##   ,#'  ##            #'  '#       #'       ,# #          
            ##       ##  #######   ##           ,######,      #####,      #          
            '#,     ,#'  ##    ##  '#,     ,#' ,#      #,     #,   #      #          
             '#######'   ##     ##  '#######'  #'      '#     '####' #    #          



                #########################################################
                #                        -***-                          #
                #          Department of theory and spectroscopy        #
                #                                                       #
                #                      Frank Neese                      #
                #                                                       #
                #     Directorship, Architecture, Infrastructure        #
                #                    SHARK, DRIVERS                     #
                #        Core code/Algorithms in most modules           #
                #                                                       #
                #        Max Planck Institute fuer Kohlenforschung      #
                #                Kaiser Wilhelm Platz 1                 #
                #                 D-45470 Muelheim/Ruhr                 #
                #                      Germany                          #
                #                                                       #
                #                  All rights reserved                  #
                #                        -***-                          #
                #########################################################


                         Program Version 6.1.0  -  RELEASE   -
                                (GIT: $679e74b$)
                          ($2025-06-10 18:02:51 +0200$)


 With contributions from (in alphabetic order):
[Max-Planck-Institut fuer Kohlenforschung]                               
  Daniel Aravena         : Magnetic Suceptibility                        
  Michael Atanasov       : Ab Initio Ligand Field Theory (pilot matlab implementation)
  Alexander A. Auer      : GIAO ZORA, VPT2 properties, NMR spectrum      
  Ute Becker             : All parallelization in ORCA, NUMFREQ, NUMCALC 
  Giovanni Bistoni       : ED, misc. LED, open-shell LED, HFLD           
  Dmytro Bykov           : pre 5.0 version of the SCF Hessian            
  Marcos Casanova-Páez   : Triplet and SCS-CIS(D). UHF-(DLPNO)-IP/EA/STEOM-CCSD. UHF-CVS-IP/STEOM-CCSD   
  Vijay G. Chilkuri      : MRCI spin determinant printing, contributions to CSF-ICE 
  Pauline Colinet        : FMM embedding                                 
  Dipayan Datta          : RHF DLPNO-CCSD density                        
  Achintya Kumar Dutta   : EOM-CC, STEOM-CC                              
  Nicolas Foglia         : Exact transition moments, OPA infrastructure, MCD improvements    
  Dmitry Ganyushin       : Spin-Orbit,Spin-Spin,Magnetic field MRCI      
  Miquel Garcia-Rates    : C-PCM and meta-GGA Hessian, CCSD/C-PCM, Gaussian charge scheme 
  Tiago L. C. Gouveia    : GS-ROHF, GS-ROCIS                             
  Yang Guo               : DLPNO-NEVPT2, F12-NEVPT2, CIM, IAO-localization        
  Andreas Hansen         : Spin unrestricted coupled pair/coupled cluster methods 
  Ingolf Harden          : AUTO-CI MPn and infrastructure                
  Benjamin Helmich-Paris : MC-RPA, TRAH-(SCF,CASSCF), AVAS, COSX integrals, SCF dyn. polar., MC-PDFT, srDFT 
  Lee Huntington         : MR-EOM, pCC                                   
  Robert Izsak           : Overlap fitted RIJCOSX, COSX-SCS-MP3, EOM     
  Riya Kayal             : Wick's Theorem for AUTO-CI, AUTO-CI UHF-CCSDT 
  Emily Kempfer          : AUTO-CI RHF CISDT and CCSDT, approximate NEVPT4
  Christian Kollmar      : KDIIS, OOCD, Brueckner-CCSD(T), CCSD density, CASPT2, CASPT2-K, improved NEVPT2 
  Axel Koslowski         : Symmetry handling                             
  Simone Kossmann        : meta-GGA functionals, TD-DFT gradient, OOMP2, (MP2 Hessian; deprecated post 5.0) 
  Lucas Lang             : DCDCAS, Hyperfine gauge corrections, ICE-SOC+SSC
  Marvin Lechner         : AUTO-CI (C++ implementation), FIC-MRCC        
  Spencer Leger          : CASSCF response                               
  Dagmar Lenk            : GEPOL surface, SMD, ORCA-2-JSON               
  Dimitrios Liakos       : Extrapolation schemes; Compound Job, Property file
  Dimitrios Manganas     : Further ROCIS development; embedding schemes. LFT, Crystal Embedding 
  Dimitrios Pantazis     : SARC Basis sets                               
  Anastasios Papadopoulos: AUTO-CI, single reference methods and gradients 
  Taras Petrenko         : pre 6.0 DFT Hessian and TD-DFT gradient,  ECA, NRVS 
  Petra Pikulova         : Analytic Raman intensities                    
  Peter Pinski           : DLPNO-MP2, DLPNO-MP2 Gradient                 
  Shashank Vittal Rao    : ES-AILFT, MagRelax                            
  Christoph Reimann      : Effective Core Potentials                     
  Marius Retegan         : Local ZFS, SOC                                
  Christoph Riplinger    : Optimizer, TS searches, QM/MM, DLPNO-CCSD(T), (RO)-DLPNO pert. Triples 
  Michael Roemelt        : Original ROCIS implementation, recursive CI coupling coefficients
  Masaaki Saitow         : Open-shell DLPNO-CCSD energy and density      
  Barbara Sandhoefer     : DKH picture change effects                    
  Yorick L. A. Schmerwitz: GMF and freeze-and-release deltaSCF, NEB S-IDPP initial path                    
  Kantharuban Sivalingam : CASSCF convergence/infrastructure, NEVPT2, NEVPT3, NEVPT4(SD), FIC-MRCI and CEPA variants
  Bernardo de Souza      : ESD, SOC TD-DFT                               
  Georgi L. Stoychev     : AutoAux, RI-MP2 NMR, DLPNO-MP2 response, X2C  
  Van Anh Tran           : RI-MP2 g-tensors                              
  Willem Van den Heuvel  : Paramagnetic NMR                              
  Zikuan Wang            : NOTCH, Electric field optimization            
  Frank Wennmohs         : Technical directorship and infrastructure     
  Hang Xu                : AUTO-CI-Response properties                   
                                                                         
[FACCTs GmbH]                                                            
  Markus Bursch, Nicolas Foglia, Miquel Garcia-Rates, Ingolf Harden, Hagen Neugebauer, Anastasios Papadopoulos, 
  Christoph Riplinger, Bernardo de Souza, Georgi L. Stoychev                                                    
                                                                 
  APM, various basis sets, CI-OPT, improved COSX, DLPNO-Multilevel,           
  DOCKER, DRACO, updates on ESD, Fragmentator, GOAT, IRC, LR-CPCM, L-BFGS, MBIS, meta-GGA TD-DFT gradient, ML-optimized integration grids, 
  MM, NACMEs, nearIR, NEB, NEB-TS, NL-DFT gradient (VV10), 2- and 3-layer-ONIOM, interface openCOSMO-RS, QMMM,   
  Crystal-QMMM, RESP, rigid body optimization, SF, symmetry and pop. for TD-DFT, various functionals, SOLVATOR                                   
                                                                         
[Other institutions]                                                     
  V. Asgeirsson          : NEB                                           
  Christoph Bannwarth    : sTDA-DFT, sTD-DFT, PBEh-3c, B97-3c, D3        
  Giovanni Bistoni       : ETS/NOCV, ADLD/ADEX, COVALED                  
  Martin Brehm           : Molecular dynamics                            
  Ronald Cardenas        : ETS/NOCV                                      
  Martina Colucci        : COVALED                                       
  Sebastian Ehlert       : rSCAN, r2SCAN, r2SCAN-3c, D4, dhf basis sets  
  Marvin Friede          : D4 for Fr, Ra, Ac-Lr                          
  Lars Goerigk           : TD-DFT with DH, B97 family of functionals     
  Stefan Grimme          : VdW corrections, initial TS optimization, DFT functionals, gCP, sTDA/sTD-DF 
  Waldemar Hujo          : DFT-NL                                        
  H. Jonsson             : NEB                                           
  Holger Kruse           : gCP                                           
  Marcel Mueller         : wB97X-3c, vDZP basis set                      
  Hagen Neugebauer       : wr2SCAN, Native XTB                           
  Gianluca Regni         : ADLD/ADEX                                     
  Tobias Risthaus        : pre 6.0 range-separated hybrid DFT and stability analysis
  Lukas Wittmann         : regularized MP2, r2SCAN double-hybrids, wr2SCAN        
                                                                         
We gratefully acknowledge several colleagues who have allowed us to      
interface, adapt or use parts of their codes:                            
  Ed Valeev, F. Pavosevic, A. Kumar             : LibInt (2-el integral package), F12 methods 
  Garnet Chan, S. Sharma, J. Yang, R. Olivares  : DMRG                   
  Ulf Ekstrom                                   : XCFun DFT Library      
  Mihaly Kallay                                 : mrcc  (arbitrary order and MRCC methods)
  Frank Weinhold                                : gennbo (NPA and NBO analysis)           
  Simon Mueller                                 : openCOSMO-RS                            
  Christopher J. Cramer and Donald G. Truhlar   : smd solvation model                     
  S Lehtola, MJT Oliveira, MAL Marques          : LibXC Library                           
  Liviu Ungur et al                             : ANISO software                          


 Your calculation uses the libint2 library for the computation of 2-el integrals
 For citations please refer to: http://libint.valeyev.net

 Your ORCA version has been built with support for libXC version: 7.0.0
 For citations please refer to: https://libxc.gitlab.io

 This ORCA versions uses:
   CBLAS   interface :  Fast vector & matrix operations
   LAPACKE interface :  Fast linear algebra routines
   SCALAPACK package :  Parallel linear algebra routines
   Shared memory     :  Shared parallel matrices
   BLAS/LAPACK       :  OpenBLAS 0.3.29  USE64BITINT DYNAMIC_ARCH NO_AFFINITY SkylakeX SINGLE_THREADED
        Core in use  :  SkylakeX
   Copyright (c) 2011-2014, The OpenBLAS Project


  ***********************************
  * Starting time: Thu Mar 12 13:43:03 2026
  * Host name:     midway3-login4.rcc.local
  * Process ID:    3189101
  * Working dir.:  /home/rzhu16/orca_TS_search/sn2_i_cl/DFT_test
  ***********************************

Your calculation utilizes the geometrical counterpoise correction gCP
Please cite in your paper:
H.Kruse, S. Grimme J.Chem.Phys., 136, (2012), 154101 
   

Your calculation utilizes the atom-pairwise dispersion correction
based on EEQ partial charges (D4)


================================================================================

cite the ECPs for I  [Def2-ECP] as follows:
Ce-Yb(ecp-28): M. Dolg, H. Stoll, H.Preuss, J. Chem. Phys., 1989, 90, 1730-1734.
Y-Cd(ecp-28), Hf-Hg(ecp-46): D. Andrae,U. Haeussermann, M. Dolg, H. Stoll, H. Preuss, Theor. Chim. Acta, 1990, 77, 123-141.
In-Sb(ecp-28), Tl-Bi(ecp-46): B. Metz, H. Stoll, M. Dolg, J. Chem. Phys., 2000, 113, 2563-2569.
Te-Xe(ecp-28), Po-Rn(ecp-46): K. A. Peterson, D. Figgen, E. Goll, H. Stoll, M. Dolg, J. Chem. Phys., 2003, 119, 11113-11123.
Rb(ecp-28), Cs(ecp-46): T. Leininger, A. Nicklass, W. Kuechle, H. Stoll, M. Dolg, A. Bergner, Chem. Phys. Lett., 1996, 255, 274-280.
Sr(ecp-28), Ba(ecp-46): M. Kaupp, P. V. Schleyer, H. Stoll and H. Preuss, J. Chem. Phys., 1991, 94, 1360-1366.
La(ecp-46): M. Dolg, H. Stoll, A. Savin, H. Preuss, Theor. Chim. Acta, 1989, 75, 173-194.
Lu(ecp-28): X. Cao, M. Dolg, J. Chem. Phys., 2001, 115, 7348-7355.
Fr-Ra(ecp-78) K. Eichkorn, F. Weigend, O. Treutler, R. Ahlrichs, Theor. Chem. Acc. 1997, 97, 119.
Ac-Lr(ecp-60) K. Eichkorn, F. Weigend, O. Treutler, R. Ahlrichs, Theor. Chem. Acc. 1997, 97, 119.

ECP parameters for I  [Def2-ECP] have been obtained from:
TURBOMOLE (7.0.2)

----- Orbital basis set information -----
Your calculation utilizes the basis: def2-mTZVPP
   Stefan Grimme, Andreas Hansen, Sebastian Ehlert, and Jan-Michael Mewes 
   J. Chem. Phys. 154, 064103 (2021). DOI: 10.1063/5.0040021

----- AuxJ basis set information -----
Your calculation utilizes the basis: def2-mTZVPP/J
   Stefan Grimme, Andreas Hansen, Sebastian Ehlert, and Jan-Michael Mewes 
   J. Chem. Phys. 154, 000000 (2021). DOI: 10.1063/5.0040021

================================================================================
                                        WARNINGS
                       Please study these warnings very carefully!
================================================================================



WARNING: SCAN, rSCAN, or r2SCAN functional requested.
  ===> : libXC variant has now been activated.



WARNING: Geometry Optimization
  ===> : Switching off AutoStart
         For restart on a previous wavefunction, please use MOREAD

================================================================================
                                       INPUT FILE
================================================================================
NAME = product_optfreq.inp
|  1> ! r2SCAN-3c Opt Freq PAL8 TightSCF
|  2> 
|  3> %pal
|  4>    nprocs 8
|  5> end
|  6> 
|  7> %scf
|  8>    MaxIter 150
|  9> end
| 10> 
| 11> * xyz -1 1
| 12>   C       0.000157      0.000138      0.274775
| 13>   H       0.000068      1.026118     -0.055596
| 14>   H       0.888664     -0.512963     -0.055603
| 15>   H      -0.888592     -0.513001     -0.055635
| 16>   I       0.000057      0.000055      2.448267
| 17>   Cl     -0.000009     -0.000010     -2.494779
| 18> *
| 19> 
| 20>                          ****END OF INPUT****
================================================================================

                       *****************************
                       * Geometry Optimization Run *
                       *****************************

Geometry optimization settings:
Update method            Update   .... BFGS
Choice of coordinates    CoordSys .... (2022) Redundant Internals
Initial Hessian          InHess   .... Almloef's Model
Max. no of cycles        MaxIter  .... 50

Convergence Tolerances:
Energy Change            TolE     ....  5.0000e-06 Eh
Max. Gradient            TolMAXG  ....  3.0000e-04 Eh/bohr
RMS Gradient             TolRMSG  ....  1.0000e-04 Eh/bohr
Max. Displacement        TolMAXD  ....  4.0000e-03 bohr
RMS Displacement         TolRMSD  ....  2.0000e-03 bohr
Strict Convergence                .... False

------------------------------------------------------------------------------
                        ORCA OPTIMIZATION COORDINATE SETUP
------------------------------------------------------------------------------

The optimization will be done in redundant internal coordinates (2022)
Making redundant internal coordinates   ...  (2022 redundants) done
Evaluating the initial hessian          ...  (Almloef) done
Evaluating the coordinates              ...  done
Calculating the B-matrix                .... done
Calculating the G-matrix                .... done
The number of degrees of freedom        ....   17

    -----------------------------------------------------------------
                    Redundant Internal Coordinates


    -----------------------------------------------------------------
         Definition                    Initial Value    Approx d2E/dq
    -----------------------------------------------------------------
      1. B(H   1,C   0)                  1.0779         0.376525   
      2. B(H   2,C   0)                  1.0779         0.376469   
      3. B(H   3,C   0)                  1.0781         0.376154   
      4. B(I   4,C   0)                  2.1735         0.118092   
      5. B(Cl  5,H   2)                  2.6462         0.010000   
      6. B(Cl  5,H   1)                  2.6462         0.010000   
      7. B(Cl  5,H   3)                  2.6462         0.010000   
      8. B(Cl  5,C   0)                  2.7696         0.010000   
      9. A(H   1,C   0,H   3)          111.0415         0.294910   
     10. A(H   2,C   0,H   3)          111.0393         0.294903   
     11. A(H   1,C   0,I   4)          107.8510         0.287725   
     12. A(H   2,C   0,I   4)          107.8497         0.287718   
     13. A(H   3,C   0,I   4)          107.8431         0.287680   
     14. A(H   1,C   0,Cl  5)           72.1542         0.196703   
     15. A(H   2,C   0,Cl  5)           72.1529         0.196700   
     16. A(H   3,C   0,Cl  5)           72.1491         0.196679   
     17. A(H   1,C   0,H   2)          111.0530         0.294949   
    -----------------------------------------------------------------

Number of atoms                         .... 6
Number of degrees of freedom            .... 17


         *************************************************************
         *                GEOMETRY OPTIMIZATION CYCLE   1            *
         *************************************************************
---------------------------------
CARTESIAN COORDINATES (ANGSTROEM)
---------------------------------
  C      0.000157    0.000138    0.274775
  H      0.000068    1.026118   -0.055596
  H      0.888664   -0.512963   -0.055603
  H     -0.888592   -0.513001   -0.055635
  I      0.000057    0.000055    2.448267
  Cl    -0.000009   -0.000010   -2.494779

----------------------------
CARTESIAN COORDINATES (A.U.)
----------------------------
  NO LB      ZA    FRAG     MASS         X           Y           Z
   0 C     6.0000    0    12.011    0.000297    0.000261    0.519249
   1 H     1.0000    0     1.008    0.000129    1.939082   -0.105061
   2 H     1.0000    0     1.008    1.679332   -0.969360   -0.105074
   3 H     1.0000    0     1.008   -1.679196   -0.969431   -0.105135
   4 I    25.0000*   0   126.900    0.000108    0.000104    4.626554
   5 Cl   17.0000    0    35.453   -0.000017   -0.000019   -4.714449
* core charge reduced due to ECP

--------------------------------
INTERNAL COORDINATES (ANGSTROEM)
--------------------------------
 C      0   0   0     0.000000000000     0.00000000     0.00000000
 H      1   0   0     1.077858973132     0.00000000     0.00000000
 H      1   2   0     1.077899321891   111.05298343     0.00000000
 H      1   2   3     1.078126702397   111.04147704   235.92703783
 I      1   2   3     2.173492003885   107.85102147   117.97083780
 Cl     4   1   2     2.646160041779    85.03227309    62.04055370

---------------------------
INTERNAL COORDINATES (A.U.)
---------------------------
 C      0   0   0     0.000000000000     0.00000000     0.00000000
 H      1   0   0     2.036858270210     0.00000000     0.00000000
 H      1   2   0     2.036934518314   111.05298343     0.00000000
 H      1   2   3     2.037364205198   111.04147704   235.92703783
 I      1   2   3     4.107304641611   107.85102147   117.97083780
 Cl     4   1   2     5.000517785487    85.03227309    62.04055370

---------------------
BASIS SET INFORMATION
---------------------
There are 4 groups of distinct atoms

 Group   1 Type C   : 11s6p1d contracted to 5s3p1d pattern {62111/411/1}
 Group   2 Type H   : 4s1p contracted to 2s1p pattern {31/1}
 Group   3 Type I   : 11s10p8d contracted to 6s5p3d pattern {521111/34111/611}
 Group   4 Type Cl  : 14s9p2d contracted to 5s4p2d pattern {73211/6111/11}

Atom   0C    basis set group =>   1
Atom   1H    basis set group =>   2
Atom   2H    basis set group =>   2
Atom   3H    basis set group =>   2
Atom   4I    basis set group =>   3
Atom   5Cl   basis set group =>   4
---------------------------------
AUXILIARY/J BASIS SET INFORMATION
---------------------------------
There are 4 groups of distinct atoms

 Group   1 Type C   : 8s3p3d contracted to 6s3p3d pattern {311111/111/111}
 Group   2 Type H   : 5s2p1d contracted to 3s1p1d pattern {311/2/1}
 Group   3 Type I   : 11s5p5d3f1g contracted to 8s4p3d2f1g pattern {41111111/2111/311/21/1}
 Group   4 Type Cl  : 14s5p5d2f contracted to 8s4p3d1f pattern {71111111/2111/311/2}

Atom   0C    basis set group =>   1
Atom   1H    basis set group =>   2
Atom   2H    basis set group =>   2
Atom   3H    basis set group =>   2
Atom   4I    basis set group =>   3
Atom   5Cl   basis set group =>   4
-------------------------
ECP PARAMETER INFORMATION
-------------------------

 Group 1, Type I  ECP Def2-ECP (replacing 28 core electrons, lmax=3)

Atom   4I    ECP group =>   1



           ************************************************************
           *        Program running with 8 parallel MPI-processes     *
           *              working on a common directory               *
           ************************************************************
------------------------------------------------------------------------------
                             ORCA STARTUP CALCULATIONS
                           -- RI-GTO INTEGRALS CHOSEN --
------------------------------------------------------------------------------
------------------------------------------------------------------------------
                   ___                                                        
                  /   \      - P O W E R E D   B Y -                         
                 /     \                                                     
                 |  |  |   _    _      __       _____    __    __             
                 |  |  |  | |  | |    /  \     |  _  \  |  |  /  |          
                  \  \/   | |  | |   /    \    | | | |  |  | /  /          
                 / \  \   | |__| |  /  /\  \   | |_| |  |  |/  /          
                |  |  |   |  __  | /  /__\  \  |    /   |      \           
                |  |  |   | |  | | |   __   |  |    \   |  |\   \          
                \     /   | |  | | |  |  |  |  | |\  \  |  | \   \       
                 \___/    |_|  |_| |__|  |__|  |_| \__\ |__|  \__/        
                                                                              
                      - O R C A' S   B I G   F R I E N D -                    
                                      &                                       
                       - I N T E G R A L  F E E D E R -                       
                                                                              
 v1 FN, 2020, v2 2021, v3 2022-2024                                           
------------------------------------------------------------------------------


----------------------
SHARK INTEGRAL PACKAGE
----------------------

Number of atoms                             ...      6
Number of basis functions                   ...     97
Number of shells                            ...     43
Maximum angular momentum                    ...      2
Integral batch strategy                     ... SHARK/LIBINT Hybrid
RI-J (if used) integral strategy            ... SPLIT-RIJ (Revised 2003 algorithm where possible)
Printlevel                                  ...      1
Contraction scheme used                     ... SEGMENTED contraction
Prescreening option                         ... SCHWARTZ
   Thresh                                   ... 2.500e-11
   Tcut                                     ... 2.500e-12
   Tpresel                                  ... 2.500e-12 
Coulomb Range Separation                    ... NOT USED
Exchange Range Separation                   ... NOT USED
Multipole approximations                    ... NOT USED
Finite Nucleus Model                        ... NOT USED
CABS basis                                  ... NOT available
Auxiliary Coulomb fitting basis             ... AVAILABLE
   # of basis functions in Aux-J            ...    163
   # of shells in Aux-J                     ...     61
   Maximum angular momentum in Aux-J        ...      4
Auxiliary J/K fitting basis                 ... NOT available
Auxiliary Correlation fitting basis         ... NOT available
Auxiliary 'external' fitting basis          ... NOT available

Checking pre-screening integrals            ... done (  0.0 sec) Dimension = 43
   => SHARK Basis and OBASIS are compatible. Storing Pre-screening
Shell pair information
Shell pair cut-off parameter TPreSel        ...   2.5e-12
Total number of shell pairs                 ...       946
Shell pairs after pre-screening             ...       868
Total number of primitive shell pairs       ...      3934
Primitive shell pairs kept                  ...      2760
          la=0 lb=0:    224 shell pairs
          la=1 lb=0:    304 shell pairs
          la=1 lb=1:    114 shell pairs
          la=2 lb=0:    121 shell pairs
          la=2 lb=1:     85 shell pairs
          la=2 lb=2:     20 shell pairs

Checking whether 4 symmetric matrices of dimension 97 fit in memory
:Max Core in MB      =   4096.00
 MB in use           =      4.43
 MB left             =   4091.57
 MB needed           =      0.15
 Data fit in memory  = YES
Calculating RI/J V-Matrix + Cholesky decomp.... done (  0.0 sec)
Calculating Nuclear repulsion               ... done (  0.0 sec) ENN=    136.103010947117 Eh

Diagonalization of the overlap matrix:
Smallest eigenvalue                        ... 3.939e-03
Time for diagonalization                   ...    0.001 sec
Threshold for overlap eigenvalues          ... 1.000e-07
Number of eigenvalues below threshold      ... 0
Time for construction of square roots      ...    0.001 sec
Total time needed                          ...    0.002 sec

-------------------
DFT GRID GENERATION
-------------------

General Integration Accuracy     IntAcc      ... 4.388
Radial Grid Type                 RadialGrid  ... OptM3 with GC (2021)
Angular Grid (max. ang.)         AngularGrid ... 4 (Lebedev-302)
Angular grid pruning method      GridPruning ... 4 (adaptive)
Weight generation scheme         WeightScheme... mBecke (2022)
Basis function cutoff            BFCut       ... 1.0000e-11
Integration weight cutoff        WCut        ... 1.0000e-14
Partially contracted basis set               ... off
Rotationally invariant grid construction     ... off
Angular grids for H and He will be reduced by one unit

Total number of grid points                  ...    34825
Total number of batches                      ...      547
Average number of points per batch           ...       63
Average number of grid points per atom       ...     5804
Grids setup in   1.2 sec
Initializing property integral containers    ... done (  0.0 sec)

SHARK setup successfully completed in   1.7 seconds

Maximum memory used throughout the entire STARTUP-calculation: 12.7 MB


           ************************************************************
           *        Program running with 8 parallel MPI-processes     *
           *              working on a common directory               *
           ************************************************************
-------------------------------------------------------------------------------
                                 ORCA GUESS
                   Start orbitals & Density for SCF / CASSCF
-------------------------------------------------------------------------------

------------
SCF SETTINGS
------------
Hamiltonian:
 Density Functional     Method          .... DFT(GTOs)
  Functional kind                       .... Exchange
  Functional name                       .... Re-regularized SCAN exchange by Furness et al
  Functional family                     .... MGGA
  Functional refs                              
    [ 0] J. W. Furness, A. D. Kaplan, J. Ning, J. P. Perdew, and J. Sun.,  J. Phys. Chem. Lett. 11, 8208-8215 (2020), doi: 10.1021/acs.jpclett.0c02405
    [ 1] J. W. Furness, A. D. Kaplan, J. Ning, J. P. Perdew, and J. Sun.,  J. Phys. Chem. Lett. 11, 9248-9248 (2020), doi: 10.1021/acs.jpclett.0c03077
  Functional external parameters        .... 6
    Parameter  0 _c1        =  6.670000e-01 : c1 parameter        
    Parameter  1 _c2        =  8.000000e-01 : c2 parameter        
    Parameter  2 _d         =  1.240000e+00 : d parameter         
    Parameter  3 _k1        =  6.500000e-02 : k1 parameter        
    Parameter  4 _eta       =  1.000000e-03 : eta parameter       
    Parameter  5 _dp2       =  3.610000e-01 : dp2 parameter       
  Functional kind                       .... Correlation
  Functional name                       .... Re-regularized SCAN correlation by Furness et al
  Functional family                     .... MGGA
  Functional refs                              
    [ 0] J. W. Furness, A. D. Kaplan, J. Ning, J. P. Perdew, and J. Sun.,  J. Phys. Chem. Lett. 11, 8208-8215 (2020), doi: 10.1021/acs.jpclett.0c02405
    [ 1] J. W. Furness, A. D. Kaplan, J. Ning, J. P. Perdew, and J. Sun.,  J. Phys. Chem. Lett. 11, 9248-9248 (2020), doi: 10.1021/acs.jpclett.0c03077
  Functional external parameters        .... 1
    Parameter  0 _eta       =  1.000000e-03 : Regularization parameter
 Gradients option       PostSCFGGA      .... off
 RI-approximation to the Coulomb term is turned on
   Number of AuxJ basis functions       .... 163


General Settings:
 Integral files         IntName         .... product_optfreq
 Hartree-Fock type      HFTyp           .... RHF
 Total Charge           Charge          ....   -1
 Multiplicity           Mult            ....    1
 Number of Electrons    NEL             ....   52
 Basis Dimension        Dim             ....   97
 Nuclear Repulsion      ENuc            ....    136.1030109471 Eh

Convergence Acceleration:
 AO-DIIS                CNVDIIS         .... on
   Start iteration      DIISMaxIt       ....    12
   Startup error        DIISStart       ....  0.200000
   # of expansion vecs  DIISMaxEq       ....     5
   Bias factor          DIISBfac        ....   1.050
   Max. coefficient     DIISMaxC        ....  10.000
 MO-DIIS                CNVKDIIS        .... off
 Trust-Rad. Augm. Hess. CNVTRAH         .... auto
   Auto Start mean grad. ratio tolernc. ....  1.125000
   Auto Start start iteration           ....    50
   Auto Start num. interpolation iter.  ....    10
   Max. Number of Micro iterations      ....    24
   Max. Number of Macro iterations      .... Maxiter - #DIIS iter
   Number of Davidson start vectors     ....     2
   Converg. threshold    (grad. norm)   ....   1.000e-05
   Grad. Scal. Fac. for Micro threshold ....   0.100
   Minimum threshold for Micro iter.    ....   1.000e-02
   NR start threshold (gradient norm)   ....   1.000e-04
   Initial trust radius                 ....   0.400
   Minimum AH scaling param. (alpha)    ....   1.000
   Maximum AH scaling param. (alpha)    .... 1000.000
   Quad. conv. algorithm                .... NR
   White noise on init. David. guess    .... on
   Maximum white noise                  ....   0.010
   Pseudo random numbers                .... off
   Inactive MOs                         .... canonical
   Orbital update algorithm             .... Taylor
   Preconditioner                       .... Diag
   Full preconditioner red. dimension   ....   250
   COSX micro iterations for RIJONX calc.... off
 SOSCF                 CNVSOSCF           .... on
   Start iteration     SOSCFMaxIt         ....   150
   Startup grad/error  SOSCFStart         ....  0.003300
   Hessian update      SOSCFHessUp        .... L-BFGS
   Autom. constraints  SOSCFAutoConstrain .... off
 Level Shifting         CNVShift        .... on
   Level shift para.    LevelShift      ....    0.2500
   Turn off err/grad.   ShiftErr        ....    0.0010
 Zerner damping         CNVZerner       .... off
 Static damping         CNVDamp         .... on
   Fraction old density DampFac         ....    0.7000
   Max. Damping (<1)    DampMax         ....    0.9800
   Min. Damping (>=0)   DampMin         ....    0.0000
   Turn off err/grad.   DampErr         ....    0.1000

SCF Procedure:
 Maximum # iterations   MaxIter         ....   150
 SCF integral mode      SCFMode         .... Direct
   Integral package                     .... SHARK and LIBINT hybrid scheme
 Reset frequency        DirectResetFreq ....    20
 Integral Threshold     Thresh          ....  2.500e-11 Eh
 Primitive CutOff       TCut            ....  2.500e-12 Eh

Convergence Tolerance:
 Convergence Check Mode ConvCheckMode   .... Total+1el-Energy
 Convergence forced     ConvForced      .... 0
 Energy Change          TolE            ....  1.000e-08 Eh
 1-El. energy change                    ....  1.000e-05 Eh
 Orbital Gradient       TolG            ....  1.000e-05
 Orbital Rotation angle TolX            ....  1.000e-05
 DIIS Error             TolErr          ....  5.000e-07

------------------------------
INITIAL GUESS: MODEL POTENTIAL
------------------------------
Loading Hartree-Fock densities                     ... done
Atomic calculation to generate a density for atom 4 (I  with ECP)
  Multiplicity assumed   :    2
  Atomic configuration   : 1s2 2s2 2p6 3s2 3p6 4s2 3d10 4p6 5s2 4d10 5p5 
  Number of open shells  : 1
  Command: /software/orca-6.1.0-el8-x86_64/bin/orca product_optfreq_atom53.inp "" > product_optfreq_atom53.out
Returned from the atomic calculation with res=0
Calculating cut-offs                               ... done
Initializing the effective Hamiltonian             ... done
Setting up the integral package (SHARK)            ... done
Starting the Coulomb interaction                   ... done (   0.0 sec)
Making the grid                                    ... done (   0.3 sec)
Mapping shells                                     ... done
Starting the XC term evaluation                    ... done (   0.0 sec)
  promolecular density results
     # of electrons  =     78.997620251
     EX              =   -206.452499653
     EC              =     -3.797510729
     EX+EC           =   -210.250010383
Transforming the Hamiltonian                       ... done (   0.0 sec)
Diagonalizing the Hamiltonian                      ... done (   0.1 sec)
Back transforming the eigenvectors                 ... done (   0.0 sec)
Now organizing SCF variables                       ... done
                      ------------------
                      INITIAL GUESS DONE (   5.9 sec)
                      ------------------
             **** ENERGY FILE WAS UPDATED (product_optfreq.en.tmp) ****
Finished Guess after   6.3 sec
Maximum memory used throughout the entire GUESS-calculation: 7.2 MB


           ************************************************************
           *        Program running with 8 parallel MPI-processes     *
           *              working on a common directory               *
           ************************************************************

-------------------------------------------------------------------------------------------
                                      ORCA LEAN-SCF
                              memory conserving SCF solver
-------------------------------------------------------------------------------------------

----------------------------------------D-I-I-S--------------------------------------------
Iteration    Energy (Eh)           Delta-E    RMSDP     MaxDP     DIISErr   Damp  Time(sec)
-------------------------------------------------------------------------------------------
               ***  Starting incremental Fock matrix formation  ***
    1    -797.7169313732927094     0.00e+00  1.33e-02  1.02e-01  6.02e-01  0.700   0.4
Warning: op=0 Small HOMO/LUMO gap (   0.069) - skipping pre-diagonalization
         Will do a full diagonalization
    2    -797.7946909621196028    -7.78e-02  1.13e-02  6.12e-02  4.09e-01  0.700   0.2
    3    -797.8293109211263072    -3.46e-02  6.45e-03  4.03e-02  2.78e-01  0.700   0.3
                               ***Turning on AO-DIIS***
    4    -797.8476978587298163    -1.84e-02  2.93e-03  2.27e-02  1.90e-01  0.700   0.4
    5    -797.8608723177962929    -1.32e-02  1.62e-03  1.05e-02  1.33e-01  0.700   0.5
    6    -797.8701777517894698    -9.31e-03  1.01e-03  7.10e-03  9.39e-02  0.700   0.5
    7    -797.8768903287023022    -6.71e-03  2.67e-03  1.70e-02  6.62e-02  0.000   0.4
    8    -797.8926081705421893    -1.57e-02  5.95e-04  3.69e-03  5.00e-03  0.000   0.3
                              *** Initializing SOSCF ***
---------------------------------------S-O-S-C-F--------------------------------------
Iteration    Energy (Eh)           Delta-E    RMSDP     MaxDP     MaxGrad    Time(sec)
--------------------------------------------------------------------------------------
    9    -797.8926679795142718    -5.98e-05  1.97e-04  2.24e-03  1.60e-03     0.2
               *** Restarting incremental Fock matrix formation ***
   10    -797.8926746722165717    -6.69e-06  1.42e-04  1.31e-03  2.49e-04     0.2
   11    -797.8926735056752477     1.17e-06  9.60e-05  5.90e-04  4.87e-04     0.4
   12    -797.8926754683591298    -1.96e-06  2.93e-05  2.68e-04  4.66e-05     0.3
   13    -797.8926754599076503     8.45e-09  1.62e-05  1.42e-04  5.05e-05     0.2
                 **** Energy Check signals convergence ****

               *****************************************************
               *                     SUCCESS                       *
               *           SCF CONVERGED AFTER  13 CYCLES          *
               *****************************************************

             **** ENERGY FILE WAS UPDATED (product_optfreq.en.tmp) ****

----------------
TOTAL SCF ENERGY
----------------

Total Energy       :       -797.89267549734677 Eh          -21711.76351 eV

Components:
Nuclear Repulsion  :        136.10301094711673 Eh            3703.55121 eV
Electronic Energy  :       -933.99568644446344 Eh          -25415.31472 eV
One Electron Energy:      -1487.68500336603552 Eh          -40481.96701 eV
Two Electron Energy:        553.68931692157207 Eh           15066.65229 eV

Virial components:
Potential Energy   :      -1408.98085006007432 Eh          -38340.31811 eV
Kinetic Energy     :        611.08817456272754 Eh           16628.55461 eV
Virial Ratio       :          2.30569156581747

DFT components:
N(Alpha)           :       26.000007595349 electrons
N(Beta)            :       26.000007595349 electrons
N(Total)           :       52.000015190699 electrons
E(X)               :      -55.278130735277 Eh       
E(C)               :       -2.010965733632 Eh       
E(XC)              :      -57.289096468908 Eh       

---------------
SCF CONVERGENCE
---------------

  Last Energy change         ...   -8.4515e-09  Tolerance :   1.0000e-08
  Last MAX-Density change    ...    1.4200e-04  Tolerance :   1.0000e-07
  Last RMS-Density change    ...    1.6219e-05  Tolerance :   5.0000e-09
  Last DIIS Error            ...    1.5953e-03  Tolerance :   5.0000e-07
  Last Orbital Gradient      ...    5.0541e-05  Tolerance :   1.0000e-05
  Last Orbital Rotation      ...    7.0555e-05  Tolerance :   1.0000e-05


----------------
ORBITAL ENERGIES
----------------

  NO   OCC          E(Eh)            E(eV) 
   0   2.0000    -100.912433     -2745.9669 
   1   2.0000      -9.917116      -269.8584 
   2   2.0000      -9.068849      -246.7759 
   3   2.0000      -6.809275      -185.2898 
   4   2.0000      -6.807894      -185.2522 
   5   2.0000      -6.807894      -185.2522 
   6   2.0000      -6.666531      -181.4055 
   7   2.0000      -4.681903      -127.4011 
   8   2.0000      -4.670447      -127.0893 
   9   2.0000      -4.670447      -127.0893 
  10   2.0000      -1.717920       -46.7470 
  11   2.0000      -1.715216       -46.6734 
  12   2.0000      -1.715215       -46.6734 
  13   2.0000      -1.705388       -46.4060 
  14   2.0000      -1.705387       -46.4059 
  15   2.0000      -0.566018       -15.4021 
  16   2.0000      -0.476605       -12.9691 
  17   2.0000      -0.452228       -12.3058 
  18   2.0000      -0.247800        -6.7430 
  19   2.0000      -0.247742        -6.7414 
  20   2.0000      -0.189088        -5.1453 
  21   2.0000      -0.100853        -2.7443 
  22   2.0000      -0.100847        -2.7442 
  23   2.0000      -0.025887        -0.7044 
  24   2.0000      -0.024445        -0.6652 
  25   2.0000      -0.024444        -0.6652 
  26   0.0000       0.096378         2.6226 
  27   0.0000       0.244417         6.6509 
  28   0.0000       0.280833         7.6418 
  29   0.0000       0.280869         7.6428 
  30   0.0000       0.287892         7.8339 
  31   0.0000       0.312838         8.5128 
  32   0.0000       0.312849         8.5130 
  33   0.0000       0.344919         9.3857 
  34   0.0000       0.344927         9.3859 
  35   0.0000       0.374594        10.1932 
  36   0.0000       0.374627        10.1941 
*Only the first 10 virtual orbitals were printed.

                    ********************************
                    * MULLIKEN POPULATION ANALYSIS *
                    ********************************

-----------------------
MULLIKEN ATOMIC CHARGES
-----------------------
   0 C :   -0.387724
   1 H :    0.197530
   2 H :    0.197552
   3 H :    0.197545
   4 I :   -0.376831
   5 Cl:   -0.828073
Sum of atomic charges:   -1.0000000

--------------------------------
MULLIKEN REDUCED ORBITAL CHARGES
--------------------------------
  0 C s       :     3.309379  s :     3.309379
      pz      :     0.785617  p :     3.055830
      px      :     1.135110
      py      :     1.135104
      dz2     :     0.008017  d :     0.022515
      dxz     :     0.002998
      dyz     :     0.002998
      dx2y2   :     0.004250
      dxy     :     0.004251

  1 H s       :     0.783019  s :     0.783019
      pz      :     0.005249  p :     0.019450
      px      :     0.003575
      py      :     0.010626

  2 H s       :     0.783000  s :     0.783000
      pz      :     0.005249  p :     0.019448
      px      :     0.008861
      py      :     0.005338

  3 H s       :     0.783016  s :     0.783016
      pz      :     0.005246  p :     0.019439
      px      :     0.008858
      py      :     0.005334

  4 I s       :     3.977066  s :     3.977066
      pz      :     3.345178  p :    11.347056
      px      :     4.000939
      py      :     4.000939
      dz2     :     2.020455  d :    10.052710
      dxz     :     2.015920
      dyz     :     2.015915
      dx2y2   :     2.000210
      dxy     :     2.000210

  5 Cls       :     5.972069  s :     5.972069
      pz      :     3.869941  p :    11.853277
      px      :     3.991667
      py      :     3.991669
      dz2     :     0.001496  d :     0.002727
      dxz     :     0.000607
      dyz     :     0.000607
      dx2y2   :     0.000009
      dxy     :     0.000009



                     *******************************
                     * LOEWDIN POPULATION ANALYSIS *
                     *******************************

----------------------
LOEWDIN ATOMIC CHARGES
----------------------
   0 C :   -0.574495
   1 H :    0.167419
   2 H :    0.167433
   3 H :    0.167480
   4 I :   -0.147214
   5 Cl:   -0.780623

-------------------------------
LOEWDIN REDUCED ORBITAL CHARGES
-------------------------------
  0 C s       :     3.095862  s :     3.095862
      pz      :     1.015132  p :     3.426022
      px      :     1.205442
      py      :     1.205448
      dz2     :     0.017644  d :     0.052611
      dxz     :     0.007055
      dyz     :     0.007057
      dx2y2   :     0.010427
      dxy     :     0.010428

  1 H s       :     0.784172  s :     0.784172
      pz      :     0.011604  p :     0.048409
      px      :     0.008395
      py      :     0.028411

  2 H s       :     0.784162  s :     0.784162
      pz      :     0.011602  p :     0.048405
      px      :     0.023404
      py      :     0.013399

  3 H s       :     0.784142  s :     0.784142
      pz      :     0.011596  p :     0.048378
      px      :     0.023395
      py      :     0.013388

  4 I s       :     3.770991  s :     3.770991
      pz      :     3.313909  p :    11.256558
      px      :     3.971325
      py      :     3.971324
      dz2     :     2.064613  d :    10.119665
      dxz     :     2.027263
      dyz     :     2.027257
      dx2y2   :     2.000266
      dxy     :     2.000266

  5 Cls       :     5.948081  s :     5.948081
      pz      :     3.846129  p :    11.825396
      px      :     3.989633
      py      :     3.989634
      dz2     :     0.003846  d :     0.007147
      dxz     :     0.001621
      dyz     :     0.001620
      dx2y2   :     0.000030
      dxy     :     0.000030



                      *****************************
                      * MAYER POPULATION ANALYSIS *
                      *****************************

  NA   - Mulliken gross atomic population
  ZA   - Total nuclear charge
  QA   - Mulliken gross atomic charge
  VA   - Mayer's total valence
  BVA  - Mayer's bonded valence
  FA   - Mayer's free valence

  ATOM       NA         ZA         QA         VA         BVA        FA
  0 C      6.3877     6.0000    -0.3877     3.7812     3.7812     0.0000
  1 H      0.8025     1.0000     0.1975     0.9455     0.9455    -0.0000
  2 H      0.8024     1.0000     0.1976     0.9455     0.9455     0.0000
  3 H      0.8025     1.0000     0.1975     0.9455     0.9455    -0.0000
  4 I     25.3768    25.0000    -0.3768     0.8737     0.8737     0.0000
  5 Cl    17.8281    17.0000    -0.8281     0.3032     0.3032     0.0000

  Mayer bond orders larger than 0.100000
B(  0-C ,  1-H ) :   0.9448 B(  0-C ,  2-H ) :   0.9448 B(  0-C ,  3-H ) :   0.9448 
B(  0-C ,  4-I ) :   0.7509 B(  0-C ,  5-Cl) :   0.1959 B(  4-I ,  5-Cl) :   0.1088 


-------
TIMINGS
-------

Total SCF time: 0 days 0 hours 0 min 4 sec 

Total time                  ....       4.846 sec
Sum of individual times     ....       4.543 sec  ( 93.7%)

SCF preparation             ....       0.221 sec  (  4.6%)
Fock matrix formation       ....       3.394 sec  ( 70.0%)
  Startup                   ....       0.009 sec  (  0.3% of F)
  Split-RI-J                ....       0.598 sec  ( 17.6% of F)
  XC integration            ....       2.560 sec  ( 75.4% of F)
    Basis function eval.    ....       0.215 sec  (  8.4% of XC)
    Density eval.           ....       0.756 sec  ( 29.5% of XC)
    XC-Functional eval.     ....       0.299 sec  ( 11.7% of XC)
    XC-Potential eval.      ....       0.502 sec  ( 19.6% of XC)
Diagonalization             ....       0.000 sec  (  0.0%)
Density matrix formation    ....       0.058 sec  (  1.2%)
Total Energy calculation    ....       0.122 sec  (  2.5%)
Population analysis         ....       0.023 sec  (  0.5%)
Orbital Transformation      ....       0.091 sec  (  1.9%)
Orbital Orthonormalization  ....       0.000 sec  (  0.0%)
DIIS solution               ....       0.582 sec  ( 12.0%)
SOSCF solution              ....       0.052 sec  (  1.1%)
Finished LeanSCF after   5.0 sec

Maximum memory used throughout the entire LEANSCF-calculation: 6.7 MB


           ************************************************************
           *        Program running with 8 parallel MPI-processes     *
           *              working on a common directory               *
           ************************************************************

------------------------------------------------------------------------------
                         ORCA PROPERTY INTEGRAL CALCULATIONS
------------------------------------------------------------------------------

GBWName                                   ... product_optfreq.gbw
Number of atoms                           ...      6
Number of basis functions                 ...     97
Max core memory                           ...   4096 MB

Dipole integrals                          ... YES
Quadrupole integrals                      ...  NO
Linear momentum integrals                 ...  NO
Angular momentum integrals                ...  NO
Higher moments length integrals           ...  NO
Higher moments velocity integrals         ...  NO
Kinetic energy integrals                  ...  NO
GIAO right hand sides                     ...  NO
GIAO dipole derivative integrals          ...  NO
SOC integrals                             ...  NO
EPR diamagnetic integrals (GIAO)          ...  NO
EPR gauge integrals                       ...  NO
Field gradient integrals                  ...  NO (   0 nuclei)
Spin-dipole/Fermi contact integrals       ...  NO (   0 nuclei)
Contact density integrals                 ...  NO (   0 nuclei)
Nucleus-orbit integrals                   ...  NO (   0 nuclei)
Geometric perturbations                   ...  NO (   6 nuclei)

Choice of electric origin   ... Center of mass
Position of electric origin ... (  0.0001,  0.0001,  2.4009) 
Choice of magnetic origin   ... GIAO
Position of magnetic origin ... (  0.0000,  0.0000,  0.0000) 

Calculating integrals                     ... Electric Dipole (Length)     done (  0.0 sec)

Property integrals calculated in   0.0 sec

Maximum memory used throughout the entire PROPINT-calculation: 7.0 MB


-------------------------------------------------------------------------------
                          DFT DISPERSION CORRECTION                            
                                                                               
                                DFTD4 V3.4.0                                   
-------------------------------------------------------------------------------
The R2SCAN3C composite method is recognized
Using three-body term ABC
Active option DFTDOPT                   ...         5   

-------------------------   ----------------
Dispersion correction           -0.001235329
-------------------------   ----------------

------------------   -----------------
gCP correction             0.003623329
------------------   -----------------

-------------------------   --------------------
FINAL SINGLE POINT ENERGY      -797.890287497657
-------------------------   --------------------



           ************************************************************
           *        Program running with 8 parallel MPI-processes     *
           *              working on a common directory               *
           ************************************************************
------------------------------------------------------------------------------
                         ORCA SCF GRADIENT CALCULATION
------------------------------------------------------------------------------

Nuc. rep. gradient        (SHARK) ... done (  0.0 sec)
HCore & Overlap gradient  (SHARK) ... done (  0.0 sec)
ECP gradient              (SHARK) ... done (  0.2 sec)
Split-RIJ-J gradient      (SHARK) ... done (  1.3 sec)
XC gradient                       ... done (  0.4 sec)
Dispersion correction             ... done (  0.1 sec)

-------------------
DISPERSION GRADIENT
-------------------

   1   C   :   -0.000000005   -0.000000004    0.000002657
   2   H   :    0.000000001    0.000001163    0.000002044
   3   H   :    0.000001007   -0.000000580    0.000002044
   4   H   :   -0.000001001   -0.000000578    0.000002044
   5   I   :    0.000000001    0.000000001    0.000077492
   6   Cl  :   -0.000000002   -0.000000002   -0.000086282

Difference to translation invariance:
           :    0.0000000000   -0.0000000000    0.0000000000

Difference to rotation invariance:
           :   -0.0000000000   -0.0000000000    0.0000000000

Norm of the Dispersion gradient    ...    0.0001160739
RMS gradient                       ...    0.0000273589
MAX gradient                       ...    0.0000862816
gCP correction                   ... done

------------------
CARTESIAN GRADIENT
------------------

   1   C   :    0.000145614    0.000096793    0.016298840
   2   H   :   -0.000006376   -0.004281177   -0.001429939
   3   H   :   -0.003714523    0.002137381   -0.001450527
   4   H   :    0.003578990    0.002066480   -0.001495395
   5   I   :   -0.000003264   -0.000002262   -0.021623458
   6   Cl  :   -0.000000441   -0.000017213    0.009700480

Difference to translation invariance:
           :    0.0000000000   -0.0000000000   -0.0000000000

Difference to rotation invariance:
           :   -0.0000440705   -0.0000000191    0.0000000278

Norm of the Cartesian gradient     ...    0.0297911962
RMS gradient                       ...    0.0070218523
MAX gradient                       ...    0.0216234582

-------
TIMINGS
-------

Total SCF gradient time     ....        2.109 sec

Densities                   ....       0.000 sec  (  0.0%)
One electron gradient       ....       0.012 sec  (  0.6%)
RI-J Coulomb gradient       ....       1.320 sec  ( 62.6%)
XC gradient                 ....       0.389 sec  ( 18.5%)

Maximum memory used throughout the entire SCFGRAD-calculation: 26.9 MB
------------------------------------------------------------------------------
                         ORCA GEOMETRY RELAXATION STEP
------------------------------------------------------------------------------

Reading the OPT-File                    .... done
Getting information on internals        .... done
Copying old internal coords+grads       .... done
Making the new internal coordinates     .... (2022 redundants) done
Validating the new internal coordinates .... (2022 redundants) done
Calculating the B-matrix                .... done
Calculating the G,G- and P matrices     .... done
Transforming gradient to internals      .... done
Projecting the internal gradient        .... done
Number of atoms                         ....   6
Number of internal coordinates          ....  17
Current Energy                          ....  -797.890287498 Eh
Current gradient norm                   ....     0.029791196 Eh/bohr
Maximum allowed component of the step   ....  0.300
Current trust radius                    ....  0.300
Evaluating the initial hessian          ....  (Almloef) done
Projecting the Hessian                  .... done
Forming the augmented Hessian           .... done
Diagonalizing the augmented Hessian     .... done
Last element of RFO vector              ....  0.936527296
Lowest eigenvalues of augmented Hessian:
 -0.005573004  0.011643817  0.046444300  0.046456251  0.121930094
Length of the computed step             ....  0.374356062
Warning: the length of the step is outside the trust region - taking restricted step instead
The input lambda is                     ....     0.009000
   iter:   5  x=    0.002633  g=  425.578012 f(x)=     1.008558
   iter:  10  x=   -0.010737  g=    6.722204 f(x)=     0.002507
The output lambda is                    ....    -0.010747 (13 iterations)
The final length of the internal step   ....  0.300000000
Converting the step to Cartesian space:
 Initial RMS(Int)=    0.0727606875
Transforming coordinates:
 Iter   0:  RMS(Cart)=    0.0501388112 RMS(Int)=    0.0728116531
done
Storing new coordinates                 .... done

                                .--------------------.
          ----------------------|Geometry convergence|-------------------------
          Item                value                   Tolerance       Converged
          ---------------------------------------------------------------------
          RMS gradient        0.0055731376            0.0001000000      NO
          MAX gradient        0.0216234578            0.0003000000      NO
          RMS step            0.0727606875            0.0020000000      NO
          MAX step            0.1678333605            0.0040000000      NO
          -------------------------------------------------------------------------
          ........................................................
          Max(Bonds)      0.0888      Max(Angles)    0.03
          Max(Dihed)        0.00      Max(Improp)    0.00
          ---------------------------------------------------------------------

The optimization has not yet converged - more geometry cycles are needed


    ---------------------------------------------------------------------------
                         Redundant Internal Coordinates
                            (Angstroem and degrees)

        Definition                    Value    dE/dq     Step     New-Value
    ----------------------------------------------------------------------------
     1. B(H   1,C   0)                1.0779 -0.003411  0.0047    1.0825   
     2. B(H   2,C   0)                1.0779 -0.003406  0.0047    1.0826   
     3. B(H   3,C   0)                1.0781 -0.003247  0.0045    1.0826   
     4. B(I   4,C   0)                2.1735 -0.021623  0.0888    2.2623   
     5. B(Cl  5,H   2)                2.6462 -0.002638  0.0646    2.7108   
     6. B(Cl  5,H   1)                2.6462 -0.002611  0.0643    2.7106   
     7. B(Cl  5,H   3)                2.6462 -0.002637  0.0646    2.7108   
     8. B(Cl  5,C   0)                2.7696 -0.002432  0.0690    2.8386   
     9. A(H   1,C   0,H   3)          111.04 -0.000050    0.02    111.07   
    10. A(H   2,C   0,H   3)          111.04 -0.000049    0.02    111.06   
    11. A(H   1,C   0,I   4)          107.85  0.000067   -0.03    107.82   
    12. A(H   2,C   0,I   4)          107.85  0.000048   -0.03    107.82   
    13. A(H   3,C   0,I   4)          107.84  0.000028   -0.02    107.82   
    14. A(H   1,C   0,Cl  5)           72.15 -0.000037    0.02     72.17   
    15. A(H   2,C   0,Cl  5)           72.15 -0.000050    0.03     72.18   
    16. A(H   3,C   0,Cl  5)           72.15 -0.000056    0.03     72.18   
    17. A(H   1,C   0,H   2)          111.05 -0.000035    0.02    111.07   
    ----------------------------------------------------------------------------

Geometry step timings:
Preparation and reading OPT file:      0.000 s ( 2.582 %)
Internal coordinates            :      0.000 s ( 3.140 %)
B/P matrices and projection     :      0.000 s (10.468 %)
Hessian update/contruction      :      0.001 s (35.939 %)
Making the step                 :      0.000 s (14.306 %)
Converting the step to Cartesian:      0.000 s ( 2.931 %)
Storing new data                :      0.000 s ( 5.722 %)
Checking convergence            :      0.000 s ( 4.885 %)
Final printing                  :      0.000 s (19.609 %)
Total time                      :      0.001 s

Time for energy+gradient        :     18.128 s
Time for complete geometry iter :     18.558 s

         *************************************************************
         *                GEOMETRY OPTIMIZATION CYCLE   2            *
         *************************************************************
---------------------------------
CARTESIAN COORDINATES (ANGSTROEM)
---------------------------------
  C      0.000101    0.000032    0.271963
  H      0.000036    1.030577   -0.059468
  H      0.892586   -0.515358   -0.059382
  H     -0.892432   -0.515312   -0.059370
  I      0.000057    0.000213    2.534269
  Cl    -0.000002    0.000185   -2.566582

----------------------------
CARTESIAN COORDINATES (A.U.)
----------------------------
  NO LB      ZA    FRAG     MASS         X           Y           Z
   0 C     6.0000    0    12.011    0.000190    0.000061    0.513936
   1 H     1.0000    0     1.008    0.000067    1.947508   -0.112379
   2 H     1.0000    0     1.008    1.686743   -0.973886   -0.112216
   3 H     1.0000    0     1.008   -1.686452   -0.973798   -0.112194
   4 I    25.0000*   0   126.900    0.000108    0.000403    4.789074
   5 Cl   17.0000    0    35.453   -0.000004    0.000349   -4.850137
* core charge reduced due to ECP

--------------------------------
INTERNAL COORDINATES (ANGSTROEM)
--------------------------------
 C      0   0   0     0.000000000000     0.00000000     0.00000000
 H      1   0   0     1.082528978475     0.00000000     0.00000000
 H      1   2   0     1.082565091206   111.07326357     0.00000000
 H      1   2   3     1.082578515130   111.06460484   235.86571880
 I      1   2   3     2.262305593036   107.82361431   117.93701252
 Cl     2   1   3     2.710595171243    85.48615341    62.06632614

---------------------------
INTERNAL COORDINATES (A.U.)
---------------------------
 C      0   0   0     0.000000000000     0.00000000     0.00000000
 H      1   0   0     2.045683301351     0.00000000     0.00000000
 H      1   2   0     2.045751544523   111.07326357     0.00000000
 H      1   2   3     2.045776912064   111.06460484   235.86571880
 I      1   2   3     4.275138002076   107.82361431   117.93701252
 Cl     2   1   3     5.122282533578    85.48615341    62.06632614



           ************************************************************
           *        Program running with 8 parallel MPI-processes     *
           *              working on a common directory               *
           ************************************************************
------------------------------------------------------------------------------
                   ___                                                        
                  /   \      - P O W E R E D   B Y -                         
                 /     \                                                     
                 |  |  |   _    _      __       _____    __    __             
                 |  |  |  | |  | |    /  \     |  _  \  |  |  /  |          
                  \  \/   | |  | |   /    \    | | | |  |  | /  /          
                 / \  \   | |__| |  /  /\  \   | |_| |  |  |/  /          
                |  |  |   |  __  | /  /__\  \  |    /   |      \           
                |  |  |   | |  | | |   __   |  |    \   |  |\   \          
                \     /   | |  | | |  |  |  |  | |\  \  |  | \   \       
                 \___/    |_|  |_| |__|  |__|  |_| \__\ |__|  \__/        
                                                                              
                      - O R C A' S   B I G   F R I E N D -                    
                                      &                                       
                       - I N T E G R A L  F E E D E R -                       
                                                                              
 v1 FN, 2020, v2 2021, v3 2022-2024                                           
------------------------------------------------------------------------------


----------------------
SHARK INTEGRAL PACKAGE
----------------------

Number of atoms                             ...      6
Number of basis functions                   ...     97
Number of shells                            ...     43
Maximum angular momentum                    ...      2
Integral batch strategy                     ... SHARK/LIBINT Hybrid
RI-J (if used) integral strategy            ... SPLIT-RIJ (Revised 2003 algorithm where possible)
Printlevel                                  ...      1
Contraction scheme used                     ... SEGMENTED contraction
Prescreening option                         ... SCHWARTZ
   Thresh                                   ... 2.500e-11
   Tcut                                     ... 2.500e-12
   Tpresel                                  ... 2.500e-12 
Coulomb Range Separation                    ... NOT USED
Exchange Range Separation                   ... NOT USED
Multipole approximations                    ... NOT USED
Finite Nucleus Model                        ... NOT USED
CABS basis                                  ... NOT available
Auxiliary Coulomb fitting basis             ... AVAILABLE
   # of basis functions in Aux-J            ...    163
   # of shells in Aux-J                     ...     61
   Maximum angular momentum in Aux-J        ...      4
Auxiliary J/K fitting basis                 ... NOT available
Auxiliary Correlation fitting basis         ... NOT available
Auxiliary 'external' fitting basis          ... NOT available

Checking pre-screening integrals            ... done (  0.0 sec) Dimension = 43
   => SHARK Basis and OBASIS are compatible. Storing Pre-screening
Shell pair information
Shell pair cut-off parameter TPreSel        ...   2.5e-12
Total number of shell pairs                 ...       946
Shell pairs after pre-screening             ...       865
Total number of primitive shell pairs       ...      3934
Primitive shell pairs kept                  ...      2732
          la=0 lb=0:    223 shell pairs
          la=1 lb=0:    303 shell pairs
          la=1 lb=1:    114 shell pairs
          la=2 lb=0:    121 shell pairs
          la=2 lb=1:     84 shell pairs
          la=2 lb=2:     20 shell pairs

Checking whether 4 symmetric matrices of dimension 97 fit in memory
:Max Core in MB      =   4096.00
 MB in use           =      4.49
 MB left             =   4091.51
 MB needed           =      0.15
 Data fit in memory  = YES
Calculating RI/J V-Matrix + Cholesky decomp.... done (  0.0 sec)
Calculating Nuclear repulsion               ... done (  0.0 sec) ENN=    132.057349075783 Eh

Diagonalization of the overlap matrix:
Smallest eigenvalue                        ... 4.172e-03
Time for diagonalization                   ...    0.001 sec
Threshold for overlap eigenvalues          ... 1.000e-07
Number of eigenvalues below threshold      ... 0
Time for construction of square roots      ...    0.001 sec
Total time needed                          ...    0.002 sec

-------------------
DFT GRID GENERATION
-------------------

General Integration Accuracy     IntAcc      ... 4.388
Radial Grid Type                 RadialGrid  ... OptM3 with GC (2021)
Angular Grid (max. ang.)         AngularGrid ... 4 (Lebedev-302)
Angular grid pruning method      GridPruning ... 4 (adaptive)
Weight generation scheme         WeightScheme... mBecke (2022)
Basis function cutoff            BFCut       ... 1.0000e-11
Integration weight cutoff        WCut        ... 1.0000e-14
Partially contracted basis set               ... off
Rotationally invariant grid construction     ... off
Angular grids for H and He will be reduced by one unit

Total number of grid points                  ...    34839
Total number of batches                      ...      547
Average number of points per batch           ...       63
Average number of grid points per atom       ...     5806
Grids setup in   1.2 sec
Initializing property integral containers    ... done (  0.0 sec)

SHARK setup successfully completed in   1.7 seconds

Maximum memory used throughout the entire STARTUP-calculation: 12.8 MB


           ************************************************************
           *        Program running with 8 parallel MPI-processes     *
           *              working on a common directory               *
           ************************************************************
Occupation numbers will be reassigned to an Aufbau configuration
             **** ENERGY FILE WAS UPDATED (product_optfreq.en.tmp) ****
Finished Guess after   0.3 sec
Maximum memory used throughout the entire GUESS-calculation: 6.9 MB


           ************************************************************
           *        Program running with 8 parallel MPI-processes     *
           *              working on a common directory               *
           ************************************************************
----------------------------------------D-I-I-S--------------------------------------------
Iteration    Energy (Eh)           Delta-E    RMSDP     MaxDP     DIISErr   Damp  Time(sec)
-------------------------------------------------------------------------------------------
               ***  Starting incremental Fock matrix formation  ***
    1    -797.8940705939777445     0.00e+00  6.80e-04  3.98e-03  4.87e-02  0.700   0.4
    2    -797.8943517246258352    -2.81e-04  6.74e-04  3.24e-03  3.42e-02  0.700   0.5
                               ***Turning on AO-DIIS***
    3    -797.8945559922575512    -2.04e-04  5.58e-04  2.99e-03  2.39e-02  0.700   0.5
    4    -797.8946958045430620    -1.40e-04  1.42e-03  8.19e-03  1.68e-02  0.000   0.4
                              *** Initializing SOSCF ***
---------------------------------------S-O-S-C-F--------------------------------------
Iteration    Energy (Eh)           Delta-E    RMSDP     MaxDP     MaxGrad    Time(sec)
--------------------------------------------------------------------------------------
    5    -797.8950311571495604    -3.35e-04  1.41e-04  7.05e-04  1.16e-03     0.4
               *** Restarting incremental Fock matrix formation ***
    6    -797.8950325930381950    -1.44e-06  1.61e-04  8.48e-04  3.79e-04     0.2
    7    -797.8950291860754760     3.41e-06  1.03e-04  5.90e-04  9.15e-04     0.3
    8    -797.8950338317570186    -4.65e-06  1.10e-05  9.61e-05  1.75e-05     0.4
    9    -797.8950338340940789    -2.34e-09  5.13e-06  4.36e-05  1.50e-05     0.2
                 **** Energy Check signals convergence ****

               *****************************************************
               *                     SUCCESS                       *
               *           SCF CONVERGED AFTER   9 CYCLES          *
               *****************************************************

             **** ENERGY FILE WAS UPDATED (product_optfreq.en.tmp) ****

----------------
TOTAL SCF ENERGY
----------------

Total Energy       :       -797.89503383691181 Eh          -21711.82768 eV

Components:
Nuclear Repulsion  :        132.05734907578270 Eh            3593.46316 eV
Electronic Energy  :       -929.95238291269447 Eh          -25305.29084 eV
One Electron Energy:      -1479.52216580735330 Eh          -40259.84490 eV
Two Electron Energy:        549.56978289465883 Eh           14954.55407 eV

Virial components:
Potential Energy   :      -1408.87791825737622 Eh          -38337.51720 eV
Kinetic Energy     :        610.98288442046430 Eh           16625.68952 eV
Virial Ratio       :          2.30592043440585

DFT components:
N(Alpha)           :       26.000007579316 electrons
N(Beta)            :       26.000007579316 electrons
N(Total)           :       52.000015158633 electrons
E(X)               :      -55.249034712285 Eh       
E(C)               :       -2.007325970772 Eh       
E(XC)              :      -57.256360683058 Eh       

---------------
SCF CONVERGENCE
---------------

  Last Energy change         ...    2.3371e-09  Tolerance :   1.0000e-08
  Last MAX-Density change    ...    4.3628e-05  Tolerance :   1.0000e-07
  Last RMS-Density change    ...    5.1261e-06  Tolerance :   5.0000e-09
  Last DIIS Error            ...    1.1600e-03  Tolerance :   5.0000e-07
  Last Orbital Gradient      ...    1.5021e-05  Tolerance :   1.0000e-05
  Last Orbital Rotation      ...    3.5403e-05  Tolerance :   1.0000e-05


Total SCF time: 0 days 0 hours 0 min 3 sec 
Finished LeanSCF after   3.9 sec

Maximum memory used throughout the entire LEANSCF-calculation: 6.6 MB


           ************************************************************
           *        Program running with 8 parallel MPI-processes     *
           *              working on a common directory               *
           ************************************************************

------------------------------------------------------------------------------
                         ORCA PROPERTY INTEGRAL CALCULATIONS
------------------------------------------------------------------------------

GBWName                                   ... product_optfreq.gbw
Number of atoms                           ...      6
Number of basis functions                 ...     97
Max core memory                           ...   4096 MB

Dipole integrals                          ... YES
Quadrupole integrals                      ...  NO
Linear momentum integrals                 ...  NO
Angular momentum integrals                ...  NO
Higher moments length integrals           ...  NO
Higher moments velocity integrals         ...  NO
Kinetic energy integrals                  ...  NO
GIAO right hand sides                     ...  NO
GIAO dipole derivative integrals          ...  NO
SOC integrals                             ...  NO
EPR diamagnetic integrals (GIAO)          ...  NO
EPR gauge integrals                       ...  NO
Field gradient integrals                  ...  NO (   0 nuclei)
Spin-dipole/Fermi contact integrals       ...  NO (   0 nuclei)
Contact density integrals                 ...  NO (   0 nuclei)
Nucleus-orbit integrals                   ...  NO (   0 nuclei)
Geometric perturbations                   ...  NO (   6 nuclei)

Choice of electric origin   ... Center of mass
Position of electric origin ... (  0.0001,  0.0004,  2.4895) 
Choice of magnetic origin   ... GIAO
Position of magnetic origin ... (  0.0000,  0.0000,  0.0000) 

Calculating integrals                     ... Electric Dipole (Length)     done (  0.0 sec)

Property integrals calculated in   0.0 sec

Maximum memory used throughout the entire PROPINT-calculation: 7.0 MB


-------------------------------------------------------------------------------
                          DFT DISPERSION CORRECTION                            
                                                                               
                                DFTD4 V3.4.0                                   
-------------------------------------------------------------------------------
-------------------------   ----------------
Dispersion correction           -0.001211155
-------------------------   ----------------

------------------   -----------------
gCP correction             0.003159381
------------------   -----------------

-------------------------   --------------------
FINAL SINGLE POINT ENERGY      -797.893085610399
-------------------------   --------------------



           ************************************************************
           *        Program running with 8 parallel MPI-processes     *
           *              working on a common directory               *
           ************************************************************
------------------------------------------------------------------------------
                         ORCA SCF GRADIENT CALCULATION
------------------------------------------------------------------------------

Nuc. rep. gradient        (SHARK) ... done (  0.0 sec)
HCore & Overlap gradient  (SHARK) ... done (  0.1 sec)
ECP gradient              (SHARK) ... done (  0.3 sec)
Split-RIJ-J gradient      (SHARK) ... done (  1.5 sec)
XC gradient                       ... done (  0.4 sec)
Dispersion correction             ... done (  0.1 sec)

-------------------
DISPERSION GRADIENT
-------------------

   1   C   :   -0.000000000   -0.000000004    0.000003094
   2   H   :    0.000000001    0.000001337    0.000001757
   3   H   :    0.000001159   -0.000000669    0.000001759
   4   H   :   -0.000001158   -0.000000669    0.000001759
   5   I   :    0.000000000    0.000000002    0.000076800
   6   Cl  :   -0.000000002    0.000000003   -0.000085169

Difference to translation invariance:
           :   -0.0000000000    0.0000000000   -0.0000000000

Difference to rotation invariance:
           :   -0.0000000000    0.0000000000    0.0000000000

Norm of the Dispersion gradient    ...    0.0001147880
RMS gradient                       ...    0.0000270558
MAX gradient                       ...    0.0000851694
gCP correction                   ... done

------------------
CARTESIAN GRADIENT
------------------

   1   C   :    0.000018117    0.000014029    0.011266336
   2   H   :   -0.000007358   -0.002308360   -0.004378510
   3   H   :   -0.002011779    0.001154909   -0.004397098
   4   H   :    0.002002377    0.001157972   -0.004400225
   5   I   :   -0.000001270    0.000000982   -0.001845261
   6   Cl  :   -0.000000087   -0.000019533    0.003754757

Difference to translation invariance:
           :    0.0000000000    0.0000000000    0.0000000000

Difference to rotation invariance:
           :   -0.0000652719   -0.0000000494    0.0000000135

Norm of the Cartesian gradient     ...    0.0147770862
RMS gradient                       ...    0.0034829926
MAX gradient                       ...    0.0112663357

-------
TIMINGS
-------

Total SCF gradient time     ....        2.502 sec

Densities                   ....       0.000 sec  (  0.0%)
One electron gradient       ....       0.085 sec  (  3.4%)
RI-J Coulomb gradient       ....       1.517 sec  ( 60.6%)
XC gradient                 ....       0.392 sec  ( 15.7%)

Maximum memory used throughout the entire SCFGRAD-calculation: 26.9 MB
------------------------------------------------------------------------------
                         ORCA GEOMETRY RELAXATION STEP
------------------------------------------------------------------------------

Reading the OPT-File                    .... done
Getting information on internals        .... done
Copying old internal coords+grads       .... done
Making the new internal coordinates     .... (2022 redundants) done
Validating the new internal coordinates .... (2022 redundants) done
Calculating the B-matrix                .... done
Calculating the G,G- and P matrices     .... done
Transforming gradient to internals      .... done
Projecting the internal gradient        .... done
Number of atoms                         ....   6
Number of internal coordinates          ....  17
Current Energy                          ....  -797.893085610 Eh
Current gradient norm                   ....     0.014777086 Eh/bohr
Maximum allowed component of the step   ....  0.300
Current trust radius                    ....  0.300
Updating the Hessian (BFGS)             .... done
Forming the augmented Hessian           .... done
Diagonalizing the augmented Hessian     .... done
Last element of RFO vector              ....  0.982161034
Lowest eigenvalues of augmented Hessian:
 -0.000720815  0.011088113  0.046444242  0.046456041  0.102993655
Length of the computed step             ....  0.191457155
The final length of the internal step   ....  0.191457155
Converting the step to Cartesian space:
 Initial RMS(Int)=    0.0464351808
Transforming coordinates:
[...]



--------------------
Rotational spectrum 
--------------------
 
Rotational constants in cm-1:             5.051722             0.022130             0.022130 
Rotational constants in MHz :        151446.810574           663.451711           663.451627 

Dipole components along the rotational axes: 
x,y,z [a.u.] :     4.356883     0.000004     0.001063 
x,y,z [Debye]:    11.074317     0.000010     0.002702 

 

Dipole moment calculation done in   0.0 sec 

-----------
SCF HESSIAN
-----------

Occupied/Occupied contributions to the Hessian:
   => Occupied/Occupied contributions              ... done (  0.0 sec)
Perturbed density contributions to the Hessian:
   => Perturbed density contributions              ... done (  0.0 sec)
Explicit contributions to the Hessian:
   => Nuclear repulsion Hessian                    ... done (  0.0 sec)
   => HCore and overlap Hessian                    ... done (  0.3 sec)
   => ECP Hessian                                  ... done (  1.3 sec)
   => RI-J Hessian                                 ... done (  1.8 sec)
   => XC-Hessian                                   ... done (  3.5 sec)
   => Van der Waals-Hessian                        ... done (  0.6 sec)
   => GCP-Hessian                                  ... done (  0.1 sec)
   => Explicit contributions done
Dipole derivatives                                 ... done (  0.0 sec)
Mass weighting the Hessian           ... done
Calculating normal modes             ... done
Scaling frequencies                  ... done

-----------------------
VIBRATIONAL FREQUENCIES
-----------------------

Scaling factor for frequencies =  1.000000000  (already applied!)

     0:       0.00 cm**-1
     1:       0.00 cm**-1
     2:       0.00 cm**-1
     3:       0.00 cm**-1
     4:       0.00 cm**-1
     5:       0.00 cm**-1
     6:     117.92 cm**-1
     7:     118.01 cm**-1
     8:     122.50 cm**-1
     9:     266.09 cm**-1
    10:     835.07 cm**-1
    11:     835.49 cm**-1
    12:    1106.97 cm**-1
    13:    1422.86 cm**-1
    14:    1423.19 cm**-1
    15:    3137.10 cm**-1
    16:    3304.57 cm**-1
    17:    3305.42 cm**-1


------------
NORMAL MODES
------------

These modes are the Cartesian displacements weighted by the diagonal matrix
M(i,i)=1/sqrt(m[i]) where m[i] is the mass of the displaced atom
Thus, these vectors are normalized but *not* orthogonal

                  0          1          2          3          4          5    
      0       0.000000   0.000000   0.000000   0.000000   0.000000   0.000000
      1       0.000000   0.000000   0.000000   0.000000   0.000000   0.000000
      2       0.000000   0.000000   0.000000   0.000000   0.000000   0.000000
      3       0.000000   0.000000   0.000000   0.000000   0.000000   0.000000
      4       0.000000   0.000000   0.000000   0.000000   0.000000   0.000000
      5       0.000000   0.000000   0.000000   0.000000   0.000000   0.000000
      6       0.000000   0.000000   0.000000   0.000000   0.000000   0.000000
      7       0.000000   0.000000   0.000000   0.000000   0.000000   0.000000
      8       0.000000   0.000000   0.000000   0.000000   0.000000   0.000000
      9       0.000000   0.000000   0.000000   0.000000   0.000000   0.000000
     10       0.000000   0.000000   0.000000   0.000000   0.000000   0.000000
     11       0.000000   0.000000   0.000000   0.000000   0.000000   0.000000
     12       0.000000   0.000000   0.000000   0.000000   0.000000   0.000000
     13       0.000000   0.000000   0.000000   0.000000   0.000000   0.000000
     14       0.000000   0.000000   0.000000   0.000000   0.000000   0.000000
     15       0.000000   0.000000   0.000000   0.000000   0.000000   0.000000
     16       0.000000   0.000000   0.000000   0.000000   0.000000   0.000000
     17       0.000000   0.000000   0.000000   0.000000   0.000000   0.000000
                  6          7          8          9         10         11    
      0       0.453102   0.000718  -0.000084  -0.000012  -0.000033  -0.075180
      1       0.000717  -0.453084  -0.021490  -0.001858   0.075165  -0.000033
      2      -0.000019   0.003156  -0.372904  -0.757175  -0.000204   0.000001
      3       0.493754   0.000790  -0.000087  -0.000006   0.000062   0.164541
      4       0.000794  -0.501328   0.013927   0.078981  -0.108406   0.000048
      5       0.000275  -0.180393  -0.169995  -0.363181  -0.790187   0.000347
      6       0.495831   0.005445   0.032186   0.069344  -0.024532   0.121808
      7      -0.007831  -0.492139  -0.041687  -0.041804  -0.149940   0.025153
      8       0.157582   0.092776  -0.159269  -0.364226   0.395273   0.684051
      9       0.495840  -0.003881  -0.032361  -0.069355   0.024651   0.121766
     10       0.009389  -0.492095  -0.041689  -0.041804  -0.149961  -0.025021
     11      -0.157896   0.092277  -0.159220  -0.364226   0.394668  -0.684402
     12      -0.029011  -0.000046   0.000003   0.000001   0.000002   0.004203
     13      -0.000046   0.029011   0.001408   0.000143  -0.004201   0.000002
     14      -0.000005   0.000902  -0.200334   0.091795   0.000010  -0.000000
     15      -0.091896  -0.000146   0.000026  -0.000000  -0.000001  -0.001178
     16      -0.000145   0.091894   0.004216   0.000249   0.001183  -0.000001
     17       0.000025  -0.004430   0.857297  -0.041013   0.000040  -0.000000
                 12         13         14         15         16         17    
      0      -0.000001   0.080526  -0.000034   0.000001   0.000035  -0.098699
      1      -0.000015   0.000034   0.080531   0.000158   0.098715   0.000035
      2      -0.070102  -0.000001   0.000049   0.028799  -0.000140   0.000001
      3       0.000008  -0.779198   0.000331  -0.000002   0.000009  -0.017641
      4       0.128240   0.000046   0.109474   0.564613  -0.792950  -0.000280
      5       0.561453   0.000098   0.207488  -0.114487   0.179937   0.000064
      6       0.110137  -0.112964  -0.384905   0.490292   0.349811   0.590002
      7      -0.063822  -0.384798  -0.556833  -0.283236  -0.184532  -0.350923
      8       0.561667   0.180426  -0.104035  -0.114140  -0.089062  -0.154688
      9      -0.110121  -0.112646   0.384997  -0.490297  -0.350233   0.589756
     10      -0.063822   0.384330  -0.557156  -0.283237  -0.184781   0.350791
     11       0.561672  -0.180510  -0.103895  -0.114127  -0.089162   0.154606
     12      -0.000000   0.000309  -0.000000  -0.000000  -0.000000   0.000082
     13      -0.000005   0.000000   0.000307  -0.000000  -0.000082  -0.000000
     14      -0.005084  -0.000000   0.000001  -0.000071   0.000000  -0.000000
     15      -0.000000   0.000182  -0.000000  -0.000000  -0.000000   0.000104
     16       0.000005   0.000000   0.000177  -0.000000  -0.000105  -0.000000
     17      -0.005956  -0.000000  -0.000006   0.000242  -0.000002   0.000000


-----------
IR SPECTRUM
-----------

 Mode   freq       eps      Int      T**2         TX        TY        TZ
       cm**-1   L/(mol*cm) km/mol    a.u.
----------------------------------------------------------------------------
  6:    117.92   0.001132    5.72  0.002996  ( 0.054733  0.000087 -0.000018)
  7:    118.01   0.001140    5.76  0.003015  ( 0.000087 -0.054701  0.004817)
  8:    122.50   0.020825  105.24  0.053051  (-0.000006 -0.000818 -0.230326)
  9:    266.09   0.078227  395.33  0.091743  (-0.000004 -0.000102 -0.302890)
 10:    835.07   0.000286    1.44  0.000107  ( 0.000005 -0.010333 -0.000087)
 11:    835.49   0.000288    1.46  0.000108  ( 0.010372  0.000005 -0.000000)
 12:   1106.97   0.018342   92.69  0.005171  (-0.000001 -0.000039 -0.071909)
 13:   1422.86   0.001335    6.75  0.000293  (-0.017111 -0.000007  0.000001)
 14:   1423.19   0.001355    6.85  0.000297  ( 0.000007 -0.017235  0.000111)
 15:   3137.10   0.000306    1.54  0.000030  (-0.000000  0.000108 -0.005512)
 16:   3304.57   0.000785    3.97  0.000074  (-0.000003 -0.008608 -0.000024)
 17:   3305.42   0.000790    3.99  0.000075  ( 0.008635 -0.000003 -0.000001)

* The epsilon (eps) is given for a Dirac delta lineshape.
** The dipole moment derivative (T) already includes vibrational overlap.

The first frequency considered to be a vibration is 6
The total number of vibrations considered is 12


--------------------------
THERMOCHEMISTRY AT 298.15K
--------------------------

Temperature         ...   298.15 K
Pressure            ...     1.00 atm
Total Mass          ...   177.39 AMU
Quasi RRHO          ...     True
Cut-Off Frequency   ...     1.00 cm^-1

Throughout the following assumptions are being made:
  (1) The electronic state is orbitally nondegenerate
  (2) There are no thermally accessible electronically excited states
  (3) Hindered rotations indicated by low frequency modes are not
      treated as such but are treated as vibrations and this may
      cause some error
  (4) All equations used are the standard statistical mechanics
      equations for an ideal gas
  (5) All vibrations are strictly harmonic

freq.     117.92  E(vib)   ...       0.44 
freq.     118.01  E(vib)   ...       0.44 
freq.     122.50  E(vib)   ...       0.43 
freq.     266.09  E(vib)   ...       0.29 
freq.     835.07  E(vib)   ...       0.04 
freq.     835.49  E(vib)   ...       0.04 
freq.    1106.97  E(vib)   ...       0.02 
freq.    1422.86  E(vib)   ...       0.00 
freq.    1423.19  E(vib)   ...       0.00 
freq.    3137.10  E(vib)   ...       0.00 
freq.    3304.57  E(vib)   ...       0.00 
freq.    3305.42  E(vib)   ...       0.00 

------------
INNER ENERGY
------------

The inner energy is: U= E(el) + E(ZPE) + E(vib) + E(rot) + E(trans)
    E(el)   - is the total energy from the electronic structure calculation
              = E(kin-el) + E(nuc-el) + E(el-el) + E(nuc-nuc)
    E(ZPE)  - the the zero temperature vibrational energy from the frequency calculation
    E(vib)  - the the finite temperature correction to E(ZPE) due to population
              of excited vibrational states
    E(rot)  - is the rotational thermal energy
    E(trans)- is the translational thermal energy

Summary of contributions to the inner energy U:
Electronic energy                ...   -797.89423716 Eh
Zero point energy                ...      0.03643969 Eh      22.87 kcal/mol
Thermal vibrational correction   ...      0.00273387 Eh       1.72 kcal/mol
Thermal rotational correction    ...      0.00141627 Eh       0.89 kcal/mol
Thermal translational correction ...      0.00141627 Eh       0.89 kcal/mol
-----------------------------------------------------------------------
Total thermal energy                   -797.85223106 Eh


Summary of corrections to the electronic energy:
(perhaps to be used in another calculation)
Total thermal correction                  0.00556642 Eh       3.49 kcal/mol
Non-thermal (ZPE) correction              0.03643969 Eh      22.87 kcal/mol
-----------------------------------------------------------------------
Total correction                          0.04200610 Eh      26.36 kcal/mol


--------
ENTHALPY
--------

The enthalpy is H = U + kB*T
                kB is Boltzmann's constant
Total thermal energy              ...   -797.85223106 Eh 
Thermal Enthalpy correction       ...      0.00094421 Eh       0.59 kcal/mol
-----------------------------------------------------------------------
Total Enthalpy                    ...   -797.85128685 Eh


Note: Rotational entropy computed according to Herzberg 
Infrared and Raman Spectra, Chapter V,1, Van Nostrand Reinhold, 1945 
Point Group:  Cs, Symmetry Number:   1  
Rotational constants in cm-1:     5.051726     0.022130     0.022130 

Vibrational entropy computed according to the QRRHO of S. Grimme
Chem.Eur.J. 2012 18 9955 using a reference frequency of 100.0 cm-1


-------
ENTROPY
-------

The entropy contributions are T*S = T*(S(el)+S(vib)+S(rot)+S(trans))
     S(el)   - electronic entropy
     S(vib)  - vibrational entropy
     S(rot)  - rotational entropy
     S(trans)- translational entropy
The entropies will be listed as multiplied by the temperature to get
units of energy

Electronic entropy                ...      0.00000000 Eh      0.00 kcal/mol
Vibrational entropy               ...      0.00521781 Eh      3.27 kcal/mol
Rotational entropy                ...      0.01234424 Eh      7.75 kcal/mol
Translational entropy             ...      0.01968301 Eh     12.35 kcal/mol
-----------------------------------------------------------------------
Final entropy term                ...      0.03724506 Eh     23.37 kcal/mol

In case the symmetry of your molecule has not been determined correctly
or in case you have a reason to use a different symmetry number we print 
out the resulting rotational entropy values for sn=1,12:

 non-linear molecules -----------------------------------
|  sn= 1 | S(rot)=       0.01234424 Eh      7.75 kcal/mol|
|  sn= 2 | S(rot)=       0.01168978 Eh      7.34 kcal/mol|
|  sn= 3 | S(rot)=       0.01130695 Eh      7.10 kcal/mol|
|  sn= 4 | S(rot)=       0.01103533 Eh      6.92 kcal/mol|
|  sn= 5 | S(rot)=       0.01082464 Eh      6.79 kcal/mol|
|  sn= 6 | S(rot)=       0.01065249 Eh      6.68 kcal/mol|
|  sn= 7 | S(rot)=       0.01050695 Eh      6.59 kcal/mol|
|  sn= 8 | S(rot)=       0.01038087 Eh      6.51 kcal/mol|
|  sn= 9 | S(rot)=       0.01026966 Eh      6.44 kcal/mol|
|  sn=10 | S(rot)=       0.01017018 Eh      6.38 kcal/mol|
|  sn=11 | S(rot)=       0.01008019 Eh      6.33 kcal/mol|
|  sn=12 | S(rot)=       0.00999804 Eh      6.27 kcal/mol|
 linear molecules ---------------------------------------
|  Dinfh | S(rot)=       0.00892389 Eh      5.60 kcal/mol|
|  Cinfv | S(rot)=       0.00957835 Eh      6.01 kcal/mol|
 --------------------------------------------------------


-------------------
GIBBS FREE ENERGY
-------------------

The Gibbs free energy is G = H - T*S

Total enthalpy                    ...   -797.85128685 Eh 
Total entropy correction          ...     -0.03724506 Eh    -23.37 kcal/mol
-----------------------------------------------------------------------
Final Gibbs free energy         ...   -797.88853191 Eh

For completeness - the Gibbs free energy minus the electronic energy
G-E(el)                           ...      0.00570526 Eh      3.58 kcal/mol


Maximum memory used throughout the entire PROP-calculation: 27.9 MB

--------------------------------
SUGGESTED CITATIONS FOR THIS RUN
--------------------------------

Below you find a list of papers that are relevant to this ORCA run
We neither can nor want to force you to cite these papers, but we appreciate if you do
You receive ORCA, which is the product of decades of hard work by many enthusiastic individuals, for free
The only thing we kindly ask in return is that you cite our papers,
We deeply appreciate it, if you show your appreciation for ORCA by not just citing the generic ORCA reference.

Please note that relegating all ORCA citations to the supporting information does *not* help us.
SI sections are not indexed - citations you put there will not count into any citation statistics
But we need these citations in order to attract the funding resources that allow us to do what we are doing

Therefore, if you are a happy ORCA user, please consider citing a few of the papers listed below in the main body of your paper

In addition to the list printed below, the program has created the file product_optfreq.bibtex that contains the list in bibtex format
You can import this file easily into all common literature databanks and citation aid programs


List of essential papers. We consider these as the minimum necessary citations

  1. Grimme, S.; Hansen, A.; Ehlert, S.; Mewes, J.
     r2SCAN-3c: A 'Swiss army knife' composite electronic-structure method
     J. Chem. Phys. 2021 154 , 064103
     doi.org/10.1063/5.0040021
  2. Neese, F.
     Software update: the ORCA program system, version 6.0
     WIRES Comput. Molec. Sci. 2025 15(1), e70019
     doi.org/10.1002/wcms.7019

List of papers to cite with high priority. The work reported in these papers was absolutely
necessary for this run to complete.
Our perspective: the developers of density functionals and basis sets usually get cited in chemistry papers
Good! But without the algorithms to do something with them, the functionals or basis sets would not do anything.
Hence, in our opinion, the algorithm design and method developments papers are equally worthy of getting cited

  1. Neese, F.
     An improvement of the resolution of the identity approximation for the formation of the Coulomb matrix
     J. Comp. Chem. 2003 24(14), 1740-1747
     doi.org/10.1002/jcc.10318
  2. Bykov, D.; Petrenko, T.; Izsak, R.; Kossmann, S.; Becker, U.; Valeev, E.; Neese, F.
     Efficient implementation of the analytic second derivatives of Hartree-Fock and hybrid DFT energies: a detailed analysis of different approximations
     Molec. Phys. 2015 113 , 1961-1977
     doi.org/10.1080/00268976.2015.1025114
  3. Caldeweyher, E.; Bannwarth, C.; Grimme, S.
     Extension of the D3 dispersion coefficient model
     J. Chem. Phys. 2017 147 , 034112
     doi.org/10.1063/1.4993215
  4. Lehtola, S.; Steigemann, C.; Oliveira, M.; Marques, M.
     Recent developments in Libxc - A comprehensive library of functionals for density functional theory
     Software X 2018 7 , 
     doi.org/10.1016/j.softx.2017.11.002
  5. Caldeweyher, E.; Ehlert, S.; Hansen, A.; Neugebauer, H.; Spicher, S.; Bannwarth, C.; Grimme, S.
     A generally applicable atomic-charge dependent London dispersion correction
     J. Chem. Phys. 2019 150 , 154122
     doi.org/10.1063/1.5090222
  6. Caldeweyher, E.; Mewes, J.; Ehlert, S.; Grimme, S.
     Extension and evaluation of the D4 London-dispersion model for periodic systems
     Phys. Chem. Chem. Phys. 2020 22(16), 8499-8512
     doi.org/10.1039/D0CP00502A
  7. Neese, F.
     The SHARK Integral Generation and Digestion System
     J. Comp. Chem. 2022 44(3), 381
     doi.org/10.1002/jcc.26942
  8. Wittmann, L.; Gordiy, I.; Friede, M.; Helmich-Paris, B.; Grimme, S.; Hansen, A.; Bursch, M.
     Extension of the D3 and D4 London Dispersion Corrections to the full Actinides Series
     Phys. Chem. Chem. Phys. 2024 26(32), 21379-21394
     doi.org/10.1039/D4CP01514B

List of suggested additional citations. These are papers that are important in the 'surrounding' of 
of this run, or papers that preceded the highly important papers. If you like your results we are grateful for a citation.

  1. Neese, F.
     The ORCA program system
     WIRES Comput. Molec. Sci. 2012 2(1), 73-78
     doi.org/10.1002/wcms.81
  2. Neese, F.
     Software update: the ORCA program system, version 4.0
     WIRES Comput. Molec. Sci. 2018 8(1), 1-6
     doi.org/10.1002/wcms.1327
  3. Neese, F.; Wennmohs, F.; Becker, U.; Riplinger, C.
     The ORCA quantum chemistry program package
     J. Chem. Phys. 2020 152(22), 224108
     doi.org/10.1063/5.0004608
  4. Neese, F.
     Software update: The ORCA program system—Version 5.0
     WIRES Comput. Molec. Sci. 2022 12(1), e1606
     doi.org/10.1002/wcms.1606

List of optional additional citations

  1. Neese, F.
     Approximate second-order SCF convergence for spin unrestricted wavefunctions
     Chem. Phys. Lett. 2000 325(1-3), 93-98
     doi.org/10.1016/s0009-2614(00)00662-x

Timings for individual modules:

Sum of individual times          ...      134.887 sec (=   2.248 min)
Startup calculation              ...       21.517 sec (=   0.359 min)  16.0 %
SCF iterations                   ...       51.779 sec (=   0.863 min)  38.4 %
Property integrals               ...       20.002 sec (=   0.333 min)  14.8 %
SCF Response                     ...        4.583 sec (=   0.076 min)   3.4 %
Property calculations            ...        8.313 sec (=   0.139 min)   6.2 %
SCF Gradient evaluation          ...       28.671 sec (=   0.478 min)  21.3 %
Geometry relaxation              ...        0.022 sec (=   0.000 min)   0.0 %
                             ****ORCA TERMINATED NORMALLY****
TOTAL RUN TIME: 0 days 0 hours 2 minutes 23 seconds 109 msec
