
                                 *****************
                                 * O   R   C   A *
                                 *****************

                                            #,                                       
                                            ###                                      
                                            ####                                     
                                            #####                                    
                                            ######                                   
                                           ########,                                 
                                     ,,################,,,,,                         
                               ,,#################################,,                 
                          ,,##########################################,,             
                       ,#########################################, ''#####,          
                    ,#############################################,,   '####,        
                  ,##################################################,,,,####,       
                ,###########''''           ''''###############################       
              ,#####''   ,,,,##########,,,,          '''####'''          '####       
            ,##' ,,,,###########################,,,                        '##       
           ' ,,###''''                  '''############,,,                           
         ,,##''                                '''############,,,,        ,,,,,,###''
      ,#''                                            '''#######################'''  
     '                                                          ''''####''''         
             ,#######,   #######,   ,#######,      ##                                
            ,#'     '#,  ##    ##  ,#'     '#,    #''#        ,####,    ,#,          
            ##       ##  ##   ,#'  ##            #'  '#       #'       ,# #          
            ##       ##  #######   ##           ,######,      #####,      #          
            '#,     ,#'  ##    ##  '#,     ,#' ,#      #,     #,   #      #          
             '#######'   ##     ##  '#######'  #'      '#     '####' #    #          



                #########################################################
                #                        -***-                          #
                #          Department of theory and spectroscopy        #
                #                                                       #
                #                      Frank Neese                      #
                #                                                       #
                #     Directorship, Architecture, Infrastructure        #
                #                    SHARK, DRIVERS                     #
                #        Core code/Algorithms in most modules           #
                #                                                       #
                #        Max Planck Institute fuer Kohlenforschung      #
                #                Kaiser Wilhelm Platz 1                 #
                #                 D-45470 Muelheim/Ruhr                 #
                #                      Germany                          #
                #                                                       #
                #                  All rights reserved                  #
                #                        -***-                          #
                #########################################################


                         Program Version 6.1.0  -  RELEASE   -
                                (GIT: $679e74b$)
                          ($2025-06-10 18:02:51 +0200$)


 With contributions from (in alphabetic order):
[Max-Planck-Institut fuer Kohlenforschung]                               
  Daniel Aravena         : Magnetic Suceptibility                        
  Michael Atanasov       : Ab Initio Ligand Field Theory (pilot matlab implementation)
  Alexander A. Auer      : GIAO ZORA, VPT2 properties, NMR spectrum      
  Ute Becker             : All parallelization in ORCA, NUMFREQ, NUMCALC 
  Giovanni Bistoni       : ED, misc. LED, open-shell LED, HFLD           
  Dmytro Bykov           : pre 5.0 version of the SCF Hessian            
  Marcos Casanova-Páez   : Triplet and SCS-CIS(D). UHF-(DLPNO)-IP/EA/STEOM-CCSD. UHF-CVS-IP/STEOM-CCSD   
  Vijay G. Chilkuri      : MRCI spin determinant printing, contributions to CSF-ICE 
  Pauline Colinet        : FMM embedding                                 
  Dipayan Datta          : RHF DLPNO-CCSD density                        
  Achintya Kumar Dutta   : EOM-CC, STEOM-CC                              
  Nicolas Foglia         : Exact transition moments, OPA infrastructure, MCD improvements    
  Dmitry Ganyushin       : Spin-Orbit,Spin-Spin,Magnetic field MRCI      
  Miquel Garcia-Rates    : C-PCM and meta-GGA Hessian, CCSD/C-PCM, Gaussian charge scheme 
  Tiago L. C. Gouveia    : GS-ROHF, GS-ROCIS                             
  Yang Guo               : DLPNO-NEVPT2, F12-NEVPT2, CIM, IAO-localization        
  Andreas Hansen         : Spin unrestricted coupled pair/coupled cluster methods 
  Ingolf Harden          : AUTO-CI MPn and infrastructure                
  Benjamin Helmich-Paris : MC-RPA, TRAH-(SCF,CASSCF), AVAS, COSX integrals, SCF dyn. polar., MC-PDFT, srDFT 
  Lee Huntington         : MR-EOM, pCC                                   
  Robert Izsak           : Overlap fitted RIJCOSX, COSX-SCS-MP3, EOM     
  Riya Kayal             : Wick's Theorem for AUTO-CI, AUTO-CI UHF-CCSDT 
  Emily Kempfer          : AUTO-CI RHF CISDT and CCSDT, approximate NEVPT4
  Christian Kollmar      : KDIIS, OOCD, Brueckner-CCSD(T), CCSD density, CASPT2, CASPT2-K, improved NEVPT2 
  Axel Koslowski         : Symmetry handling                             
  Simone Kossmann        : meta-GGA functionals, TD-DFT gradient, OOMP2, (MP2 Hessian; deprecated post 5.0) 
  Lucas Lang             : DCDCAS, Hyperfine gauge corrections, ICE-SOC+SSC
  Marvin Lechner         : AUTO-CI (C++ implementation), FIC-MRCC        
  Spencer Leger          : CASSCF response                               
  Dagmar Lenk            : GEPOL surface, SMD, ORCA-2-JSON               
  Dimitrios Liakos       : Extrapolation schemes; Compound Job, Property file
  Dimitrios Manganas     : Further ROCIS development; embedding schemes. LFT, Crystal Embedding 
  Dimitrios Pantazis     : SARC Basis sets                               
  Anastasios Papadopoulos: AUTO-CI, single reference methods and gradients 
  Taras Petrenko         : pre 6.0 DFT Hessian and TD-DFT gradient,  ECA, NRVS 
  Petra Pikulova         : Analytic Raman intensities                    
  Peter Pinski           : DLPNO-MP2, DLPNO-MP2 Gradient                 
  Shashank Vittal Rao    : ES-AILFT, MagRelax                            
  Christoph Reimann      : Effective Core Potentials                     
  Marius Retegan         : Local ZFS, SOC                                
  Christoph Riplinger    : Optimizer, TS searches, QM/MM, DLPNO-CCSD(T), (RO)-DLPNO pert. Triples 
  Michael Roemelt        : Original ROCIS implementation, recursive CI coupling coefficients
  Masaaki Saitow         : Open-shell DLPNO-CCSD energy and density      
  Barbara Sandhoefer     : DKH picture change effects                    
  Yorick L. A. Schmerwitz: GMF and freeze-and-release deltaSCF, NEB S-IDPP initial path                    
  Kantharuban Sivalingam : CASSCF convergence/infrastructure, NEVPT2, NEVPT3, NEVPT4(SD), FIC-MRCI and CEPA variants
  Bernardo de Souza      : ESD, SOC TD-DFT                               
  Georgi L. Stoychev     : AutoAux, RI-MP2 NMR, DLPNO-MP2 response, X2C  
  Van Anh Tran           : RI-MP2 g-tensors                              
  Willem Van den Heuvel  : Paramagnetic NMR                              
  Zikuan Wang            : NOTCH, Electric field optimization            
  Frank Wennmohs         : Technical directorship and infrastructure     
  Hang Xu                : AUTO-CI-Response properties                   
                                                                         
[FACCTs GmbH]                                                            
  Markus Bursch, Nicolas Foglia, Miquel Garcia-Rates, Ingolf Harden, Hagen Neugebauer, Anastasios Papadopoulos, 
  Christoph Riplinger, Bernardo de Souza, Georgi L. Stoychev                                                    
                                                                 
  APM, various basis sets, CI-OPT, improved COSX, DLPNO-Multilevel,           
  DOCKER, DRACO, updates on ESD, Fragmentator, GOAT, IRC, LR-CPCM, L-BFGS, MBIS, meta-GGA TD-DFT gradient, ML-optimized integration grids, 
  MM, NACMEs, nearIR, NEB, NEB-TS, NL-DFT gradient (VV10), 2- and 3-layer-ONIOM, interface openCOSMO-RS, QMMM,   
  Crystal-QMMM, RESP, rigid body optimization, SF, symmetry and pop. for TD-DFT, various functionals, SOLVATOR                                   
                                                                         
[Other institutions]                                                     
  V. Asgeirsson          : NEB                                           
  Christoph Bannwarth    : sTDA-DFT, sTD-DFT, PBEh-3c, B97-3c, D3        
  Giovanni Bistoni       : ETS/NOCV, ADLD/ADEX, COVALED                  
  Martin Brehm           : Molecular dynamics                            
  Ronald Cardenas        : ETS/NOCV                                      
  Martina Colucci        : COVALED                                       
  Sebastian Ehlert       : rSCAN, r2SCAN, r2SCAN-3c, D4, dhf basis sets  
  Marvin Friede          : D4 for Fr, Ra, Ac-Lr                          
  Lars Goerigk           : TD-DFT with DH, B97 family of functionals     
  Stefan Grimme          : VdW corrections, initial TS optimization, DFT functionals, gCP, sTDA/sTD-DF 
  Waldemar Hujo          : DFT-NL                                        
  H. Jonsson             : NEB                                           
  Holger Kruse           : gCP                                           
  Marcel Mueller         : wB97X-3c, vDZP basis set                      
  Hagen Neugebauer       : wr2SCAN, Native XTB                           
  Gianluca Regni         : ADLD/ADEX                                     
  Tobias Risthaus        : pre 6.0 range-separated hybrid DFT and stability analysis
  Lukas Wittmann         : regularized MP2, r2SCAN double-hybrids, wr2SCAN        
                                                                         
We gratefully acknowledge several colleagues who have allowed us to      
interface, adapt or use parts of their codes:                            
  Ed Valeev, F. Pavosevic, A. Kumar             : LibInt (2-el integral package), F12 methods 
  Garnet Chan, S. Sharma, J. Yang, R. Olivares  : DMRG                   
  Ulf Ekstrom                                   : XCFun DFT Library      
  Mihaly Kallay                                 : mrcc  (arbitrary order and MRCC methods)
  Frank Weinhold                                : gennbo (NPA and NBO analysis)           
  Simon Mueller                                 : openCOSMO-RS                            
  Christopher J. Cramer and Donald G. Truhlar   : smd solvation model                     
  S Lehtola, MJT Oliveira, MAL Marques          : LibXC Library                           
  Liviu Ungur et al                             : ANISO software                          


 Your calculation uses the libint2 library for the computation of 2-el integrals
 For citations please refer to: http://libint.valeyev.net

 Your ORCA version has been built with support for libXC version: 7.0.0
 For citations please refer to: https://libxc.gitlab.io

 This ORCA versions uses:
   CBLAS   interface :  Fast vector & matrix operations
   LAPACKE interface :  Fast linear algebra routines
   SCALAPACK package :  Parallel linear algebra routines
   Shared memory     :  Shared parallel matrices
   BLAS/LAPACK       :  OpenBLAS 0.3.29  USE64BITINT DYNAMIC_ARCH NO_AFFINITY SkylakeX SINGLE_THREADED
        Core in use  :  SkylakeX
   Copyright (c) 2011-2014, The OpenBLAS Project


  ***********************************
  * Starting time: Thu Mar 12 13:41:03 2026
  * Host name:     midway3-login4.rcc.local
  * Process ID:    3176651
  * Working dir.:  /home/rzhu16/orca_TS_search/sn2_i_cl/DFT_test
  ***********************************

Your calculation utilizes the geometrical counterpoise correction gCP
Please cite in your paper:
H.Kruse, S. Grimme J.Chem.Phys., 136, (2012), 154101 
   

Your calculation utilizes the atom-pairwise dispersion correction
based on EEQ partial charges (D4)


================================================================================

cite the ECPs for I  [Def2-ECP] as follows:
Ce-Yb(ecp-28): M. Dolg, H. Stoll, H.Preuss, J. Chem. Phys., 1989, 90, 1730-1734.
Y-Cd(ecp-28), Hf-Hg(ecp-46): D. Andrae,U. Haeussermann, M. Dolg, H. Stoll, H. Preuss, Theor. Chim. Acta, 1990, 77, 123-141.
In-Sb(ecp-28), Tl-Bi(ecp-46): B. Metz, H. Stoll, M. Dolg, J. Chem. Phys., 2000, 113, 2563-2569.
Te-Xe(ecp-28), Po-Rn(ecp-46): K. A. Peterson, D. Figgen, E. Goll, H. Stoll, M. Dolg, J. Chem. Phys., 2003, 119, 11113-11123.
Rb(ecp-28), Cs(ecp-46): T. Leininger, A. Nicklass, W. Kuechle, H. Stoll, M. Dolg, A. Bergner, Chem. Phys. Lett., 1996, 255, 274-280.
Sr(ecp-28), Ba(ecp-46): M. Kaupp, P. V. Schleyer, H. Stoll and H. Preuss, J. Chem. Phys., 1991, 94, 1360-1366.
La(ecp-46): M. Dolg, H. Stoll, A. Savin, H. Preuss, Theor. Chim. Acta, 1989, 75, 173-194.
Lu(ecp-28): X. Cao, M. Dolg, J. Chem. Phys., 2001, 115, 7348-7355.
Fr-Ra(ecp-78) K. Eichkorn, F. Weigend, O. Treutler, R. Ahlrichs, Theor. Chem. Acc. 1997, 97, 119.
Ac-Lr(ecp-60) K. Eichkorn, F. Weigend, O. Treutler, R. Ahlrichs, Theor. Chem. Acc. 1997, 97, 119.

ECP parameters for I  [Def2-ECP] have been obtained from:
TURBOMOLE (7.0.2)

----- Orbital basis set information -----
Your calculation utilizes the basis: def2-mTZVPP
   Stefan Grimme, Andreas Hansen, Sebastian Ehlert, and Jan-Michael Mewes 
   J. Chem. Phys. 154, 064103 (2021). DOI: 10.1063/5.0040021

----- AuxJ basis set information -----
Your calculation utilizes the basis: def2-mTZVPP/J
   Stefan Grimme, Andreas Hansen, Sebastian Ehlert, and Jan-Michael Mewes 
   J. Chem. Phys. 154, 000000 (2021). DOI: 10.1063/5.0040021

================================================================================
                                        WARNINGS
                       Please study these warnings very carefully!
================================================================================



WARNING: SCAN, rSCAN, or r2SCAN functional requested.
  ===> : libXC variant has now been activated.



WARNING: Geometry Optimization
  ===> : Switching off AutoStart
         For restart on a previous wavefunction, please use MOREAD

================================================================================
                                       INPUT FILE
================================================================================
NAME = reactant_optfreq.inp
|  1> ! r2SCAN-3c Opt Freq PAL8 TightSCF
|  2> 
|  3> %pal
|  4>    nprocs 8
|  5> end
|  6> 
|  7> %scf
|  8>    MaxIter 150
|  9> end
| 10> 
| 11> * xyz -1 1
| 12>   C      -0.000134     -0.000090     -0.431793
| 13>   H      -0.000072      1.028059     -0.092401
| 14>   H       0.890318     -0.514135     -0.092383
| 15>   H      -0.890411     -0.514103     -0.092424
| 16>   I       0.000008      0.000004      2.791114
| 17>   Cl     -0.000055     -0.000073     -2.216742
| 18> *
| 19> 
| 20>                          ****END OF INPUT****
================================================================================

                       *****************************
                       * Geometry Optimization Run *
                       *****************************

Geometry optimization settings:
Update method            Update   .... BFGS
Choice of coordinates    CoordSys .... (2022) Redundant Internals
Initial Hessian          InHess   .... Almloef's Model
Max. no of cycles        MaxIter  .... 50

Convergence Tolerances:
Energy Change            TolE     ....  5.0000e-06 Eh
Max. Gradient            TolMAXG  ....  3.0000e-04 Eh/bohr
RMS Gradient             TolRMSG  ....  1.0000e-04 Eh/bohr
Max. Displacement        TolMAXD  ....  4.0000e-03 bohr
RMS Displacement         TolRMSD  ....  2.0000e-03 bohr
Strict Convergence                .... False

------------------------------------------------------------------------------
                        ORCA OPTIMIZATION COORDINATE SETUP
------------------------------------------------------------------------------

The optimization will be done in redundant internal coordinates (2022)
Making redundant internal coordinates   ...  (2022 redundants) done
Evaluating the initial hessian          ...  (Almloef) done
Evaluating the coordinates              ...  done
Calculating the B-matrix                .... done
Calculating the G-matrix                .... done
The number of degrees of freedom        ....   17

    -----------------------------------------------------------------
                    Redundant Internal Coordinates


    -----------------------------------------------------------------
         Definition                    Initial Value    Approx d2E/dq
    -----------------------------------------------------------------
      1. B(H   1,C   0)                  1.0827         0.369864   
      2. B(H   2,C   0)                  1.0827         0.369821   
      3. B(H   3,C   0)                  1.0826         0.370054   
      4. B(I   4,H   1)                  3.0613         0.010000   
      5. B(I   4,H   2)                  3.0613         0.010000   
      6. B(I   4,H   3)                  3.0614         0.010000   
      7. B(I   4,C   0)                  3.2229         0.010000   
      8. B(Cl  5,C   0)                  1.7849         0.328563   
      9. A(H   1,C   0,H   3)          110.6499         0.293322   
     10. A(H   2,C   0,H   3)          110.6482         0.293317   
     11. A(H   1,C   0,Cl  5)          108.2675         0.332233   
     12. A(H   2,C   0,Cl  5)          108.2666         0.332227   
     13. A(H   3,C   0,Cl  5)          108.2717         0.332261   
     14. A(H   1,C   0,I   4)           71.7303         0.171708   
     15. A(H   2,C   0,I   4)           71.7301         0.171706   
     16. A(H   3,C   0,I   4)           71.7338         0.171717   
     17. A(H   1,C   0,H   2)          110.6417         0.293293   
    -----------------------------------------------------------------

Number of atoms                         .... 6
Number of degrees of freedom            .... 17


         *************************************************************
         *                GEOMETRY OPTIMIZATION CYCLE   1            *
         *************************************************************
---------------------------------
CARTESIAN COORDINATES (ANGSTROEM)
---------------------------------
  C     -0.000134   -0.000090   -0.431793
  H     -0.000072    1.028059   -0.092401
  H      0.890318   -0.514135   -0.092383
  H     -0.890411   -0.514103   -0.092424
  I      0.000008    0.000004    2.791114
  Cl    -0.000055   -0.000073   -2.216742

----------------------------
CARTESIAN COORDINATES (A.U.)
----------------------------
  NO LB      ZA    FRAG     MASS         X           Y           Z
   0 C     6.0000    0    12.011   -0.000253   -0.000170   -0.815971
   1 H     1.0000    0     1.008   -0.000136    1.942750   -0.174613
   2 H     1.0000    0     1.008    1.682457   -0.971574   -0.174579
   3 H     1.0000    0     1.008   -1.682633   -0.971514   -0.174656
   4 I    25.0000*   0   126.900    0.000015    0.000008    5.274441
   5 Cl   17.0000    0    35.453   -0.000104   -0.000138   -4.189035
* core charge reduced due to ECP

--------------------------------
INTERNAL COORDINATES (ANGSTROEM)
--------------------------------
 C      0   0   0     0.000000000000     0.00000000     0.00000000
 H      1   0   0     1.082717553062     0.00000000     0.00000000
 H      1   2   0     1.082749359007   110.64169817     0.00000000
 H      1   2   3     1.082577396337   110.64990219   123.00148635
 I      3   1   2     3.061298050898    88.64499345    61.50097932
 Cl     1   2   3     1.784949001829   108.26751156   241.50623082

---------------------------
INTERNAL COORDINATES (A.U.)
---------------------------
 C      0   0   0     0.000000000000     0.00000000     0.00000000
 H      1   0   0     2.046039655677     0.00000000     0.00000000
 H      1   2   0     2.046099760201   110.64169817     0.00000000
 H      1   2   3     2.045774797850   110.64990219   123.00148635
 I      3   1   2     5.785014930504    88.64499345    61.50097932
 Cl     1   2   3     3.373064776473   108.26751156   241.50623082

---------------------
BASIS SET INFORMATION
---------------------
There are 4 groups of distinct atoms

 Group   1 Type C   : 11s6p1d contracted to 5s3p1d pattern {62111/411/1}
 Group   2 Type H   : 4s1p contracted to 2s1p pattern {31/1}
 Group   3 Type I   : 11s10p8d contracted to 6s5p3d pattern {521111/34111/611}
 Group   4 Type Cl  : 14s9p2d contracted to 5s4p2d pattern {73211/6111/11}

Atom   0C    basis set group =>   1
Atom   1H    basis set group =>   2
Atom   2H    basis set group =>   2
Atom   3H    basis set group =>   2
Atom   4I    basis set group =>   3
Atom   5Cl   basis set group =>   4
---------------------------------
AUXILIARY/J BASIS SET INFORMATION
---------------------------------
There are 4 groups of distinct atoms

 Group   1 Type C   : 8s3p3d contracted to 6s3p3d pattern {311111/111/111}
 Group   2 Type H   : 5s2p1d contracted to 3s1p1d pattern {311/2/1}
 Group   3 Type I   : 11s5p5d3f1g contracted to 8s4p3d2f1g pattern {41111111/2111/311/21/1}
 Group   4 Type Cl  : 14s5p5d2f contracted to 8s4p3d1f pattern {71111111/2111/311/2}

Atom   0C    basis set group =>   1
Atom   1H    basis set group =>   2
Atom   2H    basis set group =>   2
Atom   3H    basis set group =>   2
Atom   4I    basis set group =>   3
Atom   5Cl   basis set group =>   4
-------------------------
ECP PARAMETER INFORMATION
-------------------------

 Group 1, Type I  ECP Def2-ECP (replacing 28 core electrons, lmax=3)

Atom   4I    ECP group =>   1



           ************************************************************
           *        Program running with 8 parallel MPI-processes     *
           *              working on a common directory               *
           ************************************************************
------------------------------------------------------------------------------
                             ORCA STARTUP CALCULATIONS
                           -- RI-GTO INTEGRALS CHOSEN --
------------------------------------------------------------------------------
------------------------------------------------------------------------------
                   ___                                                        
                  /   \      - P O W E R E D   B Y -                         
                 /     \                                                     
                 |  |  |   _    _      __       _____    __    __             
                 |  |  |  | |  | |    /  \     |  _  \  |  |  /  |          
                  \  \/   | |  | |   /    \    | | | |  |  | /  /          
                 / \  \   | |__| |  /  /\  \   | |_| |  |  |/  /          
                |  |  |   |  __  | /  /__\  \  |    /   |      \           
                |  |  |   | |  | | |   __   |  |    \   |  |\   \          
                \     /   | |  | | |  |  |  |  | |\  \  |  | \   \       
                 \___/    |_|  |_| |__|  |__|  |_| \__\ |__|  \__/        
                                                                              
                      - O R C A' S   B I G   F R I E N D -                    
                                      &                                       
                       - I N T E G R A L  F E E D E R -                       
                                                                              
 v1 FN, 2020, v2 2021, v3 2022-2024                                           
------------------------------------------------------------------------------


----------------------
SHARK INTEGRAL PACKAGE
----------------------

Number of atoms                             ...      6
Number of basis functions                   ...     97
Number of shells                            ...     43
Maximum angular momentum                    ...      2
Integral batch strategy                     ... SHARK/LIBINT Hybrid
RI-J (if used) integral strategy            ... SPLIT-RIJ (Revised 2003 algorithm where possible)
Printlevel                                  ...      1
Contraction scheme used                     ... SEGMENTED contraction
Prescreening option                         ... SCHWARTZ
   Thresh                                   ... 2.500e-11
   Tcut                                     ... 2.500e-12
   Tpresel                                  ... 2.500e-12 
Coulomb Range Separation                    ... NOT USED
Exchange Range Separation                   ... NOT USED
Multipole approximations                    ... NOT USED
Finite Nucleus Model                        ... NOT USED
CABS basis                                  ... NOT available
Auxiliary Coulomb fitting basis             ... AVAILABLE
   # of basis functions in Aux-J            ...    163
   # of shells in Aux-J                     ...     61
   Maximum angular momentum in Aux-J        ...      4
Auxiliary J/K fitting basis                 ... NOT available
Auxiliary Correlation fitting basis         ... NOT available
Auxiliary 'external' fitting basis          ... NOT available

Checking pre-screening integrals            ... done (  0.0 sec) Dimension = 43
   => SHARK Basis and OBASIS are compatible. Storing Pre-screening
Shell pair information
Shell pair cut-off parameter TPreSel        ...   2.5e-12
Total number of shell pairs                 ...       946
Shell pairs after pre-screening             ...       855
Total number of primitive shell pairs       ...      3934
Primitive shell pairs kept                  ...      2706
          la=0 lb=0:    224 shell pairs
          la=1 lb=0:    296 shell pairs
          la=1 lb=1:    111 shell pairs
          la=2 lb=0:    119 shell pairs
          la=2 lb=1:     85 shell pairs
          la=2 lb=2:     20 shell pairs

Checking whether 4 symmetric matrices of dimension 97 fit in memory
:Max Core in MB      =   4096.00
 MB in use           =      4.40
 MB left             =   4091.60
 MB needed           =      0.15
 Data fit in memory  = YES
Calculating RI/J V-Matrix + Cholesky decomp.... done (  0.1 sec)
Calculating Nuclear repulsion               ... done (  0.0 sec) ENN=    133.867025323230 Eh

Diagonalization of the overlap matrix:
Smallest eigenvalue                        ... 4.847e-03
Time for diagonalization                   ...    0.001 sec
Threshold for overlap eigenvalues          ... 1.000e-07
Number of eigenvalues below threshold      ... 0
Time for construction of square roots      ...    0.001 sec
Total time needed                          ...    0.002 sec

-------------------
DFT GRID GENERATION
-------------------

General Integration Accuracy     IntAcc      ... 4.388
Radial Grid Type                 RadialGrid  ... OptM3 with GC (2021)
Angular Grid (max. ang.)         AngularGrid ... 4 (Lebedev-302)
Angular grid pruning method      GridPruning ... 4 (adaptive)
Weight generation scheme         WeightScheme... mBecke (2022)
Basis function cutoff            BFCut       ... 1.0000e-11
Integration weight cutoff        WCut        ... 1.0000e-14
Partially contracted basis set               ... off
Rotationally invariant grid construction     ... off
Angular grids for H and He will be reduced by one unit

Total number of grid points                  ...    34867
Total number of batches                      ...      548
Average number of points per batch           ...       63
Average number of grid points per atom       ...     5811
Grids setup in   0.9 sec
Initializing property integral containers    ... done (  0.0 sec)

SHARK setup successfully completed in   1.4 seconds

Maximum memory used throughout the entire STARTUP-calculation: 12.7 MB


           ************************************************************
           *        Program running with 8 parallel MPI-processes     *
           *              working on a common directory               *
           ************************************************************
-------------------------------------------------------------------------------
                                 ORCA GUESS
                   Start orbitals & Density for SCF / CASSCF
-------------------------------------------------------------------------------

------------
SCF SETTINGS
------------
Hamiltonian:
 Density Functional     Method          .... DFT(GTOs)
  Functional kind                       .... Exchange
  Functional name                       .... Re-regularized SCAN exchange by Furness et al
  Functional family                     .... MGGA
  Functional refs                              
    [ 0] J. W. Furness, A. D. Kaplan, J. Ning, J. P. Perdew, and J. Sun.,  J. Phys. Chem. Lett. 11, 8208-8215 (2020), doi: 10.1021/acs.jpclett.0c02405
    [ 1] J. W. Furness, A. D. Kaplan, J. Ning, J. P. Perdew, and J. Sun.,  J. Phys. Chem. Lett. 11, 9248-9248 (2020), doi: 10.1021/acs.jpclett.0c03077
  Functional external parameters        .... 6
    Parameter  0 _c1        =  6.670000e-01 : c1 parameter        
    Parameter  1 _c2        =  8.000000e-01 : c2 parameter        
    Parameter  2 _d         =  1.240000e+00 : d parameter         
    Parameter  3 _k1        =  6.500000e-02 : k1 parameter        
    Parameter  4 _eta       =  1.000000e-03 : eta parameter       
    Parameter  5 _dp2       =  3.610000e-01 : dp2 parameter       
  Functional kind                       .... Correlation
  Functional name                       .... Re-regularized SCAN correlation by Furness et al
  Functional family                     .... MGGA
  Functional refs                              
    [ 0] J. W. Furness, A. D. Kaplan, J. Ning, J. P. Perdew, and J. Sun.,  J. Phys. Chem. Lett. 11, 8208-8215 (2020), doi: 10.1021/acs.jpclett.0c02405
    [ 1] J. W. Furness, A. D. Kaplan, J. Ning, J. P. Perdew, and J. Sun.,  J. Phys. Chem. Lett. 11, 9248-9248 (2020), doi: 10.1021/acs.jpclett.0c03077
  Functional external parameters        .... 1
    Parameter  0 _eta       =  1.000000e-03 : Regularization parameter
 Gradients option       PostSCFGGA      .... off
 RI-approximation to the Coulomb term is turned on
   Number of AuxJ basis functions       .... 163


General Settings:
 Integral files         IntName         .... reactant_optfreq
 Hartree-Fock type      HFTyp           .... RHF
 Total Charge           Charge          ....   -1
 Multiplicity           Mult            ....    1
 Number of Electrons    NEL             ....   52
 Basis Dimension        Dim             ....   97
 Nuclear Repulsion      ENuc            ....    133.8670253232 Eh

Convergence Acceleration:
 AO-DIIS                CNVDIIS         .... on
   Start iteration      DIISMaxIt       ....    12
   Startup error        DIISStart       ....  0.200000
   # of expansion vecs  DIISMaxEq       ....     5
   Bias factor          DIISBfac        ....   1.050
   Max. coefficient     DIISMaxC        ....  10.000
 MO-DIIS                CNVKDIIS        .... off
 Trust-Rad. Augm. Hess. CNVTRAH         .... auto
   Auto Start mean grad. ratio tolernc. ....  1.125000
   Auto Start start iteration           ....    50
   Auto Start num. interpolation iter.  ....    10
   Max. Number of Micro iterations      ....    24
   Max. Number of Macro iterations      .... Maxiter - #DIIS iter
   Number of Davidson start vectors     ....     2
   Converg. threshold    (grad. norm)   ....   1.000e-05
   Grad. Scal. Fac. for Micro threshold ....   0.100
   Minimum threshold for Micro iter.    ....   1.000e-02
   NR start threshold (gradient norm)   ....   1.000e-04
   Initial trust radius                 ....   0.400
   Minimum AH scaling param. (alpha)    ....   1.000
   Maximum AH scaling param. (alpha)    .... 1000.000
   Quad. conv. algorithm                .... NR
   White noise on init. David. guess    .... on
   Maximum white noise                  ....   0.010
   Pseudo random numbers                .... off
   Inactive MOs                         .... canonical
   Orbital update algorithm             .... Taylor
   Preconditioner                       .... Diag
   Full preconditioner red. dimension   ....   250
   COSX micro iterations for RIJONX calc.... off
 SOSCF                 CNVSOSCF           .... on
   Start iteration     SOSCFMaxIt         ....   150
   Startup grad/error  SOSCFStart         ....  0.003300
   Hessian update      SOSCFHessUp        .... L-BFGS
   Autom. constraints  SOSCFAutoConstrain .... off
 Level Shifting         CNVShift        .... on
   Level shift para.    LevelShift      ....    0.2500
   Turn off err/grad.   ShiftErr        ....    0.0010
 Zerner damping         CNVZerner       .... off
 Static damping         CNVDamp         .... on
   Fraction old density DampFac         ....    0.7000
   Max. Damping (<1)    DampMax         ....    0.9800
   Min. Damping (>=0)   DampMin         ....    0.0000
   Turn off err/grad.   DampErr         ....    0.1000

SCF Procedure:
 Maximum # iterations   MaxIter         ....   150
 SCF integral mode      SCFMode         .... Direct
   Integral package                     .... SHARK and LIBINT hybrid scheme
 Reset frequency        DirectResetFreq ....    20
 Integral Threshold     Thresh          ....  2.500e-11 Eh
 Primitive CutOff       TCut            ....  2.500e-12 Eh

Convergence Tolerance:
 Convergence Check Mode ConvCheckMode   .... Total+1el-Energy
 Convergence forced     ConvForced      .... 0
 Energy Change          TolE            ....  1.000e-08 Eh
 1-El. energy change                    ....  1.000e-05 Eh
 Orbital Gradient       TolG            ....  1.000e-05
 Orbital Rotation angle TolX            ....  1.000e-05
 DIIS Error             TolErr          ....  5.000e-07

------------------------------
INITIAL GUESS: MODEL POTENTIAL
------------------------------
Loading Hartree-Fock densities                     ... done
Atomic calculation to generate a density for atom 4 (I  with ECP)
  Multiplicity assumed   :    2
  Atomic configuration   : 1s2 2s2 2p6 3s2 3p6 4s2 3d10 4p6 5s2 4d10 5p5 
  Number of open shells  : 1
  Command: /software/orca-6.1.0-el8-x86_64/bin/orca reactant_optfreq_atom53.inp "" > reactant_optfreq_atom53.out
Returned from the atomic calculation with res=0
Calculating cut-offs                               ... done
Initializing the effective Hamiltonian             ... done
Setting up the integral package (SHARK)            ... done
Starting the Coulomb interaction                   ... done (   0.0 sec)
Making the grid                                    ... done (   0.4 sec)
Mapping shells                                     ... done
Starting the XC term evaluation                    ... done (   0.1 sec)
  promolecular density results
     # of electrons  =     78.997672327
     EX              =   -206.470596985
     EC              =     -3.800029416
     EX+EC           =   -210.270626400
Transforming the Hamiltonian                       ... done (   0.0 sec)
Diagonalizing the Hamiltonian                      ... done (   0.0 sec)
Back transforming the eigenvectors                 ... done (   0.0 sec)
Now organizing SCF variables                       ... done
                      ------------------
                      INITIAL GUESS DONE (   7.2 sec)
                      ------------------
             **** ENERGY FILE WAS UPDATED (reactant_optfreq.en.tmp) ****
Finished Guess after   7.9 sec
Maximum memory used throughout the entire GUESS-calculation: 7.3 MB


           ************************************************************
           *        Program running with 8 parallel MPI-processes     *
           *              working on a common directory               *
           ************************************************************

-------------------------------------------------------------------------------------------
                                      ORCA LEAN-SCF
                              memory conserving SCF solver
-------------------------------------------------------------------------------------------

----------------------------------------D-I-I-S--------------------------------------------
Iteration    Energy (Eh)           Delta-E    RMSDP     MaxDP     DIISErr   Damp  Time(sec)
-------------------------------------------------------------------------------------------
               ***  Starting incremental Fock matrix formation  ***
    1    -797.7653286013041907     0.00e+00  1.45e-02  1.57e-01  6.01e-01  0.700   0.2
    2    -797.8276816876331168    -6.24e-02  1.10e-02  1.11e-01  4.03e-01  0.700   0.3
    3    -797.8571076940834246    -2.94e-02  6.23e-03  5.14e-02  2.71e-01  0.700   0.2
                               ***Turning on AO-DIIS***
    4    -797.8736986969854570    -1.66e-02  2.88e-03  2.19e-02  1.85e-01  0.700   0.2
    5    -797.8848016809550927    -1.11e-02  1.46e-03  1.31e-02  1.33e-01  0.700   0.2
    6    -797.8927423952130766    -7.94e-03  8.69e-04  7.36e-03  9.41e-02  0.700   0.3
    7    -797.8984824316077038    -5.74e-03  2.71e-03  2.09e-02  6.60e-02  0.000   0.4
    8    -797.9118054153614139    -1.33e-02  5.31e-04  4.46e-03  5.08e-03  0.000   0.6
                              *** Initializing SOSCF ***
---------------------------------------S-O-S-C-F--------------------------------------
Iteration    Energy (Eh)           Delta-E    RMSDP     MaxDP     MaxGrad    Time(sec)
--------------------------------------------------------------------------------------
    9    -797.9118566006309266    -5.12e-05  1.55e-04  1.79e-03  1.68e-03     0.6
               *** Restarting incremental Fock matrix formation ***
   10    -797.9118616378518709    -5.04e-06  1.21e-04  1.05e-03  2.38e-04     0.4
   11    -797.9118613996589602     2.38e-07  6.04e-05  5.17e-04  2.77e-04     0.2
   12    -797.9118620787683085    -6.79e-07  2.28e-05  2.11e-04  3.92e-05     0.2
   13    -797.9118620734764136     5.29e-09  1.40e-05  1.33e-04  4.26e-05     0.3
                 **** Energy Check signals convergence ****

               *****************************************************
               *                     SUCCESS                       *
               *           SCF CONVERGED AFTER  13 CYCLES          *
               *****************************************************

             **** ENERGY FILE WAS UPDATED (reactant_optfreq.en.tmp) ****

----------------
TOTAL SCF ENERGY
----------------

Total Energy       :       -797.91186209364446 Eh          -21712.28560 eV

Components:
Nuclear Repulsion  :        133.86702532322977 Eh            3642.70695 eV
Electronic Energy  :       -931.77888741687423 Eh          -25354.99255 eV
One Electron Energy:      -1482.99256186078674 Eh          -40354.27918 eV
Two Electron Energy:        551.21367444391251 Eh           14999.28663 eV

Virial components:
Potential Energy   :      -1409.01082083828305 Eh          -38341.13366 eV
Kinetic Energy     :        611.09895874463848 Eh           16628.84806 eV
Virial Ratio       :          2.30569992089787

DFT components:
N(Alpha)           :       25.999989561234 electrons
N(Beta)            :       25.999989561234 electrons
N(Total)           :       51.999979122468 electrons
E(X)               :      -55.272880390761 Eh       
E(C)               :       -2.010883349675 Eh       
E(XC)              :      -57.283763740436 Eh       

---------------
SCF CONVERGENCE
---------------

  Last Energy change         ...   -5.2919e-09  Tolerance :   1.0000e-08
  Last MAX-Density change    ...    1.3329e-04  Tolerance :   1.0000e-07
  Last RMS-Density change    ...    1.4035e-05  Tolerance :   5.0000e-09
  Last DIIS Error            ...    1.6798e-03  Tolerance :   5.0000e-07
  Last Orbital Gradient      ...    4.2616e-05  Tolerance :   1.0000e-05
  Last Orbital Rotation      ...    2.9430e-05  Tolerance :   1.0000e-05


----------------
ORBITAL ENERGIES
----------------

  NO   OCC          E(Eh)            E(eV) 
   0   2.0000    -101.072064     -2750.3107 
   1   2.0000      -9.937279      -270.4071 
   2   2.0000      -9.229000      -251.1339 
   3   2.0000      -6.974842      -189.7951 
   4   2.0000      -6.965104      -189.5301 
   5   2.0000      -6.965103      -189.5301 
   6   2.0000      -6.559905      -178.5041 
   7   2.0000      -4.567793      -124.2960 
   8   2.0000      -4.567461      -124.2869 
   9   2.0000      -4.567460      -124.2869 
  10   2.0000      -1.605104       -43.6771 
  11   2.0000      -1.604993       -43.6741 
  12   2.0000      -1.604993       -43.6741 
  13   2.0000      -1.604603       -43.6635 
  14   2.0000      -1.604602       -43.6634 
  15   2.0000      -0.681904       -18.5555 
  16   2.0000      -0.499727       -13.5983 
  17   2.0000      -0.397382       -10.8133 
  18   2.0000      -0.273948        -7.4545 
  19   2.0000      -0.273917        -7.4537 
  20   2.0000      -0.253641        -6.9019 
  21   2.0000      -0.140594        -3.8257 
  22   2.0000      -0.140586        -3.8255 
  23   2.0000      -0.022433        -0.6104 
  24   2.0000      -0.022433        -0.6104 
  25   2.0000      -0.022388        -0.6092 
  26   0.0000       0.154049         4.1919 
  27   0.0000       0.230125         6.2620 
  28   0.0000       0.302030         8.2186 
  29   0.0000       0.302085         8.2202 
  30   0.0000       0.320645         8.7252 
  31   0.0000       0.320660         8.7256 
  32   0.0000       0.339079         9.2268 
  33   0.0000       0.375714        10.2237 
  34   0.0000       0.375717        10.2238 
  35   0.0000       0.375922        10.2294 
  36   0.0000       0.425492        11.5782 
*Only the first 10 virtual orbitals were printed.

                    ********************************
                    * MULLIKEN POPULATION ANALYSIS *
                    ********************************

-----------------------
MULLIKEN ATOMIC CHARGES
-----------------------
   0 C :   -0.308849
   1 H :    0.181811
   2 H :    0.181824
   3 H :    0.181832
   4 I :   -0.939119
   5 Cl:   -0.297499
Sum of atomic charges:   -1.0000000

--------------------------------
MULLIKEN REDUCED ORBITAL CHARGES
--------------------------------
  0 C s       :     3.292657  s :     3.292657
      pz      :     0.722244  p :     2.983951
      px      :     1.130864
      py      :     1.130843
      dz2     :     0.012099  d :     0.032241
      dxz     :     0.005762
      dyz     :     0.005762
      dx2y2   :     0.004309
      dxy     :     0.004309

  1 H s       :     0.799100  s :     0.799100
      pz      :     0.004709  p :     0.019089
      px      :     0.003583
      py      :     0.010796

  2 H s       :     0.799089  s :     0.799089
      pz      :     0.004709  p :     0.019087
      px      :     0.008993
      py      :     0.005386

  3 H s       :     0.799074  s :     0.799074
      pz      :     0.004711  p :     0.019094
      px      :     0.008995
      py      :     0.005388

  4 I s       :     3.989802  s :     3.989802
      pz      :     3.950553  p :    11.944582
      px      :     3.997015
      py      :     3.997014
      dz2     :     2.002414  d :    10.004735
      dxz     :     2.001144
      dyz     :     2.001144
      dx2y2   :     2.000016
      dxy     :     2.000016

  5 Cls       :     5.932890  s :     5.932890
      pz      :     3.349879  p :    11.315394
      px      :     3.982757
      py      :     3.982758
      dz2     :     0.020257  d :     0.049214
      dxz     :     0.014302
      dyz     :     0.014303
      dx2y2   :     0.000176
      dxy     :     0.000176



                     *******************************
                     * LOEWDIN POPULATION ANALYSIS *
                     *******************************

----------------------
LOEWDIN ATOMIC CHARGES
----------------------
   0 C :   -0.493779
   1 H :    0.159607
   2 H :    0.159618
   3 H :    0.159587
   4 I :   -0.880465
   5 Cl:   -0.104569

-------------------------------
LOEWDIN REDUCED ORBITAL CHARGES
-------------------------------
  0 C s       :     3.059757  s :     3.059757
      pz      :     0.972593  p :     3.358281
      px      :     1.192849
      py      :     1.192839
      dz2     :     0.028023  d :     0.075741
      dxz     :     0.013226
      dyz     :     0.013225
      dx2y2   :     0.010634
      dxy     :     0.010634

  1 H s       :     0.794196  s :     0.794196
      pz      :     0.009702  p :     0.046196
      px      :     0.008287
      py      :     0.028207

  2 H s       :     0.794189  s :     0.794189
      pz      :     0.009701  p :     0.046193
      px      :     0.023227
      py      :     0.013265

  3 H s       :     0.794201  s :     0.794201
      pz      :     0.009705  p :     0.046212
      px      :     0.023234
      py      :     0.013273

  4 I s       :     3.969470  s :     3.969470
      pz      :     3.910569  p :    11.899243
      px      :     3.994337
      py      :     3.994337
      dz2     :     2.006310  d :    10.011752
      dxz     :     2.002680
      dyz     :     2.002681
      dx2y2   :     2.000040
      dxy     :     2.000040

  5 Cls       :     5.701305  s :     5.701305
      pz      :     3.378293  p :    11.296296
      px      :     3.959002
      py      :     3.959002
      dz2     :     0.052739  d :     0.106967
      dxz     :     0.026869
      dyz     :     0.026870
      dx2y2   :     0.000245
      dxy     :     0.000245



                      *****************************
                      * MAYER POPULATION ANALYSIS *
                      *****************************

  NA   - Mulliken gross atomic population
  ZA   - Total nuclear charge
  QA   - Mulliken gross atomic charge
  VA   - Mayer's total valence
  BVA  - Mayer's bonded valence
  FA   - Mayer's free valence

  ATOM       NA         ZA         QA         VA         BVA        FA
  0 C      6.3088     6.0000    -0.3088     3.8349     3.8349     0.0000
  1 H      0.8182     1.0000     0.1818     0.9477     0.9477     0.0000
  2 H      0.8182     1.0000     0.1818     0.9477     0.9477    -0.0000
  3 H      0.8182     1.0000     0.1818     0.9476     0.9476     0.0000
  4 I     25.9391    25.0000    -0.9391     0.1186     0.1186    -0.0000
  5 Cl    17.2975    17.0000    -0.2975     0.9265     0.9265    -0.0000

  Mayer bond orders larger than 0.100000
B(  0-C ,  1-H ) :   0.9518 B(  0-C ,  2-H ) :   0.9518 B(  0-C ,  3-H ) :   0.9518 
B(  0-C ,  5-Cl) :   0.8873 

-------
TIMINGS
-------

Total SCF time: 0 days 0 hours 0 min 5 sec 

Total time                  ....       5.067 sec
Sum of individual times     ....       4.496 sec  ( 88.7%)

SCF preparation             ....       0.392 sec  (  7.7%)
Fock matrix formation       ....       3.245 sec  ( 64.0%)
  Startup                   ....       0.015 sec  (  0.5% of F)
  Split-RI-J                ....       0.695 sec  ( 21.4% of F)
  XC integration            ....       2.539 sec  ( 78.2% of F)
    XC Preparation          ....       0.000 sec  (  0.0% of XC)
    Basis function eval.    ....       0.439 sec  ( 17.3% of XC)
    Density eval.           ....       0.346 sec  ( 13.6% of XC)
    XC-Functional eval.     ....       0.476 sec  ( 18.8% of XC)
    XC-Potential eval.      ....       0.435 sec  ( 17.1% of XC)
Diagonalization             ....       0.000 sec  (  0.0%)
Density matrix formation    ....       0.183 sec  (  3.6%)
Total Energy calculation    ....       0.106 sec  (  2.1%)
Population analysis         ....       0.075 sec  (  1.5%)
Orbital Transformation      ....       0.018 sec  (  0.4%)
Orbital Orthonormalization  ....       0.000 sec  (  0.0%)
DIIS solution               ....       0.436 sec  (  8.6%)
SOSCF solution              ....       0.041 sec  (  0.8%)
Finished LeanSCF after   5.1 sec

Maximum memory used throughout the entire LEANSCF-calculation: 6.6 MB


           ************************************************************
           *        Program running with 8 parallel MPI-processes     *
           *              working on a common directory               *
           ************************************************************

------------------------------------------------------------------------------
                         ORCA PROPERTY INTEGRAL CALCULATIONS
------------------------------------------------------------------------------

GBWName                                   ... reactant_optfreq.gbw
Number of atoms                           ...      6
Number of basis functions                 ...     97
Max core memory                           ...   4096 MB

Dipole integrals                          ... YES
Quadrupole integrals                      ...  NO
Linear momentum integrals                 ...  NO
Angular momentum integrals                ...  NO
Higher moments length integrals           ...  NO
Higher moments velocity integrals         ...  NO
Kinetic energy integrals                  ...  NO
GIAO right hand sides                     ...  NO
GIAO dipole derivative integrals          ...  NO
SOC integrals                             ...  NO
EPR diamagnetic integrals (GIAO)          ...  NO
EPR gauge integrals                       ...  NO
Field gradient integrals                  ...  NO (   0 nuclei)
Spin-dipole/Fermi contact integrals       ...  NO (   0 nuclei)
Contact density integrals                 ...  NO (   0 nuclei)
Nucleus-orbit integrals                   ...  NO (   0 nuclei)
Geometric perturbations                   ...  NO (   6 nuclei)

Choice of electric origin   ... Center of mass
Position of electric origin ... ( -0.0000, -0.0000,  2.8778) 
Choice of magnetic origin   ... GIAO
Position of magnetic origin ... (  0.0000,  0.0000,  0.0000) 

Calculating integrals                     ... Electric Dipole (Length)     done (  0.0 sec)

Property integrals calculated in   0.0 sec

Maximum memory used throughout the entire PROPINT-calculation: 7.0 MB


-------------------------------------------------------------------------------
                          DFT DISPERSION CORRECTION                            
                                                                               
                                DFTD4 V3.4.0                                   
-------------------------------------------------------------------------------
The R2SCAN3C composite method is recognized
Using three-body term ABC
Active option DFTDOPT                   ...         5   

-------------------------   ----------------
Dispersion correction           -0.001193518
-------------------------   ----------------

------------------   -----------------
gCP correction             0.005606198
------------------   -----------------

-------------------------   --------------------
FINAL SINGLE POINT ENERGY      -797.907449413508
-------------------------   --------------------



           ************************************************************
           *        Program running with 8 parallel MPI-processes     *
           *              working on a common directory               *
           ************************************************************
------------------------------------------------------------------------------
                         ORCA SCF GRADIENT CALCULATION
------------------------------------------------------------------------------

Nuc. rep. gradient        (SHARK) ... done (  0.0 sec)
HCore & Overlap gradient  (SHARK) ... done (  0.0 sec)
ECP gradient              (SHARK) ... done (  0.3 sec)
Split-RIJ-J gradient      (SHARK) ... done (  1.4 sec)
XC gradient                       ... done (  0.5 sec)
Dispersion correction             ... done (  0.2 sec)

-------------------
DISPERSION GRADIENT
-------------------

   1   C   :    0.000000005    0.000000002   -0.000016303
   2   H   :   -0.000000001    0.000001504   -0.000008534
   3   H   :    0.000001302   -0.000000752   -0.000008534
   4   H   :   -0.000001308   -0.000000755   -0.000008534
   5   I   :    0.000000003    0.000000002    0.000107876
   6   Cl  :   -0.000000001   -0.000000001   -0.000065971

Difference to translation invariance:
           :   -0.0000000000    0.0000000000   -0.0000000000

Difference to rotation invariance:
           :   -0.0000000000   -0.0000000000    0.0000000000

Norm of the Dispersion gradient    ...    0.0001283765
RMS gradient                       ...    0.0000302586
MAX gradient                       ...    0.0001078761
gCP correction                   ... done

------------------
CARTESIAN GRADIENT
------------------

   1   C   :   -0.000107456   -0.000063267   -0.012877422
   2   H   :    0.000004827   -0.001954845   -0.003024147
   3   H   :   -0.001686146    0.000986830   -0.003007548
   4   H   :    0.001785000    0.001038338   -0.003039748
   5   I   :    0.000000136   -0.000008997   -0.008757500
   6   Cl  :    0.000003639    0.000001941    0.030706364

Difference to translation invariance:
           :   -0.0000000000   -0.0000000000    0.0000000000

Difference to rotation invariance:
           :    0.0000141968   -0.0000001444   -0.0000000227

Norm of the Cartesian gradient     ...    0.0349964546
RMS gradient                       ...    0.0082487435
MAX gradient                       ...    0.0307063640

-------
TIMINGS
-------

Total SCF gradient time     ....        2.413 sec

Densities                   ....       0.000 sec  (  0.0%)
One electron gradient       ....       0.011 sec  (  0.4%)
RI-J Coulomb gradient       ....       1.400 sec  ( 58.0%)
XC gradient                 ....       0.511 sec  ( 21.2%)

Maximum memory used throughout the entire SCFGRAD-calculation: 26.9 MB
------------------------------------------------------------------------------
                         ORCA GEOMETRY RELAXATION STEP
------------------------------------------------------------------------------

Reading the OPT-File                    .... done
Getting information on internals        .... done
Copying old internal coords+grads       .... done
Making the new internal coordinates     .... (2022 redundants) done
Validating the new internal coordinates .... (2022 redundants) done
Calculating the B-matrix                .... done
Calculating the G,G- and P matrices     .... done
Transforming gradient to internals      .... done
Projecting the internal gradient        .... done
Number of atoms                         ....   6
Number of internal coordinates          ....  17
Current Energy                          ....  -797.907449414 Eh
Current gradient norm                   ....     0.034996455 Eh/bohr
Maximum allowed component of the step   ....  0.300
Current trust radius                    ....  0.300
Evaluating the initial hessian          ....  (Almloef) done
Projecting the Hessian                  .... done
Forming the augmented Hessian           .... done
Diagonalizing the augmented Hessian     .... done
Last element of RFO vector              ....  0.950021864
Lowest eigenvalues of augmented Hessian:
 -0.004639977  0.011415351  0.041191658  0.041197977  0.193355284
Length of the computed step             ....  0.328606514
Warning: the length of the step is outside the trust region - taking restricted step instead
The input lambda is                     ....     0.009000
   iter:   5  x=    0.002818  g=  347.602734 f(x)=     0.779309
   iter:  10  x=   -0.006196  g=   10.032493 f(x)=     0.000572
The output lambda is                    ....    -0.006196 (13 iterations)
The final length of the internal step   ....  0.300000000
Converting the step to Cartesian space:
 Initial RMS(Int)=    0.0727606875
Transforming coordinates:
 Iter   0:  RMS(Cart)=    0.0434606553 RMS(Int)=    0.0728252645
done
Storing new coordinates                 .... done

                                .--------------------.
          ----------------------|Geometry convergence|-------------------------
          Item                value                   Tolerance       Converged
          ---------------------------------------------------------------------
          RMS gradient        0.0078603041            0.0001000000      NO
          MAX gradient        0.0307063638            0.0003000000      NO
          RMS step            0.0727606875            0.0020000000      NO
          MAX step            0.1655303921            0.0040000000      NO
          -------------------------------------------------------------------------
          ........................................................
          Max(Bonds)      0.0876      Max(Angles)    0.66
          Max(Dihed)        0.00      Max(Improp)    0.00
          ---------------------------------------------------------------------

The optimization has not yet converged - more geometry cycles are needed


    ---------------------------------------------------------------------------
                         Redundant Internal Coordinates
                            (Angstroem and degrees)

        Definition                    Value    dE/dq     Step     New-Value
    ----------------------------------------------------------------------------
     1. B(H   1,C   0)                1.0827 -0.002781  0.0039    1.0866   
     2. B(H   2,C   0)                1.0827 -0.002774  0.0039    1.0866   
     3. B(H   3,C   0)                1.0826 -0.002890  0.0040    1.0866   
     4. B(I   4,H   1)                3.0613 -0.000985  0.0701    3.1314   
     5. B(I   4,H   2)                3.0613 -0.001003  0.0703    3.1316   
     6. B(I   4,H   3)                3.0614 -0.001003  0.0703    3.1317   
     7. B(I   4,C   0)                3.2229 -0.005940  0.0876    3.3105   
     8. B(Cl  5,C   0)                1.7849 -0.030706  0.0485    1.8335   
     9. A(H   1,C   0,H   3)          110.65  0.002175   -0.62    110.03   
    10. A(H   2,C   0,H   3)          110.65  0.002190   -0.63    110.02   
    11. A(H   1,C   0,Cl  5)          108.27 -0.002283    0.65    108.92   
    12. A(H   2,C   0,Cl  5)          108.27 -0.002289    0.65    108.92   
    13. A(H   3,C   0,Cl  5)          108.27 -0.002270    0.65    108.92   
    14. A(H   1,C   0,I   4)           71.73  0.002286   -0.66     71.07   
    15. A(H   2,C   0,I   4)           71.73  0.002277   -0.65     71.08   
    16. A(H   3,C   0,I   4)           71.73  0.002279   -0.65     71.08   
    17. A(H   1,C   0,H   2)          110.64  0.002163   -0.62    110.02   
    ----------------------------------------------------------------------------

Geometry step timings:
Preparation and reading OPT file:      0.000 s ( 2.062 %)
Internal coordinates            :      0.000 s ( 2.010 %)
B/P matrices and projection     :      0.000 s ( 7.371 %)
Hessian update/contruction      :      0.001 s (37.938 %)
Making the step                 :      0.000 s (14.794 %)
Converting the step to Cartesian:      0.000 s ( 3.351 %)
Storing new data                :      0.000 s ( 6.959 %)
Checking convergence            :      0.000 s ( 4.742 %)
Final printing                  :      0.000 s (20.309 %)
Total time                      :      0.002 s

Time for energy+gradient        :     20.004 s
Time for complete geometry iter :     20.807 s

         *************************************************************
         *                GEOMETRY OPTIMIZATION CYCLE   2            *
         *************************************************************
---------------------------------
CARTESIAN COORDINATES (ANGSTROEM)
---------------------------------
  C     -0.000092   -0.000102   -0.444768
  H     -0.000048    1.027755   -0.092358
  H      0.890102   -0.514070   -0.092458
  H     -0.890257   -0.514101   -0.092464
  I      0.000004    0.000131    2.865675
  Cl    -0.000055    0.000049   -2.278256

----------------------------
CARTESIAN COORDINATES (A.U.)
----------------------------
  NO LB      ZA    FRAG     MASS         X           Y           Z
   0 C     6.0000    0    12.011   -0.000174   -0.000192   -0.840489
   1 H     1.0000    0     1.008   -0.000090    1.942176   -0.174531
   2 H     1.0000    0     1.008    1.682049   -0.971451   -0.174720
   3 H     1.0000    0     1.008   -1.682342   -0.971511   -0.174732
   4 I    25.0000*   0   126.900    0.000008    0.000247    5.415341
   5 Cl   17.0000    0    35.453   -0.000105    0.000093   -4.305281
* core charge reduced due to ECP

--------------------------------
INTERNAL COORDINATES (ANGSTROEM)
--------------------------------
 C      0   0   0     0.000000000000     0.00000000     0.00000000
 H      1   0   0     1.086592019428     0.00000000     0.00000000
 H      1   2   0     1.086614731298   110.01358574     0.00000000
 H      1   2   3     1.086603332705   110.01967923   121.35931422
 I      2   1   3     3.131448499055    89.76745278   299.32037615
 Cl     1   2   3     1.833488705838   108.92002785   240.68260139

---------------------------
INTERNAL COORDINATES (A.U.)
---------------------------
 C      0   0   0     0.000000000000     0.00000000     0.00000000
 H      1   0   0     2.053361336023     0.00000000     0.00000000
 H      1   2   0     2.053404255237   110.01358574     0.00000000
 H      1   2   3     2.053382715019   110.01967923   121.35931422
 I      2   1   3     5.917580065693    89.76745278   299.32037615
 Cl     1   2   3     3.464791523672   108.92002785   240.68260139



           ************************************************************
           *        Program running with 8 parallel MPI-processes     *
           *              working on a common directory               *
           ************************************************************
------------------------------------------------------------------------------
                   ___                                                        
                  /   \      - P O W E R E D   B Y -                         
                 /     \                                                     
                 |  |  |   _    _      __       _____    __    __             
                 |  |  |  | |  | |    /  \     |  _  \  |  |  /  |          
                  \  \/   | |  | |   /    \    | | | |  |  | /  /          
                 / \  \   | |__| |  /  /\  \   | |_| |  |  |/  /          
                |  |  |   |  __  | /  /__\  \  |    /   |      \           
                |  |  |   | |  | | |   __   |  |    \   |  |\   \          
                \     /   | |  | | |  |  |  |  | |\  \  |  | \   \       
                 \___/    |_|  |_| |__|  |__|  |_| \__\ |__|  \__/        
                                                                              
                      - O R C A' S   B I G   F R I E N D -                    
                                      &                                       
                       - I N T E G R A L  F E E D E R -                       
                                                                              
 v1 FN, 2020, v2 2021, v3 2022-2024                                           
------------------------------------------------------------------------------


----------------------
SHARK INTEGRAL PACKAGE
----------------------

Number of atoms                             ...      6
Number of basis functions                   ...     97
Number of shells                            ...     43
Maximum angular momentum                    ...      2
Integral batch strategy                     ... SHARK/LIBINT Hybrid
RI-J (if used) integral strategy            ... SPLIT-RIJ (Revised 2003 algorithm where possible)
Printlevel                                  ...      1
Contraction scheme used                     ... SEGMENTED contraction
Prescreening option                         ... SCHWARTZ
   Thresh                                   ... 2.500e-11
   Tcut                                     ... 2.500e-12
   Tpresel                                  ... 2.500e-12 
Coulomb Range Separation                    ... NOT USED
Exchange Range Separation                   ... NOT USED
Multipole approximations                    ... NOT USED
Finite Nucleus Model                        ... NOT USED
CABS basis                                  ... NOT available
Auxiliary Coulomb fitting basis             ... AVAILABLE
   # of basis functions in Aux-J            ...    163
   # of shells in Aux-J                     ...     61
   Maximum angular momentum in Aux-J        ...      4
Auxiliary J/K fitting basis                 ... NOT available
Auxiliary Correlation fitting basis         ... NOT available
Auxiliary 'external' fitting basis          ... NOT available

Checking pre-screening integrals            ... done (  0.0 sec) Dimension = 43
   => SHARK Basis and OBASIS are compatible. Storing Pre-screening
Shell pair information
Shell pair cut-off parameter TPreSel        ...   2.5e-12
Total number of shell pairs                 ...       946
Shell pairs after pre-screening             ...       851
Total number of primitive shell pairs       ...      3934
Primitive shell pairs kept                  ...      2671
          la=0 lb=0:    223 shell pairs
          la=1 lb=0:    294 shell pairs
          la=1 lb=1:    111 shell pairs
          la=2 lb=0:    119 shell pairs
          la=2 lb=1:     84 shell pairs
          la=2 lb=2:     20 shell pairs

Checking whether 4 symmetric matrices of dimension 97 fit in memory
:Max Core in MB      =   4096.00
 MB in use           =      4.47
 MB left             =   4091.53
 MB needed           =      0.15
 Data fit in memory  = YES
Calculating RI/J V-Matrix + Cholesky decomp.... done (  0.0 sec)
Calculating Nuclear repulsion               ... done (  0.0 sec) ENN=    130.642383483575 Eh

Diagonalization of the overlap matrix:
Smallest eigenvalue                        ... 4.954e-03
Time for diagonalization                   ...    0.001 sec
Threshold for overlap eigenvalues          ... 1.000e-07
Number of eigenvalues below threshold      ... 0
Time for construction of square roots      ...    0.001 sec
Total time needed                          ...    0.002 sec

-------------------
DFT GRID GENERATION
-------------------

General Integration Accuracy     IntAcc      ... 4.388
Radial Grid Type                 RadialGrid  ... OptM3 with GC (2021)
Angular Grid (max. ang.)         AngularGrid ... 4 (Lebedev-302)
Angular grid pruning method      GridPruning ... 4 (adaptive)
Weight generation scheme         WeightScheme... mBecke (2022)
Basis function cutoff            BFCut       ... 1.0000e-11
Integration weight cutoff        WCut        ... 1.0000e-14
Partially contracted basis set               ... off
Rotationally invariant grid construction     ... off
Angular grids for H and He will be reduced by one unit

Total number of grid points                  ...    34875
Total number of batches                      ...      547
Average number of points per batch           ...       63
Average number of grid points per atom       ...     5812
Grids setup in   0.6 sec
Initializing property integral containers    ... done (  0.0 sec)

SHARK setup successfully completed in   1.0 seconds

Maximum memory used throughout the entire STARTUP-calculation: 12.8 MB


           ************************************************************
           *        Program running with 8 parallel MPI-processes     *
           *              working on a common directory               *
           ************************************************************
Occupation numbers will be reassigned to an Aufbau configuration
             **** ENERGY FILE WAS UPDATED (reactant_optfreq.en.tmp) ****
Finished Guess after   0.5 sec
Maximum memory used throughout the entire GUESS-calculation: 6.9 MB


           ************************************************************
           *        Program running with 8 parallel MPI-processes     *
           *              working on a common directory               *
           ************************************************************
----------------------------------------D-I-I-S--------------------------------------------
Iteration    Energy (Eh)           Delta-E    RMSDP     MaxDP     DIISErr   Damp  Time(sec)
-------------------------------------------------------------------------------------------
               ***  Starting incremental Fock matrix formation  ***
    1    -797.9138199858584812     0.00e+00  3.71e-04  1.96e-03  1.03e-02  0.700   0.5
    2    -797.9139759926654278    -1.56e-04  3.63e-04  2.04e-03  7.41e-03  0.700   0.3
                               ***Turning on AO-DIIS***
    3    -797.9140873579342497    -1.11e-04  3.10e-04  1.99e-03  5.07e-03  0.700   0.2
    4    -797.9141645309217665    -7.72e-05  8.00e-04  5.51e-03  3.79e-03  0.000   0.2
                              *** Initializing SOSCF ***
---------------------------------------S-O-S-C-F--------------------------------------
Iteration    Energy (Eh)           Delta-E    RMSDP     MaxDP     MaxGrad    Time(sec)
--------------------------------------------------------------------------------------
    5    -797.9143462979088781    -1.82e-04  6.26e-05  4.22e-04  6.00e-04     0.4
               *** Restarting incremental Fock matrix formation ***
    6    -797.9143471045506431    -8.07e-07  5.56e-05  4.22e-04  8.57e-05     0.2
    7    -797.9143470134450808     9.11e-08  1.87e-05  1.17e-04  1.77e-04     0.2
    8    -797.9143472134151125    -2.00e-07  4.59e-06  3.09e-05  7.81e-06     0.2
    9    -797.9143472129597967     4.55e-10  1.89e-06  1.67e-05  5.45e-06     0.5
                 **** Energy Check signals convergence ****

               *****************************************************
               *                     SUCCESS                       *
               *           SCF CONVERGED AFTER   9 CYCLES          *
               *****************************************************

             **** ENERGY FILE WAS UPDATED (reactant_optfreq.en.tmp) ****

----------------
TOTAL SCF ENERGY
----------------

Total Energy       :       -797.91434721397593 Eh          -21712.35322 eV

Components:
Nuclear Repulsion  :        130.64238348357492 Eh            3554.95999 eV
Electronic Energy  :       -928.55673069755085 Eh          -25267.31321 eV
One Electron Energy:      -1476.48562678201938 Eh          -40177.21647 eV
Two Electron Energy:        547.92889608446853 Eh           14909.90327 eV

Virial components:
Potential Energy   :      -1408.91006873898277 Eh          -38338.39206 eV
Kinetic Energy     :        610.99572152500673 Eh           16626.03883 eV
Virial Ratio       :          2.30592460651350

DFT components:
N(Alpha)           :       25.999988567181 electrons
N(Beta)            :       25.999988567181 electrons
N(Total)           :       51.999977134363 electrons
E(X)               :      -55.249098721510 Eh       
E(C)               :       -2.008127603854 Eh       
E(XC)              :      -57.257226325363 Eh       

---------------
SCF CONVERGENCE
---------------

  Last Energy change         ...   -4.5532e-10  Tolerance :   1.0000e-08
  Last MAX-Density change    ...    1.6731e-05  Tolerance :   1.0000e-07
  Last RMS-Density change    ...    1.8867e-06  Tolerance :   5.0000e-09
  Last DIIS Error            ...    6.0024e-04  Tolerance :   5.0000e-07
  Last Orbital Gradient      ...    5.4550e-06  Tolerance :   1.0000e-05
  Last Orbital Rotation      ...    1.0148e-05  Tolerance :   1.0000e-05


Total SCF time: 0 days 0 hours 0 min 3 sec 
Finished LeanSCF after   3.9 sec

Maximum memory used throughout the entire LEANSCF-calculation: 6.6 MB


           ************************************************************
           *        Program running with 8 parallel MPI-processes     *
           *              working on a common directory               *
           ************************************************************

------------------------------------------------------------------------------
                         ORCA PROPERTY INTEGRAL CALCULATIONS
------------------------------------------------------------------------------

GBWName                                   ... reactant_optfreq.gbw
Number of atoms                           ...      6
Number of basis functions                 ...     97
Max core memory                           ...   4096 MB

Dipole integrals                          ... YES
Quadrupole integrals                      ...  NO
Linear momentum integrals                 ...  NO
Angular momentum integrals                ...  NO
Higher moments length integrals           ...  NO
Higher moments velocity integrals         ...  NO
Kinetic energy integrals                  ...  NO
GIAO right hand sides                     ...  NO
GIAO dipole derivative integrals          ...  NO
SOC integrals                             ...  NO
EPR diamagnetic integrals (GIAO)          ...  NO
EPR gauge integrals                       ...  NO
Field gradient integrals                  ...  NO (   0 nuclei)
Spin-dipole/Fermi contact integrals       ...  NO (   0 nuclei)
Contact density integrals                 ...  NO (   0 nuclei)
Nucleus-orbit integrals                   ...  NO (   0 nuclei)
Geometric perturbations                   ...  NO (   6 nuclei)

Choice of electric origin   ... Center of mass
Position of electric origin ... ( -0.0000,  0.0002,  2.9537) 
Choice of magnetic origin   ... GIAO
Position of magnetic origin ... (  0.0000,  0.0000,  0.0000) 

Calculating integrals                     ... Electric Dipole (Length)     done (  0.0 sec)

Property integrals calculated in   0.0 sec

Maximum memory used throughout the entire PROPINT-calculation: 7.0 MB


-------------------------------------------------------------------------------
                          DFT DISPERSION CORRECTION                            
                                                                               
                                DFTD4 V3.4.0                                   
-------------------------------------------------------------------------------
-------------------------   ----------------
Dispersion correction           -0.001170342
-------------------------   ----------------

------------------   -----------------
gCP correction             0.005073611
------------------   -----------------

-------------------------   --------------------
FINAL SINGLE POINT ENERGY      -797.910443945486
-------------------------   --------------------



           ************************************************************
           *        Program running with 8 parallel MPI-processes     *
           *              working on a common directory               *
           ************************************************************
------------------------------------------------------------------------------
                         ORCA SCF GRADIENT CALCULATION
------------------------------------------------------------------------------

Nuc. rep. gradient        (SHARK) ... done (  0.0 sec)
HCore & Overlap gradient  (SHARK) ... done (  0.1 sec)
ECP gradient              (SHARK) ... done (  0.1 sec)
Split-RIJ-J gradient      (SHARK) ... done (  1.5 sec)
XC gradient                       ... done (  0.4 sec)
Dispersion correction             ... done (  0.1 sec)

-------------------
DISPERSION GRADIENT
-------------------

   1   C   :    0.000000000   -0.000000004   -0.000017825
   2   H   :   -0.000000001    0.000001417   -0.000009395
   3   H   :    0.000001228   -0.000000710   -0.000009398
   4   H   :   -0.000001229   -0.000000710   -0.000009398
   5   I   :    0.000000002    0.000000006    0.000108833
   6   Cl  :   -0.000000000    0.000000000   -0.000062816

Difference to translation invariance:
           :   -0.0000000000   -0.0000000000    0.0000000000

Difference to rotation invariance:
           :   -0.0000000000    0.0000000000   -0.0000000000

Norm of the Dispersion gradient    ...    0.0001279805
RMS gradient                       ...    0.0000301653
MAX gradient                       ...    0.0001088325
gCP correction                   ... done

------------------
CARTESIAN GRADIENT
------------------

   1   C   :   -0.000014322   -0.000018449   -0.007192434
   2   H   :    0.000005349   -0.000773394    0.000942510
   3   H   :   -0.000672301    0.000398560    0.000940176
   4   H   :    0.000679872    0.000396768    0.000938032
   5   I   :   -0.000000039   -0.000005632   -0.004964101
   6   Cl  :    0.000001442    0.000002147    0.009335818

Difference to translation invariance:
           :    0.0000000000   -0.0000000000   -0.0000000000

Difference to rotation invariance:
           :    0.0000351203   -0.0000001298   -0.0000000246

Norm of the Cartesian gradient     ...    0.0129619561
RMS gradient                       ...    0.0030551624
MAX gradient                       ...    0.0093358181

-------
TIMINGS
-------

Total SCF gradient time     ....        2.365 sec

Densities                   ....       0.000 sec  (  0.0%)
One electron gradient       ....       0.067 sec  (  2.8%)
RI-J Coulomb gradient       ....       1.497 sec  ( 63.3%)
XC gradient                 ....       0.411 sec  ( 17.4%)

Maximum memory used throughout the entire SCFGRAD-calculation: 26.9 MB
------------------------------------------------------------------------------
                         ORCA GEOMETRY RELAXATION STEP
------------------------------------------------------------------------------

Reading the OPT-File                    .... done
Getting information on internals        .... done
Copying old internal coords+grads       .... done
Making the new internal coordinates     .... (2022 redundants) done
Validating the new internal coordinates .... (2022 redundants) done
Calculating the B-matrix                .... done
Calculating the G,G- and P matrices     .... done
Transforming gradient to internals      .... done
Projecting the internal gradient        .... done
Number of atoms                         ....   6
Number of internal coordinates          ....  17
Current Energy                          ....  -797.910443945 Eh
Current gradient norm                   ....     0.012961956 Eh/bohr
Maximum allowed component of the step   ....  0.300
Current trust radius                    ....  0.300
Updating the Hessian (BFGS)             .... done
Forming the augmented Hessian           .... done
Diagonalizing the augmented Hessian     .... done
Last element of RFO vector              ....  0.962952151
Lowest eigenvalues of augmented Hessian:
 -0.001128200  0.009934077  0.041191654  0.041197976  0.198492956
Length of the computed step             ....  0.280047465
The final length of the internal step   ....  0.280047465
Converting the step to Cartesian space:
 Initial RMS(Int)=    0.0679214869
Transforming coordinates:
 Iter   0:  RMS(Cart)=    0.0342489284 RMS(Int)=    0.0679826927
done
Storing new coordinates                 .... done
[...]



--------------------
Rotational spectrum 
--------------------
 
Rotational constants in cm-1:             5.218241             0.019307             0.019307 
Rotational constants in MHz :        156438.942607           578.823813           578.823729 

Dipole components along the rotational axes: 
x,y,z [a.u.] :    -0.881405    -0.000151     0.000010 
x,y,z [Debye]:    -2.240353    -0.000383     0.000025 

 

Dipole moment calculation done in   0.0 sec 

-----------
SCF HESSIAN
-----------

Occupied/Occupied contributions to the Hessian:
   => Occupied/Occupied contributions              ... done (  0.0 sec)
Perturbed density contributions to the Hessian:
   => Perturbed density contributions              ... done (  0.1 sec)
Explicit contributions to the Hessian:
   => Nuclear repulsion Hessian                    ... done (  0.0 sec)
   => HCore and overlap Hessian                    ... done (  0.3 sec)
   => ECP Hessian                                  ... done (  1.3 sec)
   => RI-J Hessian                                 ... done (  1.3 sec)
   => XC-Hessian                                   ... done (  2.3 sec)
   => Van der Waals-Hessian                        ... done (  0.9 sec)
   => GCP-Hessian                                  ... done (  0.0 sec)
   => Explicit contributions done
Dipole derivatives                                 ... done (  0.1 sec)
Mass weighting the Hessian           ... done
Calculating normal modes             ... done
Scaling frequencies                  ... done

-----------------------
VIBRATIONAL FREQUENCIES
-----------------------

Scaling factor for frequencies =  1.000000000  (already applied!)

     0:       0.00 cm**-1
     1:       0.00 cm**-1
     2:       0.00 cm**-1
     3:       0.00 cm**-1
     4:       0.00 cm**-1
     5:       0.00 cm**-1
     6:      73.78 cm**-1
     7:      80.43 cm**-1
     8:      81.08 cm**-1
     9:     568.39 cm**-1
    10:     985.37 cm**-1
    11:     985.83 cm**-1
    12:    1317.52 cm**-1
    13:    1455.54 cm**-1
    14:    1455.59 cm**-1
    15:    3085.61 cm**-1
    16:    3216.98 cm**-1
    17:    3217.87 cm**-1


------------
NORMAL MODES
------------

These modes are the Cartesian displacements weighted by the diagonal matrix
M(i,i)=1/sqrt(m[i]) where m[i] is the mass of the displaced atom
Thus, these vectors are normalized but *not* orthogonal

                  0          1          2          3          4          5    
      0       0.000000   0.000000   0.000000   0.000000   0.000000   0.000000
      1       0.000000   0.000000   0.000000   0.000000   0.000000   0.000000
      2       0.000000   0.000000   0.000000   0.000000   0.000000   0.000000
      3       0.000000   0.000000   0.000000   0.000000   0.000000   0.000000
      4       0.000000   0.000000   0.000000   0.000000   0.000000   0.000000
      5       0.000000   0.000000   0.000000   0.000000   0.000000   0.000000
      6       0.000000   0.000000   0.000000   0.000000   0.000000   0.000000
      7       0.000000   0.000000   0.000000   0.000000   0.000000   0.000000
      8       0.000000   0.000000   0.000000   0.000000   0.000000   0.000000
      9       0.000000   0.000000   0.000000   0.000000   0.000000   0.000000
     10       0.000000   0.000000   0.000000   0.000000   0.000000   0.000000
     11       0.000000   0.000000   0.000000   0.000000   0.000000   0.000000
     12       0.000000   0.000000   0.000000   0.000000   0.000000   0.000000
     13       0.000000   0.000000   0.000000   0.000000   0.000000   0.000000
     14       0.000000   0.000000   0.000000   0.000000   0.000000   0.000000
     15       0.000000   0.000000   0.000000   0.000000   0.000000   0.000000
     16       0.000000   0.000000   0.000000   0.000000   0.000000   0.000000
     17       0.000000   0.000000   0.000000   0.000000   0.000000   0.000000
                  6          7          8          9         10         11    
      0      -0.000071   0.396521  -0.000152   0.000001   0.108517  -0.000139
      1       0.002036   0.000152   0.396631  -0.000116  -0.000139  -0.108455
      2      -0.451218  -0.000018   0.000599   0.685896  -0.000000  -0.000086
      3      -0.000085   0.478973  -0.000223  -0.000000  -0.234724   0.000298
      4       0.000883   0.000188   0.491698   0.084338   0.000165   0.129094
      5      -0.440418  -0.000129  -0.287223   0.380255  -0.000981  -0.765723
      6      -0.001505   0.488055  -0.005922   0.073000  -0.155387   0.045804
      7       0.003269  -0.005978   0.481773  -0.042309  -0.045565   0.208349
      8      -0.438437  -0.249419   0.144635   0.380496   0.663874   0.382465
      9       0.001333   0.488061   0.005587  -0.072999  -0.155507  -0.045403
     10       0.003267   0.006347   0.481701  -0.042308   0.046101   0.208232
     11      -0.438520   0.249493   0.144443   0.380495  -0.662889   0.384167
     12       0.000005  -0.018376   0.000007   0.000000  -0.000028   0.000000
     13      -0.000088  -0.000007  -0.018379   0.000001   0.000000   0.000026
     14       0.174160   0.000007  -0.000211   0.002037  -0.000000   0.000003
     15       0.000012  -0.109933   0.000042  -0.000001  -0.021150   0.000027
     16      -0.000586  -0.000042  -0.109961   0.000042   0.000027   0.021136
     17      -0.433063  -0.000017   0.000498  -0.272111   0.000000  -0.000007
                 12         13         14         15         16         17    
      0       0.000001  -0.069286   0.000327  -0.000000   0.000052  -0.096692
      1      -0.000087  -0.000327  -0.069285  -0.000237   0.096699   0.000052
      2       0.089244   0.000001  -0.000012   0.039204   0.000121   0.000000
      3      -0.000005   0.751486  -0.003543  -0.000001   0.000010  -0.019842
      4       0.180277  -0.000634  -0.134670  -0.553189  -0.779307  -0.000420
      5      -0.546361   0.001334   0.283913  -0.157010  -0.234645  -0.000126
      6       0.155973   0.088734   0.383354  -0.481375   0.343941   0.578704
      7      -0.089722   0.386145   0.528150   0.277978  -0.178812  -0.345624
      8      -0.545902   0.245257  -0.142874  -0.157799   0.116439   0.202691
      9      -0.155977   0.085112  -0.384173   0.481378  -0.344567   0.578329
     10      -0.089718  -0.381148   0.531768   0.277979  -0.179185   0.345428
     11      -0.545901  -0.246597  -0.140553  -0.157802   0.116659  -0.202566
     12       0.000000  -0.000084   0.000000   0.000000  -0.000000   0.000012
     13      -0.000000  -0.000000  -0.000084   0.000000  -0.000012  -0.000000
     14       0.000134  -0.000000  -0.000001   0.000038   0.000001  -0.000000
     15       0.000000  -0.002536   0.000012  -0.000000  -0.000000   0.000383
     16       0.000007  -0.000012  -0.002534   0.000001  -0.000382  -0.000000
     17       0.015862   0.000000  -0.000006   0.000018   0.000001   0.000000


-----------
IR SPECTRUM
-----------

 Mode   freq       eps      Int      T**2         TX        TY        TZ
       cm**-1   L/(mol*cm) km/mol    a.u.
----------------------------------------------------------------------------
  6:     73.78   0.001431    7.23  0.006054  (-0.000006  0.000141 -0.077808)
  7:     80.43   0.000972    4.91  0.003773  ( 0.061422  0.000023 -0.000004)
  8:     81.08   0.000969    4.90  0.003728  (-0.000024  0.061060  0.000283)
  9:    568.39   0.051452  260.02  0.028249  ( 0.000002 -0.000053  0.168074)
 10:    985.37   0.000274    1.38  0.000087  (-0.009313  0.000012  0.000001)
 11:    985.83   0.000268    1.35  0.000085  ( 0.000012  0.009212  0.000063)
 12:   1317.52   0.001446    7.31  0.000342  (-0.000000 -0.000030  0.018504)
 13:   1455.54   0.001462    7.39  0.000314  ( 0.017706  0.000084  0.000001)
 14:   1455.59   0.001477    7.46  0.000317  (-0.000084  0.017792  0.000050)
 15:   3085.61   0.001849    9.34  0.000187  (-0.000000 -0.000092  0.013675)
 16:   3216.98   0.000002    0.01  0.000000  (-0.000000 -0.000446 -0.000015)
 17:   3217.87   0.000003    0.02  0.000000  ( 0.000563 -0.000000  0.000000)

* The epsilon (eps) is given for a Dirac delta lineshape.
** The dipole moment derivative (T) already includes vibrational overlap.

The first frequency considered to be a vibration is 6
The total number of vibrations considered is 12


--------------------------
THERMOCHEMISTRY AT 298.15K
--------------------------

Temperature         ...   298.15 K
Pressure            ...     1.00 atm
Total Mass          ...   177.39 AMU
Quasi RRHO          ...     True
Cut-Off Frequency   ...     1.00 cm^-1

Throughout the following assumptions are being made:
  (1) The electronic state is orbitally nondegenerate
  (2) There are no thermally accessible electronically excited states
  (3) Hindered rotations indicated by low frequency modes are not
      treated as such but are treated as vibrations and this may
      cause some error
  (4) All equations used are the standard statistical mechanics
      equations for an ideal gas
  (5) All vibrations are strictly harmonic

freq.      73.78  E(vib)   ...       0.49 
freq.      80.43  E(vib)   ...       0.48 
freq.      81.08  E(vib)   ...       0.48 
freq.     568.39  E(vib)   ...       0.11 
freq.     985.37  E(vib)   ...       0.02 
freq.     985.83  E(vib)   ...       0.02 
freq.    1317.52  E(vib)   ...       0.01 
freq.    1455.54  E(vib)   ...       0.00 
freq.    1455.59  E(vib)   ...       0.00 
freq.    3085.61  E(vib)   ...       0.00 
freq.    3216.98  E(vib)   ...       0.00 
freq.    3217.87  E(vib)   ...       0.00 

------------
INNER ENERGY
------------

The inner energy is: U= E(el) + E(ZPE) + E(vib) + E(rot) + E(trans)
    E(el)   - is the total energy from the electronic structure calculation
              = E(kin-el) + E(nuc-el) + E(el-el) + E(nuc-nuc)
    E(ZPE)  - the the zero temperature vibrational energy from the frequency calculation
    E(vib)  - the the finite temperature correction to E(ZPE) due to population
              of excited vibrational states
    E(rot)  - is the rotational thermal energy
    E(trans)- is the translational thermal energy

Summary of contributions to the inner energy U:
Electronic energy                ...   -797.91157043 Eh
Zero point energy                ...      0.03764443 Eh      23.62 kcal/mol
Thermal vibrational correction   ...      0.00260877 Eh       1.64 kcal/mol
Thermal rotational correction    ...      0.00141627 Eh       0.89 kcal/mol
Thermal translational correction ...      0.00141627 Eh       0.89 kcal/mol
-----------------------------------------------------------------------
Total thermal energy                   -797.86848469 Eh


Summary of corrections to the electronic energy:
(perhaps to be used in another calculation)
Total thermal correction                  0.00544131 Eh       3.41 kcal/mol
Non-thermal (ZPE) correction              0.03764443 Eh      23.62 kcal/mol
-----------------------------------------------------------------------
Total correction                          0.04308574 Eh      27.04 kcal/mol


--------
ENTHALPY
--------

The enthalpy is H = U + kB*T
                kB is Boltzmann's constant
Total thermal energy              ...   -797.86848469 Eh 
Thermal Enthalpy correction       ...      0.00094421 Eh       0.59 kcal/mol
-----------------------------------------------------------------------
Total Enthalpy                    ...   -797.86754048 Eh


Note: Rotational entropy computed according to Herzberg 
Infrared and Raman Spectra, Chapter V,1, Van Nostrand Reinhold, 1945 
Point Group:  Cs, Symmetry Number:   1  
Rotational constants in cm-1:     5.218246     0.019308     0.019307 

Vibrational entropy computed according to the QRRHO of S. Grimme
Chem.Eur.J. 2012 18 9955 using a reference frequency of 100.0 cm-1


-------
ENTROPY
-------

The entropy contributions are T*S = T*(S(el)+S(vib)+S(rot)+S(trans))
     S(el)   - electronic entropy
     S(vib)  - vibrational entropy
     S(rot)  - rotational entropy
     S(trans)- translational entropy
The entropies will be listed as multiplied by the temperature to get
units of energy

Electronic entropy                ...      0.00000000 Eh      0.00 kcal/mol
Vibrational entropy               ...      0.00510112 Eh      3.20 kcal/mol
Rotational entropy                ...      0.01245777 Eh      7.82 kcal/mol
Translational entropy             ...      0.01968301 Eh     12.35 kcal/mol
-----------------------------------------------------------------------
Final entropy term                ...      0.03724190 Eh     23.37 kcal/mol

In case the symmetry of your molecule has not been determined correctly
or in case you have a reason to use a different symmetry number we print 
out the resulting rotational entropy values for sn=1,12:

 non-linear molecules -----------------------------------
|  sn= 1 | S(rot)=       0.01245777 Eh      7.82 kcal/mol|
|  sn= 2 | S(rot)=       0.01180331 Eh      7.41 kcal/mol|
|  sn= 3 | S(rot)=       0.01142048 Eh      7.17 kcal/mol|
|  sn= 4 | S(rot)=       0.01114886 Eh      7.00 kcal/mol|
|  sn= 5 | S(rot)=       0.01093817 Eh      6.86 kcal/mol|
|  sn= 6 | S(rot)=       0.01076602 Eh      6.76 kcal/mol|
|  sn= 7 | S(rot)=       0.01062048 Eh      6.66 kcal/mol|
|  sn= 8 | S(rot)=       0.01049440 Eh      6.59 kcal/mol|
|  sn= 9 | S(rot)=       0.01038319 Eh      6.52 kcal/mol|
|  sn=10 | S(rot)=       0.01028371 Eh      6.45 kcal/mol|
|  sn=11 | S(rot)=       0.01019372 Eh      6.40 kcal/mol|
|  sn=12 | S(rot)=       0.01011157 Eh      6.35 kcal/mol|
 linear molecules ---------------------------------------
|  Dinfh | S(rot)=       0.00905274 Eh      5.68 kcal/mol|
|  Cinfv | S(rot)=       0.00970719 Eh      6.09 kcal/mol|
 --------------------------------------------------------


-------------------
GIBBS FREE ENERGY
-------------------

The Gibbs free energy is G = H - T*S

Total enthalpy                    ...   -797.86754048 Eh 
Total entropy correction          ...     -0.03724190 Eh    -23.37 kcal/mol
-----------------------------------------------------------------------
Final Gibbs free energy         ...   -797.90478238 Eh

For completeness - the Gibbs free energy minus the electronic energy
G-E(el)                           ...      0.00678805 Eh      4.26 kcal/mol


Maximum memory used throughout the entire PROP-calculation: 27.8 MB

--------------------------------
SUGGESTED CITATIONS FOR THIS RUN
--------------------------------

Below you find a list of papers that are relevant to this ORCA run
We neither can nor want to force you to cite these papers, but we appreciate if you do
You receive ORCA, which is the product of decades of hard work by many enthusiastic individuals, for free
The only thing we kindly ask in return is that you cite our papers,
We deeply appreciate it, if you show your appreciation for ORCA by not just citing the generic ORCA reference.

Please note that relegating all ORCA citations to the supporting information does *not* help us.
SI sections are not indexed - citations you put there will not count into any citation statistics
But we need these citations in order to attract the funding resources that allow us to do what we are doing

Therefore, if you are a happy ORCA user, please consider citing a few of the papers listed below in the main body of your paper

In addition to the list printed below, the program has created the file reactant_optfreq.bibtex that contains the list in bibtex format
You can import this file easily into all common literature databanks and citation aid programs


List of essential papers. We consider these as the minimum necessary citations

  1. Grimme, S.; Hansen, A.; Ehlert, S.; Mewes, J.
     r2SCAN-3c: A 'Swiss army knife' composite electronic-structure method
     J. Chem. Phys. 2021 154 , 064103
     doi.org/10.1063/5.0040021
  2. Neese, F.
     Software update: the ORCA program system, version 6.0
     WIRES Comput. Molec. Sci. 2025 15(1), e70019
     doi.org/10.1002/wcms.7019

List of papers to cite with high priority. The work reported in these papers was absolutely
necessary for this run to complete.
Our perspective: the developers of density functionals and basis sets usually get cited in chemistry papers
Good! But without the algorithms to do something with them, the functionals or basis sets would not do anything.
Hence, in our opinion, the algorithm design and method developments papers are equally worthy of getting cited

  1. Neese, F.
     An improvement of the resolution of the identity approximation for the formation of the Coulomb matrix
     J. Comp. Chem. 2003 24(14), 1740-1747
     doi.org/10.1002/jcc.10318
  2. Bykov, D.; Petrenko, T.; Izsak, R.; Kossmann, S.; Becker, U.; Valeev, E.; Neese, F.
     Efficient implementation of the analytic second derivatives of Hartree-Fock and hybrid DFT energies: a detailed analysis of different approximations
     Molec. Phys. 2015 113 , 1961-1977
     doi.org/10.1080/00268976.2015.1025114
  3. Caldeweyher, E.; Bannwarth, C.; Grimme, S.
     Extension of the D3 dispersion coefficient model
     J. Chem. Phys. 2017 147 , 034112
     doi.org/10.1063/1.4993215
  4. Lehtola, S.; Steigemann, C.; Oliveira, M.; Marques, M.
     Recent developments in Libxc - A comprehensive library of functionals for density functional theory
     Software X 2018 7 , 
     doi.org/10.1016/j.softx.2017.11.002
  5. Caldeweyher, E.; Ehlert, S.; Hansen, A.; Neugebauer, H.; Spicher, S.; Bannwarth, C.; Grimme, S.
     A generally applicable atomic-charge dependent London dispersion correction
     J. Chem. Phys. 2019 150 , 154122
     doi.org/10.1063/1.5090222
  6. Caldeweyher, E.; Mewes, J.; Ehlert, S.; Grimme, S.
     Extension and evaluation of the D4 London-dispersion model for periodic systems
     Phys. Chem. Chem. Phys. 2020 22(16), 8499-8512
     doi.org/10.1039/D0CP00502A
  7. Neese, F.
     The SHARK Integral Generation and Digestion System
     J. Comp. Chem. 2022 44(3), 381
     doi.org/10.1002/jcc.26942
  8. Wittmann, L.; Gordiy, I.; Friede, M.; Helmich-Paris, B.; Grimme, S.; Hansen, A.; Bursch, M.
     Extension of the D3 and D4 London Dispersion Corrections to the full Actinides Series
     Phys. Chem. Chem. Phys. 2024 26(32), 21379-21394
     doi.org/10.1039/D4CP01514B

List of suggested additional citations. These are papers that are important in the 'surrounding' of 
of this run, or papers that preceded the highly important papers. If you like your results we are grateful for a citation.

  1. Neese, F.
     The ORCA program system
     WIRES Comput. Molec. Sci. 2012 2(1), 73-78
     doi.org/10.1002/wcms.81
  2. Neese, F.
     Software update: the ORCA program system, version 4.0
     WIRES Comput. Molec. Sci. 2018 8(1), 1-6
     doi.org/10.1002/wcms.1327
  3. Neese, F.; Wennmohs, F.; Becker, U.; Riplinger, C.
     The ORCA quantum chemistry program package
     J. Chem. Phys. 2020 152(22), 224108
     doi.org/10.1063/5.0004608
  4. Neese, F.
     Software update: The ORCA program system—Version 5.0
     WIRES Comput. Molec. Sci. 2022 12(1), e1606
     doi.org/10.1002/wcms.1606

List of optional additional citations

  1. Neese, F.
     Approximate second-order SCF convergence for spin unrestricted wavefunctions
     Chem. Phys. Lett. 2000 325(1-3), 93-98
     doi.org/10.1016/s0009-2614(00)00662-x

Timings for individual modules:

Sum of individual times          ...      112.931 sec (=   1.882 min)
Startup calculation              ...       14.852 sec (=   0.248 min)  13.2 %
SCF iterations                   ...       46.862 sec (=   0.781 min)  41.5 %
Property integrals               ...       16.915 sec (=   0.282 min)  15.0 %
SCF Response                     ...        4.422 sec (=   0.074 min)   3.9 %
Property calculations            ...        7.003 sec (=   0.117 min)   6.2 %
SCF Gradient evaluation          ...       22.802 sec (=   0.380 min)  20.2 %
Geometry relaxation              ...        0.076 sec (=   0.001 min)   0.1 %
                             ****ORCA TERMINATED NORMALLY****
TOTAL RUN TIME: 0 days 0 hours 2 minutes 0 seconds 336 msec
