
                                 *****************
                                 * O   R   C   A *
                                 *****************

                                            #,                                       
                                            ###                                      
                                            ####                                     
                                            #####                                    
                                            ######                                   
                                           ########,                                 
                                     ,,################,,,,,                         
                               ,,#################################,,                 
                          ,,##########################################,,             
                       ,#########################################, ''#####,          
                    ,#############################################,,   '####,        
                  ,##################################################,,,,####,       
                ,###########''''           ''''###############################       
              ,#####''   ,,,,##########,,,,          '''####'''          '####       
            ,##' ,,,,###########################,,,                        '##       
           ' ,,###''''                  '''############,,,                           
         ,,##''                                '''############,,,,        ,,,,,,###''
      ,#''                                            '''#######################'''  
     '                                                          ''''####''''         
             ,#######,   #######,   ,#######,      ##                                
            ,#'     '#,  ##    ##  ,#'     '#,    #''#        ,####,    ,#,          
            ##       ##  ##   ,#'  ##            #'  '#       #'       ,# #          
            ##       ##  #######   ##           ,######,      #####,      #          
            '#,     ,#'  ##    ##  '#,     ,#' ,#      #,     #,   #      #          
             '#######'   ##     ##  '#######'  #'      '#     '####' #    #          



                #########################################################
                #                        -***-                          #
                #          Department of theory and spectroscopy        #
                #                                                       #
                #                      Frank Neese                      #
                #                                                       #
                #     Directorship, Architecture, Infrastructure        #
                #                    SHARK, DRIVERS                     #
                #        Core code/Algorithms in most modules           #
                #                                                       #
                #        Max Planck Institute fuer Kohlenforschung      #
                #                Kaiser Wilhelm Platz 1                 #
                #                 D-45470 Muelheim/Ruhr                 #
                #                      Germany                          #
                #                                                       #
                #                  All rights reserved                  #
                #                        -***-                          #
                #########################################################


                         Program Version 6.1.0  -  RELEASE   -
                                (GIT: $679e74b$)
                          ($2025-06-10 18:02:51 +0200$)


 With contributions from (in alphabetic order):
[Max-Planck-Institut fuer Kohlenforschung]                               
  Daniel Aravena         : Magnetic Suceptibility                        
  Michael Atanasov       : Ab Initio Ligand Field Theory (pilot matlab implementation)
  Alexander A. Auer      : GIAO ZORA, VPT2 properties, NMR spectrum      
  Ute Becker             : All parallelization in ORCA, NUMFREQ, NUMCALC 
  Giovanni Bistoni       : ED, misc. LED, open-shell LED, HFLD           
  Dmytro Bykov           : pre 5.0 version of the SCF Hessian            
  Marcos Casanova-Páez   : Triplet and SCS-CIS(D). UHF-(DLPNO)-IP/EA/STEOM-CCSD. UHF-CVS-IP/STEOM-CCSD   
  Vijay G. Chilkuri      : MRCI spin determinant printing, contributions to CSF-ICE 
  Pauline Colinet        : FMM embedding                                 
  Dipayan Datta          : RHF DLPNO-CCSD density                        
  Achintya Kumar Dutta   : EOM-CC, STEOM-CC                              
  Nicolas Foglia         : Exact transition moments, OPA infrastructure, MCD improvements    
  Dmitry Ganyushin       : Spin-Orbit,Spin-Spin,Magnetic field MRCI      
  Miquel Garcia-Rates    : C-PCM and meta-GGA Hessian, CCSD/C-PCM, Gaussian charge scheme 
  Tiago L. C. Gouveia    : GS-ROHF, GS-ROCIS                             
  Yang Guo               : DLPNO-NEVPT2, F12-NEVPT2, CIM, IAO-localization        
  Andreas Hansen         : Spin unrestricted coupled pair/coupled cluster methods 
  Ingolf Harden          : AUTO-CI MPn and infrastructure                
  Benjamin Helmich-Paris : MC-RPA, TRAH-(SCF,CASSCF), AVAS, COSX integrals, SCF dyn. polar., MC-PDFT, srDFT 
  Lee Huntington         : MR-EOM, pCC                                   
  Robert Izsak           : Overlap fitted RIJCOSX, COSX-SCS-MP3, EOM     
  Riya Kayal             : Wick's Theorem for AUTO-CI, AUTO-CI UHF-CCSDT 
  Emily Kempfer          : AUTO-CI RHF CISDT and CCSDT, approximate NEVPT4
  Christian Kollmar      : KDIIS, OOCD, Brueckner-CCSD(T), CCSD density, CASPT2, CASPT2-K, improved NEVPT2 
  Axel Koslowski         : Symmetry handling                             
  Simone Kossmann        : meta-GGA functionals, TD-DFT gradient, OOMP2, (MP2 Hessian; deprecated post 5.0) 
  Lucas Lang             : DCDCAS, Hyperfine gauge corrections, ICE-SOC+SSC
  Marvin Lechner         : AUTO-CI (C++ implementation), FIC-MRCC        
  Spencer Leger          : CASSCF response                               
  Dagmar Lenk            : GEPOL surface, SMD, ORCA-2-JSON               
  Dimitrios Liakos       : Extrapolation schemes; Compound Job, Property file
  Dimitrios Manganas     : Further ROCIS development; embedding schemes. LFT, Crystal Embedding 
  Dimitrios Pantazis     : SARC Basis sets                               
  Anastasios Papadopoulos: AUTO-CI, single reference methods and gradients 
  Taras Petrenko         : pre 6.0 DFT Hessian and TD-DFT gradient,  ECA, NRVS 
  Petra Pikulova         : Analytic Raman intensities                    
  Peter Pinski           : DLPNO-MP2, DLPNO-MP2 Gradient                 
  Shashank Vittal Rao    : ES-AILFT, MagRelax                            
  Christoph Reimann      : Effective Core Potentials                     
  Marius Retegan         : Local ZFS, SOC                                
  Christoph Riplinger    : Optimizer, TS searches, QM/MM, DLPNO-CCSD(T), (RO)-DLPNO pert. Triples 
  Michael Roemelt        : Original ROCIS implementation, recursive CI coupling coefficients
  Masaaki Saitow         : Open-shell DLPNO-CCSD energy and density      
  Barbara Sandhoefer     : DKH picture change effects                    
  Yorick L. A. Schmerwitz: GMF and freeze-and-release deltaSCF, NEB S-IDPP initial path                    
  Kantharuban Sivalingam : CASSCF convergence/infrastructure, NEVPT2, NEVPT3, NEVPT4(SD), FIC-MRCI and CEPA variants
  Bernardo de Souza      : ESD, SOC TD-DFT                               
  Georgi L. Stoychev     : AutoAux, RI-MP2 NMR, DLPNO-MP2 response, X2C  
  Van Anh Tran           : RI-MP2 g-tensors                              
  Willem Van den Heuvel  : Paramagnetic NMR                              
  Zikuan Wang            : NOTCH, Electric field optimization            
  Frank Wennmohs         : Technical directorship and infrastructure     
  Hang Xu                : AUTO-CI-Response properties                   
                                                                         
[FACCTs GmbH]                                                            
  Markus Bursch, Nicolas Foglia, Miquel Garcia-Rates, Ingolf Harden, Hagen Neugebauer, Anastasios Papadopoulos, 
  Christoph Riplinger, Bernardo de Souza, Georgi L. Stoychev                                                    
                                                                 
  APM, various basis sets, CI-OPT, improved COSX, DLPNO-Multilevel,           
  DOCKER, DRACO, updates on ESD, Fragmentator, GOAT, IRC, LR-CPCM, L-BFGS, MBIS, meta-GGA TD-DFT gradient, ML-optimized integration grids, 
  MM, NACMEs, nearIR, NEB, NEB-TS, NL-DFT gradient (VV10), 2- and 3-layer-ONIOM, interface openCOSMO-RS, QMMM,   
  Crystal-QMMM, RESP, rigid body optimization, SF, symmetry and pop. for TD-DFT, various functionals, SOLVATOR                                   
                                                                         
[Other institutions]                                                     
  V. Asgeirsson          : NEB                                           
  Christoph Bannwarth    : sTDA-DFT, sTD-DFT, PBEh-3c, B97-3c, D3        
  Giovanni Bistoni       : ETS/NOCV, ADLD/ADEX, COVALED                  
  Martin Brehm           : Molecular dynamics                            
  Ronald Cardenas        : ETS/NOCV                                      
  Martina Colucci        : COVALED                                       
  Sebastian Ehlert       : rSCAN, r2SCAN, r2SCAN-3c, D4, dhf basis sets  
  Marvin Friede          : D4 for Fr, Ra, Ac-Lr                          
  Lars Goerigk           : TD-DFT with DH, B97 family of functionals     
  Stefan Grimme          : VdW corrections, initial TS optimization, DFT functionals, gCP, sTDA/sTD-DF 
  Waldemar Hujo          : DFT-NL                                        
  H. Jonsson             : NEB                                           
  Holger Kruse           : gCP                                           
  Marcel Mueller         : wB97X-3c, vDZP basis set                      
  Hagen Neugebauer       : wr2SCAN, Native XTB                           
  Gianluca Regni         : ADLD/ADEX                                     
  Tobias Risthaus        : pre 6.0 range-separated hybrid DFT and stability analysis
  Lukas Wittmann         : regularized MP2, r2SCAN double-hybrids, wr2SCAN        
                                                                         
We gratefully acknowledge several colleagues who have allowed us to      
interface, adapt or use parts of their codes:                            
  Ed Valeev, F. Pavosevic, A. Kumar             : LibInt (2-el integral package), F12 methods 
  Garnet Chan, S. Sharma, J. Yang, R. Olivares  : DMRG                   
  Ulf Ekstrom                                   : XCFun DFT Library      
  Mihaly Kallay                                 : mrcc  (arbitrary order and MRCC methods)
  Frank Weinhold                                : gennbo (NPA and NBO analysis)           
  Simon Mueller                                 : openCOSMO-RS                            
  Christopher J. Cramer and Donald G. Truhlar   : smd solvation model                     
  S Lehtola, MJT Oliveira, MAL Marques          : LibXC Library                           
  Liviu Ungur et al                             : ANISO software                          


 Your calculation uses the libint2 library for the computation of 2-el integrals
 For citations please refer to: http://libint.valeyev.net

 Your ORCA version has been built with support for libXC version: 7.0.0
 For citations please refer to: https://libxc.gitlab.io

 This ORCA versions uses:
   CBLAS   interface :  Fast vector & matrix operations
   LAPACKE interface :  Fast linear algebra routines
   SCALAPACK package :  Parallel linear algebra routines
   Shared memory     :  Shared parallel matrices
   BLAS/LAPACK       :  OpenBLAS 0.3.29  USE64BITINT DYNAMIC_ARCH NO_AFFINITY SkylakeX SINGLE_THREADED
        Core in use  :  SkylakeX
   Copyright (c) 2011-2014, The OpenBLAS Project


  ***********************************
  * Starting time: Thu Mar 12 13:38:41 2026
  * Host name:     midway3-login4.rcc.local
  * Process ID:    3162890
  * Working dir.:  /home/rzhu16/orca_TS_search/sn2_i_cl/DFT_test
  ***********************************

Your calculation utilizes the geometrical counterpoise correction gCP
Please cite in your paper:
H.Kruse, S. Grimme J.Chem.Phys., 136, (2012), 154101 
   

Your calculation utilizes the atom-pairwise dispersion correction
based on EEQ partial charges (D4)


================================================================================

cite the ECPs for I  [Def2-ECP] as follows:
Ce-Yb(ecp-28): M. Dolg, H. Stoll, H.Preuss, J. Chem. Phys., 1989, 90, 1730-1734.
Y-Cd(ecp-28), Hf-Hg(ecp-46): D. Andrae,U. Haeussermann, M. Dolg, H. Stoll, H. Preuss, Theor. Chim. Acta, 1990, 77, 123-141.
In-Sb(ecp-28), Tl-Bi(ecp-46): B. Metz, H. Stoll, M. Dolg, J. Chem. Phys., 2000, 113, 2563-2569.
Te-Xe(ecp-28), Po-Rn(ecp-46): K. A. Peterson, D. Figgen, E. Goll, H. Stoll, M. Dolg, J. Chem. Phys., 2003, 119, 11113-11123.
Rb(ecp-28), Cs(ecp-46): T. Leininger, A. Nicklass, W. Kuechle, H. Stoll, M. Dolg, A. Bergner, Chem. Phys. Lett., 1996, 255, 274-280.
Sr(ecp-28), Ba(ecp-46): M. Kaupp, P. V. Schleyer, H. Stoll and H. Preuss, J. Chem. Phys., 1991, 94, 1360-1366.
La(ecp-46): M. Dolg, H. Stoll, A. Savin, H. Preuss, Theor. Chim. Acta, 1989, 75, 173-194.
Lu(ecp-28): X. Cao, M. Dolg, J. Chem. Phys., 2001, 115, 7348-7355.
Fr-Ra(ecp-78) K. Eichkorn, F. Weigend, O. Treutler, R. Ahlrichs, Theor. Chem. Acc. 1997, 97, 119.
Ac-Lr(ecp-60) K. Eichkorn, F. Weigend, O. Treutler, R. Ahlrichs, Theor. Chem. Acc. 1997, 97, 119.

ECP parameters for I  [Def2-ECP] have been obtained from:
TURBOMOLE (7.0.2)

----- Orbital basis set information -----
Your calculation utilizes the basis: def2-mTZVPP
   Stefan Grimme, Andreas Hansen, Sebastian Ehlert, and Jan-Michael Mewes 
   J. Chem. Phys. 154, 064103 (2021). DOI: 10.1063/5.0040021

----- AuxJ basis set information -----
Your calculation utilizes the basis: def2-mTZVPP/J
   Stefan Grimme, Andreas Hansen, Sebastian Ehlert, and Jan-Michael Mewes 
   J. Chem. Phys. 154, 000000 (2021). DOI: 10.1063/5.0040021

================================================================================
                                        WARNINGS
                       Please study these warnings very carefully!
================================================================================



WARNING: SCAN, rSCAN, or r2SCAN functional requested.
  ===> : libXC variant has now been activated.



WARNING: Geometry Optimization
  ===> : Switching off AutoStart
         For restart on a previous wavefunction, please use MOREAD

================================================================================
                                       INPUT FILE
================================================================================
NAME = ts_optfreq.inp
|  1> ! r2SCAN-3c OptTS Freq PAL8 SOSCF TightSCF
|  2> 
|  3> %pal
|  4>    nprocs 8
|  5> end
|  6> 
|  7> %scf
|  8>    MaxIter 150
|  9> end
| 10> 
| 11> %geom
| 12>   Calc_Hess true
| 13>   Recalc_Hess 5
| 14> end
| 15> 
| 16> * xyz -1 1
| 17>   C          -0.00000000671916      0.00000008432194     -0.04046499393388
| 18>   H          -0.00000000461310      1.06589068538536     -0.07667637287066
| 19>   H           0.92308834991152     -0.53294513817774     -0.07667664415738
| 20>   H          -0.92308835830794     -0.53294513769852     -0.07667664273016
| 21>   I           0.00000000696536     -0.00000077531996      2.52590501032809
| 22>   Cl          0.00000001276332      0.00000028148893     -2.29201035663601
| 23> *
| 24> 
| 25>                          ****END OF INPUT****
================================================================================

                       *****************************
                       * Geometry Optimization Run *
                       *****************************

Geometry optimization settings:
Update method            Update   .... Bofill
Choice of coordinates    CoordSys .... (2022) Redundant Internals
Initial Hessian          InHess   .... Almloef's Model
Max. no of cycles        MaxIter  .... 50

Convergence Tolerances:
Energy Change            TolE     ....  5.0000e-06 Eh
Max. Gradient            TolMAXG  ....  3.0000e-04 Eh/bohr
RMS Gradient             TolRMSG  ....  1.0000e-04 Eh/bohr
Max. Displacement        TolMAXD  ....  4.0000e-03 bohr
RMS Displacement         TolRMSD  ....  2.0000e-03 bohr
Strict Convergence                .... False

------------------------------------------------------------------------------
                        ORCA OPTIMIZATION COORDINATE SETUP
------------------------------------------------------------------------------

The optimization will be done in redundant internal coordinates (2022)
Making redundant internal coordinates   ...  (2022 redundants) done
Following TS mode number                ...     0
Evaluating the initial hessian          ...  (Is done on the fly) done
Evaluating the coordinates              ...  done
Calculating the B-matrix                .... done
Calculating the G-matrix                .... done
The number of degrees of freedom        ....   17

    -----------------------------------------------------------------
                    Redundant Internal Coordinates


    -----------------------------------------------------------------
         Definition                    Initial Value    d2E/dq (diagonal element)
    -----------------------------------------------------------------
      1. B(H   1,C   0)                  1.0665         0.000000   
      2. B(H   2,C   0)                  1.0665         0.000000   
      3. B(H   3,C   0)                  1.0665         0.000000   
      4. B(I   4,H   2)                  2.8124         0.000000   
      5. B(I   4,C   0)                  2.5664         0.000000   
      6. B(I   4,H   3)                  2.8124         0.000000   
      7. B(I   4,H   1)                  2.8124         0.000000   
      8. B(Cl  5,C   0)                  2.2515         0.000000   
      9. A(H   1,C   0,H   3)          119.8857         0.000000   
     10. A(H   2,C   0,H   3)          119.8857         0.000000   
     11. A(H   1,C   0,Cl  5)           88.0542         0.000000   
     12. A(H   2,C   0,Cl  5)           88.0542         0.000000   
     13. A(H   3,C   0,Cl  5)           88.0542         0.000000   
     14. A(H   1,C   0,I   4)           91.9458         0.000000   
     15. A(H   2,C   0,I   4)           91.9458         0.000000   
     16. A(H   3,C   0,I   4)           91.9458         0.000000   
     17. A(H   1,C   0,H   2)          119.8857         0.000000   
    -----------------------------------------------------------------

Number of atoms                         .... 6
Number of degrees of freedom            .... 17


         *************************************************************
         *                GEOMETRY OPTIMIZATION CYCLE   1            *
         *************************************************************
---------------------------------
CARTESIAN COORDINATES (ANGSTROEM)
---------------------------------
  C     -0.000000    0.000000   -0.040465
  H     -0.000000    1.065891   -0.076676
  H      0.923088   -0.532945   -0.076677
  H     -0.923088   -0.532945   -0.076677
  I      0.000000   -0.000001    2.525905
  Cl     0.000000    0.000000   -2.292010

----------------------------
CARTESIAN COORDINATES (A.U.)
----------------------------
  NO LB      ZA    FRAG     MASS         X           Y           Z
   0 C     6.0000    0    12.011   -0.000000    0.000000   -0.076468
   1 H     1.0000    0     1.008   -0.000000    2.014241   -0.144897
   2 H     1.0000    0     1.008    1.744384   -1.007120   -0.144898
   3 H     1.0000    0     1.008   -1.744384   -1.007120   -0.144898
   4 I    25.0000*   0   126.900    0.000000   -0.000001    4.773269
   5 Cl   17.0000    0    35.453    0.000000    0.000001   -4.331272
* core charge reduced due to ECP

--------------------------------
INTERNAL COORDINATES (ANGSTROEM)
--------------------------------
 C      0   0   0     0.000000000000     0.00000000     0.00000000
 H      1   0   0     1.066505526193     0.00000000     0.00000000
 H      1   2   0     1.066505512383   119.88565513     0.00000000
 H      1   2   3     1.066505507732   119.88565548   186.73127635
 I      1   2   3     2.566370004262    91.94577379    93.36563790
 Cl     1   2   3     2.251545362702    88.05424039   273.36563870

---------------------------
INTERNAL COORDINATES (A.U.)
---------------------------
 C      0   0   0     0.000000000000     0.00000000     0.00000000
 H      1   0   0     2.015403364818     0.00000000     0.00000000
 H      1   2   0     2.015403338722   119.88565513     0.00000000
 H      1   2   3     2.015403329931   119.88565548   186.73127635
 I      1   2   3     4.849736466366    91.94577379    93.36563790
 Cl     1   2   3     4.254804113607    88.05424039   273.36563870

---------------------
BASIS SET INFORMATION
---------------------
There are 4 groups of distinct atoms

 Group   1 Type C   : 11s6p1d contracted to 5s3p1d pattern {62111/411/1}
 Group   2 Type H   : 4s1p contracted to 2s1p pattern {31/1}
 Group   3 Type I   : 11s10p8d contracted to 6s5p3d pattern {521111/34111/611}
 Group   4 Type Cl  : 14s9p2d contracted to 5s4p2d pattern {73211/6111/11}

Atom   0C    basis set group =>   1
Atom   1H    basis set group =>   2
Atom   2H    basis set group =>   2
Atom   3H    basis set group =>   2
Atom   4I    basis set group =>   3
Atom   5Cl   basis set group =>   4
---------------------------------
AUXILIARY/J BASIS SET INFORMATION
---------------------------------
There are 4 groups of distinct atoms

 Group   1 Type C   : 8s3p3d contracted to 6s3p3d pattern {311111/111/111}
 Group   2 Type H   : 5s2p1d contracted to 3s1p1d pattern {311/2/1}
 Group   3 Type I   : 11s5p5d3f1g contracted to 8s4p3d2f1g pattern {41111111/2111/311/21/1}
 Group   4 Type Cl  : 14s5p5d2f contracted to 8s4p3d1f pattern {71111111/2111/311/2}

Atom   0C    basis set group =>   1
Atom   1H    basis set group =>   2
Atom   2H    basis set group =>   2
Atom   3H    basis set group =>   2
Atom   4I    basis set group =>   3
Atom   5Cl   basis set group =>   4
-------------------------
ECP PARAMETER INFORMATION
-------------------------

 Group 1, Type I  ECP Def2-ECP (replacing 28 core electrons, lmax=3)

Atom   4I    ECP group =>   1



           ************************************************************
           *        Program running with 8 parallel MPI-processes     *
           *              working on a common directory               *
           ************************************************************
------------------------------------------------------------------------------
                             ORCA STARTUP CALCULATIONS
                           -- RI-GTO INTEGRALS CHOSEN --
------------------------------------------------------------------------------
------------------------------------------------------------------------------
                   ___                                                        
                  /   \      - P O W E R E D   B Y -                         
                 /     \                                                     
                 |  |  |   _    _      __       _____    __    __             
                 |  |  |  | |  | |    /  \     |  _  \  |  |  /  |          
                  \  \/   | |  | |   /    \    | | | |  |  | /  /          
                 / \  \   | |__| |  /  /\  \   | |_| |  |  |/  /          
                |  |  |   |  __  | /  /__\  \  |    /   |      \           
                |  |  |   | |  | | |   __   |  |    \   |  |\   \          
                \     /   | |  | | |  |  |  |  | |\  \  |  | \   \       
                 \___/    |_|  |_| |__|  |__|  |_| \__\ |__|  \__/        
                                                                              
                      - O R C A' S   B I G   F R I E N D -                    
                                      &                                       
                       - I N T E G R A L  F E E D E R -                       
                                                                              
 v1 FN, 2020, v2 2021, v3 2022-2024                                           
------------------------------------------------------------------------------


----------------------
SHARK INTEGRAL PACKAGE
----------------------

Number of atoms                             ...      6
Number of basis functions                   ...     97
Number of shells                            ...     43
Maximum angular momentum                    ...      2
Integral batch strategy                     ... SHARK/LIBINT Hybrid
RI-J (if used) integral strategy            ... SPLIT-RIJ (Revised 2003 algorithm where possible)
Printlevel                                  ...      1
Contraction scheme used                     ... SEGMENTED contraction
Prescreening option                         ... SCHWARTZ
   Thresh                                   ... 2.500e-11
   Tcut                                     ... 2.500e-12
   Tpresel                                  ... 2.500e-12 
Coulomb Range Separation                    ... NOT USED
Exchange Range Separation                   ... NOT USED
Multipole approximations                    ... NOT USED
Finite Nucleus Model                        ... NOT USED
CABS basis                                  ... NOT available
Auxiliary Coulomb fitting basis             ... AVAILABLE
   # of basis functions in Aux-J            ...    163
   # of shells in Aux-J                     ...     61
   Maximum angular momentum in Aux-J        ...      4
Auxiliary J/K fitting basis                 ... NOT available
Auxiliary Correlation fitting basis         ... NOT available
Auxiliary 'external' fitting basis          ... NOT available

Checking pre-screening integrals            ... done (  0.0 sec) Dimension = 43
   => SHARK Basis and OBASIS are compatible. Storing Pre-screening
Shell pair information
Shell pair cut-off parameter TPreSel        ...   2.5e-12
Total number of shell pairs                 ...       946
Shell pairs after pre-screening             ...       871
Total number of primitive shell pairs       ...      3934
Primitive shell pairs kept                  ...      2754
          la=0 lb=0:    225 shell pairs
          la=1 lb=0:    306 shell pairs
          la=1 lb=1:    114 shell pairs
          la=2 lb=0:    121 shell pairs
          la=2 lb=1:     85 shell pairs
          la=2 lb=2:     20 shell pairs

Checking whether 4 symmetric matrices of dimension 97 fit in memory
:Max Core in MB      =   4096.00
 MB in use           =      4.43
 MB left             =   4091.57
 MB needed           =      0.15
 Data fit in memory  = YES
Calculating RI/J V-Matrix + Cholesky decomp.... done (  0.0 sec)
Calculating Nuclear repulsion               ... done (  0.0 sec) ENN=    136.463268993245 Eh

Diagonalization of the overlap matrix:
Smallest eigenvalue                        ... 4.429e-03
Time for diagonalization                   ...    0.001 sec
Threshold for overlap eigenvalues          ... 1.000e-07
Number of eigenvalues below threshold      ... 0
Time for construction of square roots      ...    0.001 sec
Total time needed                          ...    0.003 sec

-------------------
DFT GRID GENERATION
-------------------

General Integration Accuracy     IntAcc      ... 4.388
Radial Grid Type                 RadialGrid  ... OptM3 with GC (2021)
Angular Grid (max. ang.)         AngularGrid ... 4 (Lebedev-302)
Angular grid pruning method      GridPruning ... 4 (adaptive)
Weight generation scheme         WeightScheme... mBecke (2022)
Basis function cutoff            BFCut       ... 1.0000e-11
Integration weight cutoff        WCut        ... 1.0000e-14
Partially contracted basis set               ... off
Rotationally invariant grid construction     ... off
Angular grids for H and He will be reduced by one unit

Total number of grid points                  ...    34836
Total number of batches                      ...      548
Average number of points per batch           ...       63
Average number of grid points per atom       ...     5806
Grids setup in   1.2 sec
Initializing property integral containers    ... done (  0.0 sec)

SHARK setup successfully completed in   1.7 seconds

Maximum memory used throughout the entire STARTUP-calculation: 12.7 MB


           ************************************************************
           *        Program running with 8 parallel MPI-processes     *
           *              working on a common directory               *
           ************************************************************
-------------------------------------------------------------------------------
                                 ORCA GUESS
                   Start orbitals & Density for SCF / CASSCF
-------------------------------------------------------------------------------

------------
SCF SETTINGS
------------
Hamiltonian:
 Density Functional     Method          .... DFT(GTOs)
  Functional kind                       .... Exchange
  Functional name                       .... Re-regularized SCAN exchange by Furness et al
  Functional family                     .... MGGA
  Functional refs                              
    [ 0] J. W. Furness, A. D. Kaplan, J. Ning, J. P. Perdew, and J. Sun.,  J. Phys. Chem. Lett. 11, 8208-8215 (2020), doi: 10.1021/acs.jpclett.0c02405
    [ 1] J. W. Furness, A. D. Kaplan, J. Ning, J. P. Perdew, and J. Sun.,  J. Phys. Chem. Lett. 11, 9248-9248 (2020), doi: 10.1021/acs.jpclett.0c03077
  Functional external parameters        .... 6
    Parameter  0 _c1        =  6.670000e-01 : c1 parameter        
    Parameter  1 _c2        =  8.000000e-01 : c2 parameter        
    Parameter  2 _d         =  1.240000e+00 : d parameter         
    Parameter  3 _k1        =  6.500000e-02 : k1 parameter        
    Parameter  4 _eta       =  1.000000e-03 : eta parameter       
    Parameter  5 _dp2       =  3.610000e-01 : dp2 parameter       
  Functional kind                       .... Correlation
  Functional name                       .... Re-regularized SCAN correlation by Furness et al
  Functional family                     .... MGGA
  Functional refs                              
    [ 0] J. W. Furness, A. D. Kaplan, J. Ning, J. P. Perdew, and J. Sun.,  J. Phys. Chem. Lett. 11, 8208-8215 (2020), doi: 10.1021/acs.jpclett.0c02405
    [ 1] J. W. Furness, A. D. Kaplan, J. Ning, J. P. Perdew, and J. Sun.,  J. Phys. Chem. Lett. 11, 9248-9248 (2020), doi: 10.1021/acs.jpclett.0c03077
  Functional external parameters        .... 1
    Parameter  0 _eta       =  1.000000e-03 : Regularization parameter
 Gradients option       PostSCFGGA      .... off
 RI-approximation to the Coulomb term is turned on
   Number of AuxJ basis functions       .... 163


General Settings:
 Integral files         IntName         .... ts_optfreq
 Hartree-Fock type      HFTyp           .... RHF
 Total Charge           Charge          ....   -1
 Multiplicity           Mult            ....    1
 Number of Electrons    NEL             ....   52
 Basis Dimension        Dim             ....   97
 Nuclear Repulsion      ENuc            ....    136.4632689932 Eh

Convergence Acceleration:
 AO-DIIS                CNVDIIS         .... on
   Start iteration      DIISMaxIt       ....    12
   Startup error        DIISStart       ....  0.200000
   # of expansion vecs  DIISMaxEq       ....     5
   Bias factor          DIISBfac        ....   1.050
   Max. coefficient     DIISMaxC        ....  10.000
 MO-DIIS                CNVKDIIS        .... off
 Trust-Rad. Augm. Hess. CNVTRAH         .... auto
   Auto Start mean grad. ratio tolernc. ....  1.125000
   Auto Start start iteration           ....    50
   Auto Start num. interpolation iter.  ....    10
   Max. Number of Micro iterations      ....    24
   Max. Number of Macro iterations      .... Maxiter - #DIIS iter
   Number of Davidson start vectors     ....     2
   Converg. threshold    (grad. norm)   ....   1.000e-05
   Grad. Scal. Fac. for Micro threshold ....   0.100
   Minimum threshold for Micro iter.    ....   1.000e-02
   NR start threshold (gradient norm)   ....   1.000e-04
   Initial trust radius                 ....   0.400
   Minimum AH scaling param. (alpha)    ....   1.000
   Maximum AH scaling param. (alpha)    .... 1000.000
   Quad. conv. algorithm                .... NR
   White noise on init. David. guess    .... on
   Maximum white noise                  ....   0.010
   Pseudo random numbers                .... off
   Inactive MOs                         .... canonical
   Orbital update algorithm             .... Taylor
   Preconditioner                       .... Diag
   Full preconditioner red. dimension   ....   250
   COSX micro iterations for RIJONX calc.... off
 SOSCF                 CNVSOSCF           .... on
   Start iteration     SOSCFMaxIt         ....   150
   Startup grad/error  SOSCFStart         ....  0.003300
   Hessian update      SOSCFHessUp        .... L-BFGS
   Autom. constraints  SOSCFAutoConstrain .... off
 Level Shifting         CNVShift        .... on
   Level shift para.    LevelShift      ....    0.2500
   Turn off err/grad.   ShiftErr        ....    0.0010
 Zerner damping         CNVZerner       .... off
 Static damping         CNVDamp         .... on
   Fraction old density DampFac         ....    0.7000
   Max. Damping (<1)    DampMax         ....    0.9800
   Min. Damping (>=0)   DampMin         ....    0.0000
   Turn off err/grad.   DampErr         ....    0.1000

SCF Procedure:
 Maximum # iterations   MaxIter         ....   150
 SCF integral mode      SCFMode         .... Direct
   Integral package                     .... SHARK and LIBINT hybrid scheme
 Reset frequency        DirectResetFreq ....    20
 Integral Threshold     Thresh          ....  2.500e-11 Eh
 Primitive CutOff       TCut            ....  2.500e-12 Eh

Convergence Tolerance:
 Convergence Check Mode ConvCheckMode   .... Total+1el-Energy
 Convergence forced     ConvForced      .... 0
 Energy Change          TolE            ....  1.000e-08 Eh
 1-El. energy change                    ....  1.000e-05 Eh
 Orbital Gradient       TolG            ....  1.000e-05
 Orbital Rotation angle TolX            ....  1.000e-05
 DIIS Error             TolErr          ....  5.000e-07

------------------------------
INITIAL GUESS: MODEL POTENTIAL
------------------------------
Loading Hartree-Fock densities                     ... done
Atomic calculation to generate a density for atom 4 (I  with ECP)
  Multiplicity assumed   :    2
  Atomic configuration   : 1s2 2s2 2p6 3s2 3p6 4s2 3d10 4p6 5s2 4d10 5p5 
  Number of open shells  : 1
  Command: /software/orca-6.1.0-el8-x86_64/bin/orca ts_optfreq_atom53.inp "" > ts_optfreq_atom53.out
Returned from the atomic calculation with res=0
Calculating cut-offs                               ... done
Initializing the effective Hamiltonian             ... done
Setting up the integral package (SHARK)            ... done
Starting the Coulomb interaction                   ... done (   0.0 sec)
Making the grid                                    ... done (   0.3 sec)
Mapping shells                                     ... done
Starting the XC term evaluation                    ... done (   0.0 sec)
  promolecular density results
     # of electrons  =     78.998389146
     EX              =   -206.437470338
     EC              =     -3.796359817
     EX+EC           =   -210.233830155
Transforming the Hamiltonian                       ... done (   0.1 sec)
Diagonalizing the Hamiltonian                      ... done (   0.0 sec)
Back transforming the eigenvectors                 ... done (   0.0 sec)
Now organizing SCF variables                       ... done
                      ------------------
                      INITIAL GUESS DONE (   5.6 sec)
                      ------------------
             **** ENERGY FILE WAS UPDATED (ts_optfreq.en.tmp) ****
Finished Guess after   5.8 sec
Maximum memory used throughout the entire GUESS-calculation: 7.2 MB


           ************************************************************
           *        Program running with 8 parallel MPI-processes     *
           *              working on a common directory               *
           ************************************************************

-------------------------------------------------------------------------------------------
                                      ORCA LEAN-SCF
                              memory conserving SCF solver
-------------------------------------------------------------------------------------------

----------------------------------------D-I-I-S--------------------------------------------
Iteration    Energy (Eh)           Delta-E    RMSDP     MaxDP     DIISErr   Damp  Time(sec)
-------------------------------------------------------------------------------------------
               ***  Starting incremental Fock matrix formation  ***
    1    -797.7663054880247273     0.00e+00  1.22e-02  1.08e-01  6.02e-01  0.700   0.2
    2    -797.8194479981270888    -5.31e-02  9.20e-03  8.21e-02  4.06e-01  0.700   0.3
    3    -797.8452331471555681    -2.58e-02  5.48e-03  4.55e-02  2.75e-01  0.700   0.4
                               ***Turning on AO-DIIS***
    4    -797.8599823252297938    -1.47e-02  2.66e-03  1.93e-02  1.87e-01  0.700   0.3
    5    -797.8698349613935079    -9.85e-03  1.54e-03  1.20e-02  1.33e-01  0.700   0.4
    6    -797.8768624938916219    -7.03e-03  1.03e-03  7.63e-03  9.42e-02  0.700   0.5
    7    -797.8819399728204189    -5.08e-03  2.81e-03  1.71e-02  6.63e-02  0.000   0.4
    8    -797.8936890791776477    -1.17e-02  4.23e-04  2.81e-03  4.46e-03  0.000   0.4
                              *** Initializing SOSCF ***
---------------------------------------S-O-S-C-F--------------------------------------
Iteration    Energy (Eh)           Delta-E    RMSDP     MaxDP     MaxGrad    Time(sec)
--------------------------------------------------------------------------------------
    9    -797.8937336740966657    -4.46e-05  1.52e-04  1.09e-03  1.61e-03     0.5
               *** Restarting incremental Fock matrix formation ***
   10    -797.8937399723913586    -6.30e-06  1.43e-04  1.07e-03  2.00e-04     0.4
   11    -797.8937387264545578     1.25e-06  8.92e-05  5.14e-04  3.76e-04     0.4
   12    -797.8937406599627593    -1.93e-06  4.41e-05  3.92e-04  5.49e-05     0.4
   13    -797.8937406488896613     1.11e-08  2.35e-05  2.10e-04  5.75e-05     0.4
   14    -797.8937407044465999    -5.56e-08  3.94e-06  2.55e-05  6.42e-06     0.4
   15    -797.8937407032046849     1.24e-09  2.71e-06  1.73e-05  1.18e-05     0.4
                 **** Energy Check signals convergence ****

               *****************************************************
               *                     SUCCESS                       *
               *           SCF CONVERGED AFTER  15 CYCLES          *
               *****************************************************

             **** ENERGY FILE WAS UPDATED (ts_optfreq.en.tmp) ****

----------------
TOTAL SCF ENERGY
----------------

Total Energy       :       -797.89374070504709 Eh          -21711.79249 eV

Components:
Nuclear Repulsion  :        136.46326899324521 Eh            3713.35433 eV
Electronic Energy  :       -934.35700969829236 Eh          -25425.14682 eV
One Electron Energy:      -1488.61528141788790 Eh          -40507.28116 eV
Two Electron Energy:        554.25827171959554 Eh           15082.13433 eV

Virial components:
Potential Energy   :      -1408.96085716455491 Eh          -38339.77408 eV
Kinetic Energy     :        611.06711645950782 Eh           16627.98159 eV
Virial Ratio       :          2.30573830470211

DFT components:
N(Alpha)           :       26.000003270631 electrons
N(Beta)            :       26.000003270631 electrons
N(Total)           :       52.000006541262 electrons
E(X)               :      -55.252071980997 Eh       
E(C)               :       -2.010340417882 Eh       
E(XC)              :      -57.262412398879 Eh       

---------------
SCF CONVERGENCE
---------------

  Last Energy change         ...   -1.2419e-09  Tolerance :   1.0000e-08
  Last MAX-Density change    ...    1.7321e-05  Tolerance :   1.0000e-07
  Last RMS-Density change    ...    2.7060e-06  Tolerance :   5.0000e-09
  Last DIIS Error            ...    1.6104e-03  Tolerance :   5.0000e-07
  Last Orbital Gradient      ...    1.1793e-05  Tolerance :   1.0000e-05
  Last Orbital Rotation      ...    2.1632e-05  Tolerance :   1.0000e-05


----------------
ORBITAL ENERGIES
----------------

  NO   OCC          E(Eh)            E(eV) 
   0   2.0000    -100.979265     -2747.7855 
   1   2.0000      -9.931330      -270.2452 
   2   2.0000      -9.135457      -248.5884 
   3   2.0000      -6.878305      -187.1682 
   4   2.0000      -6.873277      -187.0314 
   5   2.0000      -6.873277      -187.0314 
   6   2.0000      -6.610148      -179.8713 
   7   2.0000      -4.621542      -125.7585 
   8   2.0000      -4.615983      -125.6073 
   9   2.0000      -4.615983      -125.6073 
  10   2.0000      -1.658217       -45.1224 
  11   2.0000      -1.656823       -45.0844 
  12   2.0000      -1.656822       -45.0844 
  13   2.0000      -1.652079       -44.9554 
  14   2.0000      -1.652078       -44.9553 
  15   2.0000      -0.565685       -15.3931 
  16   2.0000      -0.500682       -13.6242 
  17   2.0000      -0.436558       -11.8793 
  18   2.0000      -0.264724        -7.2035 
  19   2.0000      -0.264724        -7.2035 
  20   2.0000      -0.151980        -4.1356 
  21   2.0000      -0.079596        -2.1659 
  22   2.0000      -0.079596        -2.1659 
  23   2.0000      -0.061037        -1.6609 
  24   2.0000      -0.061037        -1.6609 
  25   2.0000      -0.056521        -1.5380 
  26   0.0000       0.102275         2.7830 
  27   0.0000       0.241419         6.5693 
  28   0.0000       0.303047         8.2463 
  29   0.0000       0.308035         8.3821 
  30   0.0000       0.308042         8.3822 
  31   0.0000       0.328788         8.9468 
  32   0.0000       0.328788         8.9468 
  33   0.0000       0.352955         9.6044 
  34   0.0000       0.352958         9.6045 
  35   0.0000       0.379114        10.3162 
  36   0.0000       0.401981        10.9385 
*Only the first 10 virtual orbitals were printed.

                    ********************************
                    * MULLIKEN POPULATION ANALYSIS *
                    ********************************

-----------------------
MULLIKEN ATOMIC CHARGES
-----------------------
   0 C :   -0.245750
   1 H :    0.187863
   2 H :    0.187857
   3 H :    0.187857
   4 I :   -0.687007
   5 Cl:   -0.630820
Sum of atomic charges:   -1.0000000

--------------------------------
MULLIKEN REDUCED ORBITAL CHARGES
--------------------------------
  0 C s       :     3.321727  s :     3.321727
      pz      :     0.710862  p :     2.901939
      px      :     1.095545
      py      :     1.095532
      dz2     :     0.010314  d :     0.022083
      dxz     :     0.001127
      dyz     :     0.001127
      dx2y2   :     0.004758
      dxy     :     0.004758

  1 H s       :     0.791942  s :     0.791942
      pz      :     0.004357  p :     0.020195
      px      :     0.003363
      py      :     0.012475

  2 H s       :     0.791948  s :     0.791948
      pz      :     0.004357  p :     0.020195
      px      :     0.010197
      py      :     0.005641

  3 H s       :     0.791948  s :     0.791948
      pz      :     0.004357  p :     0.020195
      px      :     0.010197
      py      :     0.005641

  4 I s       :     3.984807  s :     3.984807
      pz      :     3.676390  p :    11.677707
      px      :     4.000658
      py      :     4.000658
      dz2     :     2.013121  d :    10.024493
      dxz     :     2.005603
      dyz     :     2.005603
      dx2y2   :     2.000083
      dxy     :     2.000083

  5 Cls       :     5.960312  s :     5.960312
      pz      :     3.669076  p :    11.654885
      px      :     3.992904
      py      :     3.992905
      dz2     :     0.008964  d :     0.015623
      dxz     :     0.003281
      dyz     :     0.003281
      dx2y2   :     0.000048
      dxy     :     0.000048



                     *******************************
                     * LOEWDIN POPULATION ANALYSIS *
                     *******************************

----------------------
LOEWDIN ATOMIC CHARGES
----------------------
   0 C :   -0.458778
   1 H :    0.161504
   2 H :    0.161505
   3 H :    0.161505
   4 I :   -0.524683
   5 Cl:   -0.501054

-------------------------------
LOEWDIN REDUCED ORBITAL CHARGES
-------------------------------
  0 C s       :     3.123244  s :     3.123244
      pz      :     0.908444  p :     3.285306
      px      :     1.188433
      py      :     1.188429
      dz2     :     0.020158  d :     0.050228
      dxz     :     0.001663
      dyz     :     0.001663
      dx2y2   :     0.013372
      dxy     :     0.013372

  1 H s       :     0.789183  s :     0.789183
      pz      :     0.008873  p :     0.049313
      px      :     0.007571
      py      :     0.032869

  2 H s       :     0.789181  s :     0.789181
      pz      :     0.008873  p :     0.049313
      px      :     0.026545
      py      :     0.013895

  3 H s       :     0.789181  s :     0.789181
      pz      :     0.008873  p :     0.049313
      px      :     0.026545
      py      :     0.013895

  4 I s       :     3.884677  s :     3.884677
      pz      :     3.610405  p :    11.583329
      px      :     3.986462
      py      :     3.986462
      dz2     :     2.036202  d :    10.056677
      dxz     :     2.010084
      dyz     :     2.010083
      dx2y2   :     2.000154
      dxy     :     2.000154

  5 Cls       :     5.865484  s :     5.865484
      pz      :     3.633790  p :    11.600054
      px      :     3.983132
      py      :     3.983133
      dz2     :     0.022639  d :     0.035516
      dxz     :     0.006321
      dyz     :     0.006321
      dx2y2   :     0.000118
      dxy     :     0.000118



                      *****************************
                      * MAYER POPULATION ANALYSIS *
                      *****************************

  NA   - Mulliken gross atomic population
  ZA   - Total nuclear charge
  QA   - Mulliken gross atomic charge
  VA   - Mayer's total valence
  BVA  - Mayer's bonded valence
  FA   - Mayer's free valence

  ATOM       NA         ZA         QA         VA         BVA        FA
  0 C      6.2457     6.0000    -0.2457     3.7330     3.7330     0.0000
  1 H      0.8121     1.0000     0.1879     0.9445     0.9445     0.0000
  2 H      0.8121     1.0000     0.1879     0.9445     0.9445     0.0000
  3 H      0.8121     1.0000     0.1879     0.9445     0.9445    -0.0000
  4 I     25.6870    25.0000    -0.6870     0.5453     0.5453    -0.0000
  5 Cl    17.6308    17.0000    -0.6308     0.5941     0.5941    -0.0000

  Mayer bond orders larger than 0.100000
B(  0-C ,  1-H ) :   0.9517 B(  0-C ,  2-H ) :   0.9517 B(  0-C ,  3-H ) :   0.9517 
B(  0-C ,  4-I ) :   0.4102 B(  0-C ,  5-Cl) :   0.4678 B(  4-I ,  5-Cl) :   0.1460 


-------
TIMINGS
-------

Total SCF time: 0 days 0 hours 0 min 6 sec 

Total time                  ....       6.509 sec
Sum of individual times     ....       6.212 sec  ( 95.4%)

SCF preparation             ....       0.498 sec  (  7.7%)
Fock matrix formation       ....       4.458 sec  ( 68.5%)
  Startup                   ....       0.016 sec  (  0.4% of F)
  Split-RI-J                ....       1.020 sec  ( 22.9% of F)
  XC integration            ....       3.177 sec  ( 71.3% of F)
    XC Preparation          ....       0.000 sec  (  0.0% of XC)
    Basis function eval.    ....       0.508 sec  ( 16.0% of XC)
    Density eval.           ....       0.602 sec  ( 19.0% of XC)
    XC-Functional eval.     ....       0.672 sec  ( 21.2% of XC)
    XC-Potential eval.      ....       0.492 sec  ( 15.5% of XC)
Diagonalization             ....       0.000 sec  (  0.0%)
Density matrix formation    ....       0.150 sec  (  2.3%)
Total Energy calculation    ....       0.031 sec  (  0.5%)
Population analysis         ....       0.010 sec  (  0.2%)
Orbital Transformation      ....       0.016 sec  (  0.2%)
Orbital Orthonormalization  ....       0.000 sec  (  0.0%)
DIIS solution               ....       0.414 sec  (  6.4%)
SOSCF solution              ....       0.633 sec  (  9.7%)
Finished LeanSCF after   6.5 sec

Maximum memory used throughout the entire LEANSCF-calculation: 6.6 MB


           ************************************************************
           *        Program running with 8 parallel MPI-processes     *
           *              working on a common directory               *
           ************************************************************

------------------------------------------------------------------------------
                         ORCA PROPERTY INTEGRAL CALCULATIONS
------------------------------------------------------------------------------

GBWName                                   ... ts_optfreq.gbw
Number of atoms                           ...      6
Number of basis functions                 ...     97
Max core memory                           ...   4096 MB

Dipole integrals                          ... YES
Quadrupole integrals                      ...  NO
Linear momentum integrals                 ...  NO
Angular momentum integrals                ...  NO
Higher moments length integrals           ...  NO
Higher moments velocity integrals         ...  NO
Kinetic energy integrals                  ...  NO
GIAO right hand sides                     ...  NO
GIAO dipole derivative integrals          ...  NO
SOC integrals                             ...  NO
EPR diamagnetic integrals (GIAO)          ...  NO
EPR gauge integrals                       ...  NO
Field gradient integrals                  ...  NO (   0 nuclei)
Spin-dipole/Fermi contact integrals       ...  NO (   0 nuclei)
Contact density integrals                 ...  NO (   0 nuclei)
Nucleus-orbit integrals                   ...  NO (   0 nuclei)
Geometric perturbations                   ...  NO (   6 nuclei)

Choice of electric origin   ... Center of mass
Position of electric origin ... (  0.0000, -0.0000,  2.5414) 
Choice of magnetic origin   ... GIAO
Position of magnetic origin ... (  0.0000,  0.0000,  0.0000) 

Calculating integrals                     ... Electric Dipole (Length)     done (  0.0 sec)

Property integrals calculated in   0.1 sec

Maximum memory used throughout the entire PROPINT-calculation: 7.0 MB


-------------------------------------------------------------------------------
                          DFT DISPERSION CORRECTION                            
                                                                               
                                DFTD4 V3.4.0                                   
-------------------------------------------------------------------------------
The R2SCAN3C composite method is recognized
Using three-body term ABC
Active option DFTDOPT                   ...         5   

-------------------------   ----------------
Dispersion correction           -0.001256987
-------------------------   ----------------

------------------   -----------------
gCP correction             0.004510492
------------------   -----------------

-------------------------   --------------------
FINAL SINGLE POINT ENERGY      -797.890487199792
-------------------------   --------------------



           ************************************************************
           *        Program running with 8 parallel MPI-processes     *
           *              working on a common directory               *
           ************************************************************
------------------------------------------------------------------------------
                         ORCA SCF GRADIENT CALCULATION
------------------------------------------------------------------------------

Nuc. rep. gradient        (SHARK) ... done (  0.0 sec)
HCore & Overlap gradient  (SHARK) ... done (  0.0 sec)
ECP gradient              (SHARK) ... done (  0.3 sec)
Split-RIJ-J gradient      (SHARK) ... done (  1.5 sec)
XC gradient                       ... done (  0.5 sec)
Dispersion correction             ... done (  0.1 sec)

-------------------
DISPERSION GRADIENT
-------------------

   1   C   :   -0.000000000    0.000000000   -0.000004810
   2   H   :   -0.000000000    0.000000941   -0.000002374
   3   H   :    0.000000815   -0.000000471   -0.000002374
   4   H   :   -0.000000815   -0.000000471   -0.000002374
   5   I   :    0.000000000   -0.000000000    0.000100146
   6   Cl  :    0.000000000    0.000000000   -0.000088212

Difference to translation invariance:
           :    0.0000000000   -0.0000000000    0.0000000000

Difference to rotation invariance:
           :   -0.0000000000   -0.0000000000   -0.0000000000

Norm of the Dispersion gradient    ...    0.0001336164
RMS gradient                       ...    0.0000314937
MAX gradient                       ...    0.0001001459
gCP correction                   ... done

------------------
CARTESIAN GRADIENT
------------------

   1   C   :   -0.000000004    0.000005017    0.011994396
   2   H   :    0.000000000   -0.005849441   -0.004644117
   3   H   :   -0.005066240    0.002921743   -0.004642810
   4   H   :    0.005066243    0.002921745   -0.004642809
   5   I   :    0.000000000    0.000002441   -0.014831327
   6   Cl  :    0.000000000   -0.000001505    0.016766667

Difference to translation invariance:
           :   -0.0000000000    0.0000000000   -0.0000000000

Difference to rotation invariance:
           :   -0.0000212505   -0.0000000002    0.0000000002

Norm of the Cartesian gradient     ...    0.0285001205
RMS gradient                       ...    0.0067175428
MAX gradient                       ...    0.0167666670

-------
TIMINGS
-------

Total SCF gradient time     ....        2.491 sec

Densities                   ....       0.000 sec  (  0.0%)
One electron gradient       ....       0.007 sec  (  0.3%)
RI-J Coulomb gradient       ....       1.506 sec  ( 60.5%)
XC gradient                 ....       0.502 sec  ( 20.2%)

Maximum memory used throughout the entire SCFGRAD-calculation: 26.9 MB


           ************************************************************
           *        Program running with 8 parallel MPI-processes     *
           *              working on a common directory               *
           ************************************************************

------------------------------------------------------------------------------
                         ORCA PROPERTY INTEGRAL CALCULATIONS
------------------------------------------------------------------------------

GBWName                                   ... ts_optfreq.gbw
Number of atoms                           ...      6
Number of basis functions                 ...     97
Max core memory                           ...   4096 MB

Dipole integrals                          ...  NO
Quadrupole integrals                      ...  NO
Linear momentum integrals                 ...  NO
Angular momentum integrals                ...  NO
Higher moments length integrals           ...  NO
Higher moments velocity integrals         ...  NO
Kinetic energy integrals                  ...  NO
GIAO right hand sides                     ...  NO
GIAO dipole derivative integrals          ...  NO
SOC integrals                             ...  NO
EPR diamagnetic integrals (GIAO)          ...  NO
EPR gauge integrals                       ...  NO
Field gradient integrals                  ...  NO (   0 nuclei)
Spin-dipole/Fermi contact integrals       ...  NO (   0 nuclei)
Contact density integrals                 ...  NO (   0 nuclei)
Nucleus-orbit integrals                   ...  NO (   0 nuclei)
Geometric perturbations                   ... YES (   6 nuclei)

Choice of electric origin   ... Center of mass
Position of electric origin ... (  0.0000, -0.0000,  2.5414) 
Choice of magnetic origin   ... GIAO
Position of magnetic origin ... (  0.0000,  0.0000,  0.0000) 

Calculating integrals                     ... Geometrical perturbation right hand sides

-----------------------
GEOMETRIC PERTURBATIONS (6 nuclei)
-----------------------

MaxCore                            ...   4096 MB
Number of batches                  ...      1

BATCH   0: Atoms    0 -    5 ( 18 perturbations)
   => H(core) and overlap derivative integrals     ... done (     0.0 sec)
   => Making and storing internal U-coefficients   ... done (     0.0 sec)
   => RI-J derivative integrals                    ... done (     1.4 sec)
   => RI-J response operators                      ... done (     0.1 sec)
   => ECP derivative integrals                     ... done (     2.2 sec)
   => XC derivative integrals                      ... done (     4.8 sec)
   => XC response operators                        ... done (     0.9 sec)
   => Completing and storing right hand sides      ... done (     0.0 sec)
   => Total time for right hand sides =   9.5 sec

  geometrical perturbations done (  9.6 sec)

Property integrals calculated in   9.6 sec

Maximum memory used throughout the entire PROPINT-calculation: 17.4 MB


           ************************************************************
           *        Program running with 8 parallel MPI-processes     *
           *              working on a common directory               *
           ************************************************************
------------------------------------------------------------------------------
                            ORCA SCF RESPONSE CALCULATION
------------------------------------------------------------------------------

GBWName                                 ... ts_optfreq.gbw
Number of atoms                         ...      6
Number of basis functions               ...     97
Max core memory                         ...   4096 MB

Electric field perturbation             ...  NO
Quadrupolar field perturbation          ...  NO
Magnetic field perturbation (no GIAO)   ...  NO
Magnetic field perturbation (with GIAO) ...  NO
Linear momentum (velocity) perturbation ...  NO
Spin-orbit coupling perturbation        ...  NO
Choice of electric origin               ... Center of mass
Position of electric origin             ...     0.000000    -0.000001     2.541404
Choice of magnetic origin               ... GIAO
Position of magnetic origin             ...     0.000000     0.000000     0.000000
Nuclear geometric perturbations         ... YES (  18 perturbations)
Nucleus-orbit perturbations             ...  NO (   0 perturbations)
Spin-dipole/Fermi contact perturbations ...  NO (   0 perturbations)

Total number of real perturbations      ...     18
Total number of imaginary perturbations ...      0
Total number of triplet perturbations   ...      0
Total number of SOC perturbations       ...      0

Using XC Grid                  ... (ts_optfreq.grid_cpscf.tmp) 
Recalculating density on grid  ... (ts_optfreq.grho_cpscf0.tmp) done
Calculating the xc-kernel      ... (ts_optfreq.fxc_cpscf0.tmp) done

                                **********************
                                * REAL PERTURBATIONS *
                                **********************



-------------------
SHARK CP-SCF DRIVER
-------------------

Dimension of the orbital basis          ...     97
Dimension of the CPSCF-problem          ...   1846
Number of operators                     ...      1
Max. number of iterations               ...    128
Convergence Tolerance                   ... 1.0e-04
Number of perturbations                 ...     18
Perturbation type                       ... REAL

----------------------------
POPLE LINEAR EQUATION SOLVER
----------------------------

  ITERATION   0:   ||err||_max =   6.7472e-01 (   0.8 sec   0/ 18 done)
  ITERATION   1:   ||err||_max =   2.9416e-02 (   0.9 sec   0/ 18 done)
  ITERATION   2:   ||err||_max =   5.4505e-03 (   1.0 sec   0/ 18 done)
  ITERATION   3:   ||err||_max =   2.3341e-03 (   0.5 sec   3/ 18 done)
  ITERATION   4:   ||err||_max =   8.9672e-04 (   0.6 sec   5/ 18 done)
  ITERATION   5:   ||err||_max =   1.7143e-04 (   0.3 sec  17/ 18 done)
  ITERATION   6:   ||err||_max =   1.7286e-05 (   0.2 sec  18/ 18 done)

CP-SCF equations solved in   4.4 sec
Response densities calculated in   0.0 sec

Maximum memory used throughout the entire SCFRESP-calculation: 9.8 MB


           ************************************************************
           *        Program running with 8 parallel MPI-processes     *
           *              working on a common directory               *
           ************************************************************

------------------------------------------------------------------------------
                              ORCA PROPERTY CALCULATIONS
------------------------------------------------------------------------------

GBWName                                 ... ts_optfreq.gbw
Number of atoms                         ...      6
Number of basis functions               ...     97
Max core memory                         ...   4096 MB

Electric properties:
Dipole moment                           ...  NO
Quadrupole moment                       ...  NO
Static polarizability (Dipole/Dipole)   ...  NO
Static polarizability (Dipole/Quad.)    ...  NO
Static polarizability (Quad./Quad.)     ...  NO
Static polarizability (Velocity)        ...  NO
Static hyperpolarizability              ...  NO

Atomic electric properties:
Dipole moment                           ...  NO
Quadrupole moment                       ...  NO
Static polarizability                   ...  NO

Choice of electric origin               ... Center of mass
Position of electric origin             ...     0.000000    -0.000001     2.541404

General magnetic properties:
Magnetizability                         ...  NO

EPR properties:
g-Tensor (aka g-matrix)                 ...  NO
Zero-Field splitting spin-orbit         ...  NO
Zero-field splitting spin-spin          ...  NO
Hyperfine couplings                     ...  NO (   0 nuclei)
Quadrupole couplings                    ...  NO (   0 nuclei)
Contact density                         ...  NO (   0 nuclei)

NMR properties:
Chemical shifts                         ...  NO (   0 nuclei)
Spin-rotation constants                 ...  NO (   0 nuclei)
Spin-spin couplings                     ...  NO (   0 nuclei,    0 pairs)

Choice of magnetic origin               ... GIAO
Position of magnetic origin             ...     0.000000     0.000000     0.000000

Properties with geometric perturbations:
SCF Hessian                             ... YES
IR spectrum                             ... YES
VCD spectrum                            ...  NO
X-ray spectroscopy properties:
SCF XES/XAS/RIXS spectra                ...  NO

SCF SOC stabilization energy            ...  NO
Diagonal Born-Oppenheimer correction    ...  NO

-----------
SCF HESSIAN
-----------

Occupied/Occupied contributions to the Hessian:
   => Occupied/Occupied contributions              ... done (  0.0 sec)
Perturbed density contributions to the Hessian:
   => Perturbed density contributions              ... done (  0.0 sec)
Explicit contributions to the Hessian:
   => Nuclear repulsion Hessian                    ... done (  0.0 sec)
   => HCore and overlap Hessian                    ... done (  0.4 sec)
   => ECP Hessian                                  ... done (  1.1 sec)
   => RI-J Hessian                                 ... done (  1.4 sec)
   => XC-Hessian                                   ... done (  3.1 sec)
   => Van der Waals-Hessian                        ... done (  0.5 sec)
   => GCP-Hessian                                  ... done (  0.1 sec)
   => Explicit contributions done
Dipole derivatives                                 ... done (  0.0 sec)
Mass weighting the Hessian           ... done
Calculating normal modes             ... done
Scaling frequencies                  ... done

-----------------------
VIBRATIONAL FREQUENCIES
-----------------------

Scaling factor for frequencies =  1.000000000  (already applied!)

     0:       0.00 cm**-1
     1:       0.00 cm**-1
     2:       0.00 cm**-1
     3:       0.00 cm**-1
     4:       0.00 cm**-1
     5:       0.00 cm**-1
     6:    -331.52 cm**-1  ***imaginary mode***
     7:     154.15 cm**-1
     8:     154.21 cm**-1
     9:     192.70 cm**-1
    10:     956.72 cm**-1
    11:     956.98 cm**-1
    12:    1004.62 cm**-1
    13:    1375.92 cm**-1
    14:    1375.97 cm**-1
    15:    3246.92 cm**-1
    16:    3456.50 cm**-1
    17:    3457.21 cm**-1


------------
NORMAL MODES
------------

These modes are the Cartesian displacements weighted by the diagonal matrix
M(i,i)=1/sqrt(m[i]) where m[i] is the mass of the displaced atom
Thus, these vectors are normalized but *not* orthogonal

                  0          1          2          3          4          5    
      0       0.000000   0.000000   0.000000   0.000000   0.000000   0.000000
      1       0.000000   0.000000   0.000000   0.000000   0.000000   0.000000
      2       0.000000   0.000000   0.000000   0.000000   0.000000   0.000000
      3       0.000000   0.000000   0.000000   0.000000   0.000000   0.000000
      4       0.000000   0.000000   0.000000   0.000000   0.000000   0.000000
      5       0.000000   0.000000   0.000000   0.000000   0.000000   0.000000
      6       0.000000   0.000000   0.000000   0.000000   0.000000   0.000000
      7       0.000000   0.000000   0.000000   0.000000   0.000000   0.000000
      8       0.000000   0.000000   0.000000   0.000000   0.000000   0.000000
      9       0.000000   0.000000   0.000000   0.000000   0.000000   0.000000
     10       0.000000   0.000000   0.000000   0.000000   0.000000   0.000000
     11       0.000000   0.000000   0.000000   0.000000   0.000000   0.000000
     12       0.000000   0.000000   0.000000   0.000000   0.000000   0.000000
     13       0.000000   0.000000   0.000000   0.000000   0.000000   0.000000
     14       0.000000   0.000000   0.000000   0.000000   0.000000   0.000000
     15       0.000000   0.000000   0.000000   0.000000   0.000000   0.000000
     16       0.000000   0.000000   0.000000   0.000000   0.000000   0.000000
     17       0.000000   0.000000   0.000000   0.000000   0.000000   0.000000
                  6          7          8          9         10         11    
      0       0.000000  -0.488065   0.000006   0.000000   0.000000  -0.002354
      1       0.000055  -0.000006  -0.488066   0.000752   0.002397   0.000000
      2      -0.972164  -0.000000   0.000005   0.232837  -0.000092  -0.000000
      3       0.000000  -0.498854   0.000006   0.000000   0.000001  -0.032538
      4       0.027525  -0.000006  -0.495186  -0.000949   0.025921   0.000001
      5       0.093067   0.000001   0.072148   0.342086   0.810563   0.000023
      6       0.023950  -0.496095  -0.001584  -0.001409   0.002512  -0.027689
      7      -0.013613  -0.001600  -0.497934   0.001603   0.030693  -0.002798
      8       0.094825   0.062469  -0.035977   0.342464  -0.412485  -0.706161
      9      -0.023950  -0.496095   0.001596   0.001409  -0.002511  -0.027689
     10      -0.013613   0.001588  -0.497934   0.001603   0.030693   0.002800
     11       0.094825  -0.062469  -0.035976   0.342464  -0.412525   0.706138
     12      -0.000000   0.027224  -0.000000  -0.000000   0.000000  -0.001724
     13      -0.000007   0.000000   0.027224  -0.000042   0.001724   0.000000
     14       0.046670  -0.000000  -0.000053  -0.235274   0.000049   0.000000
     15      -0.000000   0.110297  -0.000001  -0.000000  -0.000000   0.009468
     16      -0.000003   0.000001   0.110298  -0.000168  -0.009467  -0.000000
     17       0.154268   0.000000   0.000181   0.734055   0.000265   0.000000
                 12         13         14         15         16         17    
      0       0.000000   0.093899  -0.000008  -0.000000   0.000002  -0.102070
      1      -0.000014  -0.000008  -0.093898   0.000103  -0.102070  -0.000002
      2      -0.002156   0.000000   0.000020   0.003816   0.000001  -0.000000
      3       0.000000  -0.808425   0.000071  -0.000000   0.000000  -0.014102
      4       0.013930  -0.000007  -0.080483   0.576395   0.812413   0.000016
      5       0.583927  -0.000002  -0.027223  -0.013581  -0.022953  -0.000000
      6       0.012075  -0.141678   0.384951   0.500192  -0.357092   0.605305
      7      -0.006416  -0.384876   0.586232  -0.288800   0.192056  -0.357615
      8       0.573406   0.023756   0.013284  -0.013676   0.011474  -0.019917
      9      -0.012075  -0.141746  -0.384926  -0.500192   0.357067   0.605320
     10      -0.006416   0.384979   0.586164  -0.288800   0.192041   0.357623
     11       0.573405  -0.023754   0.013288  -0.013676   0.011474   0.019918
     12       0.000000  -0.000093   0.000000   0.000000  -0.000000   0.000084
     13       0.000015   0.000000   0.000094   0.000000   0.000084   0.000000
     14      -0.005451   0.000000   0.000001  -0.000079  -0.000000  -0.000000
     15      -0.000000  -0.000435   0.000000   0.000000  -0.000000   0.000260
     16      -0.000080   0.000000   0.000430  -0.000001   0.000260   0.000000
     17      -0.028968   0.000000   0.000007   0.000154   0.000002   0.000000


-----------
IR SPECTRUM
-----------

 Mode   freq       eps      Int      T**2         TX        TY        TZ
       cm**-1   L/(mol*cm) km/mol    a.u.
----------------------------------------------------------------------------
  7:    154.15   0.001257    6.35  0.002545  (-0.050449 -0.000001 -0.000000)
  8:    154.21   0.001257    6.35  0.002543  ( 0.000001 -0.050427 -0.000084)
  9:    192.70   0.002709   13.69  0.004387  ( 0.000000  0.000036 -0.066235)
 10:    956.72   0.000057    0.29  0.000018  ( 0.000000  0.004257  0.000570)
 11:    956.98   0.000056    0.28  0.000018  (-0.004273  0.000000  0.000000)
 12:   1004.62   0.013981   70.66  0.004343  ( 0.000000  0.000055 -0.065901)
 13:   1375.92   0.000863    4.36  0.000196  (-0.013991  0.000001  0.000000)
 14:   1375.97   0.000876    4.43  0.000199  ( 0.000001  0.014097  0.000024)
 15:   3246.92   0.001054    5.33  0.000101  ( 0.000000 -0.000010 -0.010067)
 16:   3456.50   0.001473    7.45  0.000133  (-0.000000  0.011533  0.000077)
 17:   3457.21   0.001474    7.45  0.000133  ( 0.011535  0.000000  0.000000)

* The epsilon (eps) is given for a Dirac delta lineshape.
** The dipole moment derivative (T) already includes vibrational overlap.

The first frequency considered to be a vibration is 7
The total number of vibrations considered is 11


--------------------------
THERMOCHEMISTRY AT 298.15K
--------------------------

Temperature         ...   298.15 K
Pressure            ...     1.00 atm
Total Mass          ...   177.39 AMU
Quasi RRHO          ...     True
Cut-Off Frequency   ...     1.00 cm^-1

Throughout the following assumptions are being made:
  (1) The electronic state is orbitally nondegenerate
  (2) There are no thermally accessible electronically excited states
  (3) Hindered rotations indicated by low frequency modes are not
      treated as such but are treated as vibrations and this may
      cause some error
  (4) All equations used are the standard statistical mechanics
      equations for an ideal gas
  (5) All vibrations are strictly harmonic

freq.     154.15  E(vib)   ...       0.40 
freq.     154.21  E(vib)   ...       0.40 
freq.     192.70  E(vib)   ...       0.36 
freq.     956.72  E(vib)   ...       0.03 
freq.     956.98  E(vib)   ...       0.03 
freq.    1004.62  E(vib)   ...       0.02 
freq.    1375.92  E(vib)   ...       0.01 
freq.    1375.97  E(vib)   ...       0.01 
freq.    3246.92  E(vib)   ...       0.00 
freq.    3456.50  E(vib)   ...       0.00 
freq.    3457.21  E(vib)   ...       0.00 

------------
INNER ENERGY
------------

The inner energy is: U= E(el) + E(ZPE) + E(vib) + E(rot) + E(trans)
    E(el)   - is the total energy from the electronic structure calculation
              = E(kin-el) + E(nuc-el) + E(el-el) + E(nuc-nuc)
    E(ZPE)  - the the zero temperature vibrational energy from the frequency calculation
    E(vib)  - the the finite temperature correction to E(ZPE) due to population
              of excited vibrational states
    E(rot)  - is the rotational thermal energy
    E(trans)- is the translational thermal energy

Summary of contributions to the inner energy U:
Electronic energy                ...   -797.89048720 Eh
Zero point energy                ...      0.03720679 Eh      23.35 kcal/mol
Thermal vibrational correction   ...      0.00198414 Eh       1.25 kcal/mol
Thermal rotational correction    ...      0.00141627 Eh       0.89 kcal/mol
Thermal translational correction ...      0.00141627 Eh       0.89 kcal/mol
-----------------------------------------------------------------------
Total thermal energy                   -797.84846373 Eh


Summary of corrections to the electronic energy:
(perhaps to be used in another calculation)
Total thermal correction                  0.00481668 Eh       3.02 kcal/mol
Non-thermal (ZPE) correction              0.03720679 Eh      23.35 kcal/mol
-----------------------------------------------------------------------
Total correction                          0.04202347 Eh      26.37 kcal/mol


--------
ENTHALPY
--------

The enthalpy is H = U + kB*T
                kB is Boltzmann's constant
Total thermal energy              ...   -797.84846373 Eh 
Thermal Enthalpy correction       ...      0.00094421 Eh       0.59 kcal/mol
-----------------------------------------------------------------------
Total Enthalpy                    ...   -797.84751952 Eh


Note: Rotational entropy computed according to Herzberg 
Infrared and Raman Spectra, Chapter V,1, Van Nostrand Reinhold, 1945 
Point Group:  C3v, Symmetry Number:   3  
Rotational constants in cm-1:     4.906704     0.024907     0.024907 

Vibrational entropy computed according to the QRRHO of S. Grimme
Chem.Eur.J. 2012 18 9955 using a reference frequency of 100.0 cm-1


-------
ENTROPY
-------

The entropy contributions are T*S = T*(S(el)+S(vib)+S(rot)+S(trans))
     S(el)   - electronic entropy
     S(vib)  - vibrational entropy
     S(rot)  - rotational entropy
     S(trans)- translational entropy
The entropies will be listed as multiplied by the temperature to get
units of energy

Electronic entropy                ...      0.00000000 Eh      0.00 kcal/mol
Vibrational entropy               ...      0.00367635 Eh      2.31 kcal/mol
Rotational entropy                ...      0.01120909 Eh      7.03 kcal/mol
Translational entropy             ...      0.01968301 Eh     12.35 kcal/mol
-----------------------------------------------------------------------
Final entropy term                ...      0.03456845 Eh     21.69 kcal/mol

In case the symmetry of your molecule has not been determined correctly
or in case you have a reason to use a different symmetry number we print 
out the resulting rotational entropy values for sn=1,12:

 non-linear molecules -----------------------------------
|  sn= 1 | S(rot)=       0.01224638 Eh      7.68 kcal/mol|
|  sn= 2 | S(rot)=       0.01159193 Eh      7.27 kcal/mol|
|  sn= 3 | S(rot)=       0.01120909 Eh      7.03 kcal/mol|
|  sn= 4 | S(rot)=       0.01093747 Eh      6.86 kcal/mol|
|  sn= 5 | S(rot)=       0.01072678 Eh      6.73 kcal/mol|
|  sn= 6 | S(rot)=       0.01055464 Eh      6.62 kcal/mol|
|  sn= 7 | S(rot)=       0.01040909 Eh      6.53 kcal/mol|
|  sn= 8 | S(rot)=       0.01028301 Eh      6.45 kcal/mol|
|  sn= 9 | S(rot)=       0.01017181 Eh      6.38 kcal/mol|
|  sn=10 | S(rot)=       0.01007233 Eh      6.32 kcal/mol|
|  sn=11 | S(rot)=       0.00998234 Eh      6.26 kcal/mol|
|  sn=12 | S(rot)=       0.00990018 Eh      6.21 kcal/mol|
 linear molecules ---------------------------------------
|  Dinfh | S(rot)=       0.00881229 Eh      5.53 kcal/mol|
|  Cinfv | S(rot)=       0.00946674 Eh      5.94 kcal/mol|
 --------------------------------------------------------


-------------------
GIBBS FREE ENERGY
-------------------

The Gibbs free energy is G = H - T*S

Total enthalpy                    ...   -797.84751952 Eh 
Total entropy correction          ...     -0.03456845 Eh    -21.69 kcal/mol
-----------------------------------------------------------------------
Final Gibbs free energy         ...   -797.88208797 Eh

For completeness - the Gibbs free energy minus the electronic energy
G-E(el)                           ...      0.00839923 Eh      5.27 kcal/mol


Maximum memory used throughout the entire PROP-calculation: 27.9 MB
Actual Hessian File stored as ts_optfreq.001.hess
------------------------------------------------------------------------------
                         ORCA GEOMETRY RELAXATION STEP
------------------------------------------------------------------------------

Reading the OPT-File                    .... done
Getting information on internals        .... done
Copying old internal coords+grads       .... done
Making the new internal coordinates     .... (2022 redundants) done
Validating the new internal coordinates .... (2022 redundants) done
Calculating the B-matrix                .... done
Calculating the G,G- and P matrices     .... done
Transforming gradient to internals      .... done
Projecting the internal gradient        .... done
Number of atoms                         ....   6
Number of internal coordinates          ....  17
Current Energy                          ....  -797.890487200 Eh
Current gradient norm                   ....     0.028500120 Eh/bohr
Maximum allowed component of the step   ....  0.300
Current trust radius                    ....  0.300
Evaluating the initial hessian          ....  (read) 
(Reading Exact Hessian)...  
InHessName: ts_optfreq.hess	The file <ts_optfreq.hess> is opened as a .hess file
done
done
Projecting the Hessian                  .... done
Diagonalizing the Hessian               .... done
Dimension of the hessian                ....  17
Lowest eigenvalues of the Hessian:
 -0.013709929  0.015160980  0.015164160  0.017737547  0.086138378
Hessian has   1 negative eigenvalues
Taking P-RFO step
Searching for lambda that maximizes along the lowest mode
TS mode is mode number   0 with eigenvalue  -0.01370993 and components:
   1.   -0.00429919
   2.   -0.00426960
   3.   -0.00426960
   4.    0.04981319
   5.    0.53995331
   6.    0.04981318
   7.    0.05023377
   8.   -0.58486127
   9.    0.02858178
  10.    0.02868505
  11.    0.24353012
  12.    0.24381148
  13.    0.24381148
  14.   -0.24356075
  15.   -0.24379616
  16.   -0.24379616
  17.    0.02858179

Lambda that maximizes along the TS mode:       0.00178544
Searching for lambda that minimizes along all other modes
In cycle   1: lambdaN =  -0.00598658   step =   0.00598658
In cycle   2: lambdaN =  -0.00608039   step =   0.00009380
In cycle   3: lambdaN =  -0.00608040   step =   0.00000001
[...]
Magnitude (a.u.)       :      3.036898302
Magnitude (Debye)      :      7.719182030



--------------------
Rotational spectrum 
--------------------
 
Rotational constants in cm-1:             4.861447             0.022578             0.022578 
Rotational constants in MHz :        145742.517196           676.865955           676.865763 

Dipole components along the rotational axes: 
x,y,z [a.u.] :     3.036898    -0.000069     0.000000 
x,y,z [Debye]:     7.719182    -0.000175     0.000000 

 

Dipole moment calculation done in   0.0 sec 

-----------
SCF HESSIAN
-----------

Occupied/Occupied contributions to the Hessian:
   => Occupied/Occupied contributions              ... done (  0.0 sec)
Perturbed density contributions to the Hessian:
   => Perturbed density contributions              ... done (  0.0 sec)
Explicit contributions to the Hessian:
   => Nuclear repulsion Hessian                    ... done (  0.0 sec)
   => HCore and overlap Hessian                    ... done (  0.5 sec)
   => ECP Hessian                                  ... done (  2.2 sec)
   => RI-J Hessian                                 ... done (  2.9 sec)
   => XC-Hessian                                   ... done (  3.6 sec)
   => Van der Waals-Hessian                        ... done (  0.7 sec)
   => GCP-Hessian                                  ... done (  0.1 sec)
   => Explicit contributions done
Dipole derivatives                                 ... done (  0.1 sec)
Mass weighting the Hessian           ... done
Calculating normal modes             ... done
Scaling frequencies                  ... done

-----------------------
VIBRATIONAL FREQUENCIES
-----------------------

Scaling factor for frequencies =  1.000000000  (already applied!)

     0:       0.00 cm**-1
     1:       0.00 cm**-1
     2:       0.00 cm**-1
     3:       0.00 cm**-1
     4:       0.00 cm**-1
     5:       0.00 cm**-1
     6:    -229.05 cm**-1  ***imaginary mode***
     7:     154.02 cm**-1
     8:     156.82 cm**-1
     9:     156.85 cm**-1
    10:     853.21 cm**-1
    11:     853.41 cm**-1
    12:     974.18 cm**-1
    13:    1403.61 cm**-1
    14:    1403.84 cm**-1
    15:    3170.91 cm**-1
    16:    3369.87 cm**-1
    17:    3370.55 cm**-1


------------
NORMAL MODES
------------

These modes are the Cartesian displacements weighted by the diagonal matrix
M(i,i)=1/sqrt(m[i]) where m[i] is the mass of the displaced atom
Thus, these vectors are normalized but *not* orthogonal

                  0          1          2          3          4          5    
      0       0.000000   0.000000   0.000000   0.000000   0.000000   0.000000
      1       0.000000   0.000000   0.000000   0.000000   0.000000   0.000000
      2       0.000000   0.000000   0.000000   0.000000   0.000000   0.000000
      3       0.000000   0.000000   0.000000   0.000000   0.000000   0.000000
      4       0.000000   0.000000   0.000000   0.000000   0.000000   0.000000
      5       0.000000   0.000000   0.000000   0.000000   0.000000   0.000000
      6       0.000000   0.000000   0.000000   0.000000   0.000000   0.000000
      7       0.000000   0.000000   0.000000   0.000000   0.000000   0.000000
      8       0.000000   0.000000   0.000000   0.000000   0.000000   0.000000
      9       0.000000   0.000000   0.000000   0.000000   0.000000   0.000000
     10       0.000000   0.000000   0.000000   0.000000   0.000000   0.000000
     11       0.000000   0.000000   0.000000   0.000000   0.000000   0.000000
     12       0.000000   0.000000   0.000000   0.000000   0.000000   0.000000
     13       0.000000   0.000000   0.000000   0.000000   0.000000   0.000000
     14       0.000000   0.000000   0.000000   0.000000   0.000000   0.000000
     15       0.000000   0.000000   0.000000   0.000000   0.000000   0.000000
     16       0.000000   0.000000   0.000000   0.000000   0.000000   0.000000
     17       0.000000   0.000000   0.000000   0.000000   0.000000   0.000000
                  6          7          8          9         10         11    
      0      -0.000000  -0.000000  -0.000006   0.487651   0.000000  -0.029673
      1      -0.000489  -0.011972  -0.487624  -0.000006   0.029585   0.000000
      2       0.940111   0.296501  -0.001198  -0.000000  -0.000005   0.000000
      3       0.000000  -0.000000  -0.000006   0.497099  -0.000000   0.079758
      4      -0.063364  -0.022316  -0.500227  -0.000006  -0.047885  -0.000000
      5       0.156378   0.237476  -0.056816  -0.000001  -0.810287  -0.000004
      6      -0.054587  -0.008584   0.001532   0.499264  -0.013269   0.056015
      7       0.030954  -0.007286  -0.497696  -0.001797  -0.071251   0.013719
      8       0.155930   0.240026   0.027017   0.048266   0.406032   0.702168
      9       0.054587   0.008584  -0.001544   0.499264   0.013268   0.056015
     10       0.030954  -0.007286  -0.497696   0.001785  -0.071251  -0.013719
     11       0.155930   0.240026   0.027018  -0.048266   0.406038  -0.702164
     12       0.000000   0.000000   0.000000  -0.028636  -0.000000   0.002710
     13       0.000027   0.000702   0.028634   0.000000  -0.002711  -0.000000
     14      -0.044963  -0.262551   0.000803   0.000000  -0.000004   0.000000
     15       0.000000   0.000000   0.000001  -0.105235   0.000000  -0.005099
     16       0.000110   0.002594   0.105232   0.000001   0.005095   0.000000
     17      -0.170871   0.818921  -0.002388  -0.000000  -0.000033   0.000000
                 12         13         14         15         16         17    
      0       0.000000  -0.090461   0.000000   0.000000   0.000000  -0.101222
      1       0.000094   0.000000   0.090483  -0.000120  -0.101243  -0.000000
      2       0.034986  -0.000000  -0.000029  -0.011765   0.000005  -0.000000
      3      -0.000000   0.802531  -0.000002  -0.000000   0.000000  -0.015139
      4      -0.049703   0.000000   0.084292  -0.574591   0.809284   0.000000
      5      -0.575573   0.000000   0.099540   0.046735  -0.075753  -0.000000
      6      -0.043323   0.137401  -0.384193  -0.498598  -0.356068   0.602656
      7       0.024629   0.384021  -0.580826   0.288006   0.190569  -0.356720
      8      -0.574346  -0.086767  -0.049377   0.047048   0.037874  -0.065723
      9       0.043323   0.137403   0.384192   0.498598   0.356067   0.602656
     10       0.024629  -0.384023  -0.580824   0.288006   0.190569   0.356720
     11      -0.574346   0.086767  -0.049378   0.047048   0.037874   0.065723
     12      -0.000000  -0.000071   0.000000   0.000000  -0.000000   0.000070
     13      -0.000004   0.000000   0.000068  -0.000000   0.000070   0.000000
     14       0.005753   0.000000  -0.000002   0.000065  -0.000001  -0.000000
     15       0.000000   0.000271  -0.000000   0.000000  -0.000000   0.000204
     16      -0.000003  -0.000000  -0.000266   0.000001   0.000203   0.000000
     17       0.016578   0.000000  -0.000005  -0.000250   0.000001   0.000000


-----------
IR SPECTRUM
-----------

 Mode   freq       eps      Int      T**2         TX        TY        TZ
       cm**-1   L/(mol*cm) km/mol    a.u.
----------------------------------------------------------------------------
  7:    154.02   0.000532    2.69  0.001078  (-0.000000 -0.000422 -0.032837)
  8:    156.82   0.001235    6.24  0.002459  (-0.000001 -0.049584  0.000048)
  9:    156.85   0.001236    6.24  0.002459  ( 0.049583 -0.000001 -0.000000)
 10:    853.21   0.000062    0.31  0.000023  (-0.000000 -0.004754 -0.000151)
 11:    853.41   0.000062    0.31  0.000023  ( 0.004753 -0.000000  0.000000)
 12:    974.18   0.023554  119.03  0.007545  ( 0.000000 -0.000043  0.086864)
 13:   1403.61   0.000973    4.92  0.000216  ( 0.014709 -0.000000  0.000000)
 14:   1403.84   0.000986    4.98  0.000219  (-0.000000 -0.014802 -0.000034)
 15:   3170.91   0.000388    1.96  0.000038  ( 0.000000 -0.000005  0.006183)
 16:   3369.87   0.001293    6.54  0.000120  (-0.000000  0.010944  0.000092)
 17:   3370.55   0.001307    6.61  0.000121  ( 0.011002  0.000000  0.000000)

* The epsilon (eps) is given for a Dirac delta lineshape.
** The dipole moment derivative (T) already includes vibrational overlap.

The first frequency considered to be a vibration is 7
The total number of vibrations considered is 11


--------------------------
THERMOCHEMISTRY AT 298.15K
--------------------------

Temperature         ...   298.15 K
Pressure            ...     1.00 atm
Total Mass          ...   177.39 AMU
Quasi RRHO          ...     True
Cut-Off Frequency   ...     1.00 cm^-1

Throughout the following assumptions are being made:
  (1) The electronic state is orbitally nondegenerate
  (2) There are no thermally accessible electronically excited states
  (3) Hindered rotations indicated by low frequency modes are not
      treated as such but are treated as vibrations and this may
      cause some error
  (4) All equations used are the standard statistical mechanics
      equations for an ideal gas
  (5) All vibrations are strictly harmonic

freq.     154.02  E(vib)   ...       0.40 
freq.     156.82  E(vib)   ...       0.40 
freq.     156.85  E(vib)   ...       0.40 
freq.     853.21  E(vib)   ...       0.04 
freq.     853.41  E(vib)   ...       0.04 
freq.     974.18  E(vib)   ...       0.03 
freq.    1403.61  E(vib)   ...       0.00 
freq.    1403.84  E(vib)   ...       0.00 
freq.    3170.91  E(vib)   ...       0.00 
freq.    3369.87  E(vib)   ...       0.00 
freq.    3370.55  E(vib)   ...       0.00 

------------
INNER ENERGY
------------

The inner energy is: U= E(el) + E(ZPE) + E(vib) + E(rot) + E(trans)
    E(el)   - is the total energy from the electronic structure calculation
              = E(kin-el) + E(nuc-el) + E(el-el) + E(nuc-nuc)
    E(ZPE)  - the the zero temperature vibrational energy from the frequency calculation
    E(vib)  - the the finite temperature correction to E(ZPE) due to population
              of excited vibrational states
    E(rot)  - is the rotational thermal energy
    E(trans)- is the translational thermal energy

Summary of contributions to the inner energy U:
Electronic energy                ...   -797.89343359 Eh
Zero point energy                ...      0.03614825 Eh      22.68 kcal/mol
Thermal vibrational correction   ...      0.00208357 Eh       1.31 kcal/mol
Thermal rotational correction    ...      0.00141627 Eh       0.89 kcal/mol
Thermal translational correction ...      0.00141627 Eh       0.89 kcal/mol
-----------------------------------------------------------------------
Total thermal energy                   -797.85236922 Eh


Summary of corrections to the electronic energy:
(perhaps to be used in another calculation)
Total thermal correction                  0.00491611 Eh       3.08 kcal/mol
Non-thermal (ZPE) correction              0.03614825 Eh      22.68 kcal/mol
-----------------------------------------------------------------------
Total correction                          0.04106437 Eh      25.77 kcal/mol


--------
ENTHALPY
--------

The enthalpy is H = U + kB*T
                kB is Boltzmann's constant
Total thermal energy              ...   -797.85236922 Eh 
Thermal Enthalpy correction       ...      0.00094421 Eh       0.59 kcal/mol
-----------------------------------------------------------------------
Total Enthalpy                    ...   -797.85142501 Eh


Note: Rotational entropy computed according to Herzberg 
Infrared and Raman Spectra, Chapter V,1, Van Nostrand Reinhold, 1945 
Point Group:  Cs, Symmetry Number:   1  
Rotational constants in cm-1:     4.861451     0.022578     0.022578 

Vibrational entropy computed according to the QRRHO of S. Grimme
Chem.Eur.J. 2012 18 9955 using a reference frequency of 100.0 cm-1


-------
ENTROPY
-------

The entropy contributions are T*S = T*(S(el)+S(vib)+S(rot)+S(trans))
     S(el)   - electronic entropy
     S(vib)  - vibrational entropy
     S(rot)  - rotational entropy
     S(trans)- translational entropy
The entropies will be listed as multiplied by the temperature to get
units of energy

Electronic entropy                ...      0.00000000 Eh      0.00 kcal/mol
Vibrational entropy               ...      0.00389244 Eh      2.44 kcal/mol
Rotational entropy                ...      0.01234346 Eh      7.75 kcal/mol
Translational entropy             ...      0.01968301 Eh     12.35 kcal/mol
-----------------------------------------------------------------------
Final entropy term                ...      0.03591891 Eh     22.54 kcal/mol

In case the symmetry of your molecule has not been determined correctly
or in case you have a reason to use a different symmetry number we print 
out the resulting rotational entropy values for sn=1,12:

 non-linear molecules -----------------------------------
|  sn= 1 | S(rot)=       0.01234346 Eh      7.75 kcal/mol|
|  sn= 2 | S(rot)=       0.01168901 Eh      7.33 kcal/mol|
|  sn= 3 | S(rot)=       0.01130618 Eh      7.09 kcal/mol|
|  sn= 4 | S(rot)=       0.01103455 Eh      6.92 kcal/mol|
|  sn= 5 | S(rot)=       0.01082386 Eh      6.79 kcal/mol|
|  sn= 6 | S(rot)=       0.01065172 Eh      6.68 kcal/mol|
|  sn= 7 | S(rot)=       0.01050617 Eh      6.59 kcal/mol|
|  sn= 8 | S(rot)=       0.01038010 Eh      6.51 kcal/mol|
|  sn= 9 | S(rot)=       0.01026889 Eh      6.44 kcal/mol|
|  sn=10 | S(rot)=       0.01016941 Eh      6.38 kcal/mol|
|  sn=11 | S(rot)=       0.01007942 Eh      6.32 kcal/mol|
|  sn=12 | S(rot)=       0.00999726 Eh      6.27 kcal/mol|
 linear molecules ---------------------------------------
|  Dinfh | S(rot)=       0.00890500 Eh      5.59 kcal/mol|
|  Cinfv | S(rot)=       0.00955945 Eh      6.00 kcal/mol|
 --------------------------------------------------------


-------------------
GIBBS FREE ENERGY
-------------------

The Gibbs free energy is G = H - T*S

Total enthalpy                    ...   -797.85142501 Eh 
Total entropy correction          ...     -0.03591891 Eh    -22.54 kcal/mol
-----------------------------------------------------------------------
Final Gibbs free energy         ...   -797.88734392 Eh

For completeness - the Gibbs free energy minus the electronic energy
G-E(el)                           ...      0.00608967 Eh      3.82 kcal/mol


Maximum memory used throughout the entire PROP-calculation: 27.9 MB

--------------------------------
SUGGESTED CITATIONS FOR THIS RUN
--------------------------------

Below you find a list of papers that are relevant to this ORCA run
We neither can nor want to force you to cite these papers, but we appreciate if you do
You receive ORCA, which is the product of decades of hard work by many enthusiastic individuals, for free
The only thing we kindly ask in return is that you cite our papers,
We deeply appreciate it, if you show your appreciation for ORCA by not just citing the generic ORCA reference.

Please note that relegating all ORCA citations to the supporting information does *not* help us.
SI sections are not indexed - citations you put there will not count into any citation statistics
But we need these citations in order to attract the funding resources that allow us to do what we are doing

Therefore, if you are a happy ORCA user, please consider citing a few of the papers listed below in the main body of your paper

In addition to the list printed below, the program has created the file ts_optfreq.bibtex that contains the list in bibtex format
You can import this file easily into all common literature databanks and citation aid programs


List of essential papers. We consider these as the minimum necessary citations

  1. Grimme, S.; Hansen, A.; Ehlert, S.; Mewes, J.
     r2SCAN-3c: A 'Swiss army knife' composite electronic-structure method
     J. Chem. Phys. 2021 154 , 064103
     doi.org/10.1063/5.0040021
  2. Neese, F.
     Software update: the ORCA program system, version 6.0
     WIRES Comput. Molec. Sci. 2025 15(1), e70019
     doi.org/10.1002/wcms.7019

List of papers to cite with high priority. The work reported in these papers was absolutely
necessary for this run to complete.
Our perspective: the developers of density functionals and basis sets usually get cited in chemistry papers
Good! But without the algorithms to do something with them, the functionals or basis sets would not do anything.
Hence, in our opinion, the algorithm design and method developments papers are equally worthy of getting cited

  1. Neese, F.
     An improvement of the resolution of the identity approximation for the formation of the Coulomb matrix
     J. Comp. Chem. 2003 24(14), 1740-1747
     doi.org/10.1002/jcc.10318
  2. Bykov, D.; Petrenko, T.; Izsak, R.; Kossmann, S.; Becker, U.; Valeev, E.; Neese, F.
     Efficient implementation of the analytic second derivatives of Hartree-Fock and hybrid DFT energies: a detailed analysis of different approximations
     Molec. Phys. 2015 113 , 1961-1977
     doi.org/10.1080/00268976.2015.1025114
  3. Caldeweyher, E.; Bannwarth, C.; Grimme, S.
     Extension of the D3 dispersion coefficient model
     J. Chem. Phys. 2017 147 , 034112
     doi.org/10.1063/1.4993215
  4. Lehtola, S.; Steigemann, C.; Oliveira, M.; Marques, M.
     Recent developments in Libxc - A comprehensive library of functionals for density functional theory
     Software X 2018 7 , 
     doi.org/10.1016/j.softx.2017.11.002
  5. Caldeweyher, E.; Ehlert, S.; Hansen, A.; Neugebauer, H.; Spicher, S.; Bannwarth, C.; Grimme, S.
     A generally applicable atomic-charge dependent London dispersion correction
     J. Chem. Phys. 2019 150 , 154122
     doi.org/10.1063/1.5090222
  6. Caldeweyher, E.; Mewes, J.; Ehlert, S.; Grimme, S.
     Extension and evaluation of the D4 London-dispersion model for periodic systems
     Phys. Chem. Chem. Phys. 2020 22(16), 8499-8512
     doi.org/10.1039/D0CP00502A
  7. Neese, F.
     The SHARK Integral Generation and Digestion System
     J. Comp. Chem. 2022 44(3), 381
     doi.org/10.1002/jcc.26942
  8. Wittmann, L.; Gordiy, I.; Friede, M.; Helmich-Paris, B.; Grimme, S.; Hansen, A.; Bursch, M.
     Extension of the D3 and D4 London Dispersion Corrections to the full Actinides Series
     Phys. Chem. Chem. Phys. 2024 26(32), 21379-21394
     doi.org/10.1039/D4CP01514B

List of suggested additional citations. These are papers that are important in the 'surrounding' of 
of this run, or papers that preceded the highly important papers. If you like your results we are grateful for a citation.

  1. Neese, F.
     The ORCA program system
     WIRES Comput. Molec. Sci. 2012 2(1), 73-78
     doi.org/10.1002/wcms.81
  2. Neese, F.
     Software update: the ORCA program system, version 4.0
     WIRES Comput. Molec. Sci. 2018 8(1), 1-6
     doi.org/10.1002/wcms.1327
  3. Neese, F.; Wennmohs, F.; Becker, U.; Riplinger, C.
     The ORCA quantum chemistry program package
     J. Chem. Phys. 2020 152(22), 224108
     doi.org/10.1063/5.0004608
  4. Neese, F.
     Software update: The ORCA program system—Version 5.0
     WIRES Comput. Molec. Sci. 2022 12(1), e1606
     doi.org/10.1002/wcms.1606

List of optional additional citations

  1. Neese, F.
     Approximate second-order SCF convergence for spin unrestricted wavefunctions
     Chem. Phys. Lett. 2000 325(1-3), 93-98
     doi.org/10.1016/s0009-2614(00)00662-x

Timings for individual modules:

Sum of individual times          ...      113.486 sec (=   1.891 min)
Startup calculation              ...       13.150 sec (=   0.219 min)  11.6 %
SCF iterations                   ...       46.231 sec (=   0.771 min)  40.7 %
Property integrals               ...       17.836 sec (=   0.297 min)  15.7 %
SCF Response                     ...        6.885 sec (=   0.115 min)   6.1 %
Property calculations            ...       11.200 sec (=   0.187 min)   9.9 %
SCF Gradient evaluation          ...       18.158 sec (=   0.303 min)  16.0 %
Geometry relaxation              ...        0.026 sec (=   0.000 min)   0.0 %
                             ****ORCA TERMINATED NORMALLY****
TOTAL RUN TIME: 0 days 0 hours 2 minutes 21 seconds 605 msec
