
                                 *****************
                                 * O   R   C   A *
                                 *****************

                                            #,                                       
                                            ###                                      
                                            ####                                     
                                            #####                                    
                                            ######                                   
                                           ########,                                 
                                     ,,################,,,,,                         
                               ,,#################################,,                 
                          ,,##########################################,,             
                       ,#########################################, ''#####,          
                    ,#############################################,,   '####,        
                  ,##################################################,,,,####,       
                ,###########''''           ''''###############################       
              ,#####''   ,,,,##########,,,,          '''####'''          '####       
            ,##' ,,,,###########################,,,                        '##       
           ' ,,###''''                  '''############,,,                           
         ,,##''                                '''############,,,,        ,,,,,,###''
      ,#''                                            '''#######################'''  
     '                                                          ''''####''''         
             ,#######,   #######,   ,#######,      ##                                
            ,#'     '#,  ##    ##  ,#'     '#,    #''#        ,####,    ,#,          
            ##       ##  ##   ,#'  ##            #'  '#       #'       ,# #          
            ##       ##  #######   ##           ,######,      #####,      #          
            '#,     ,#'  ##    ##  '#,     ,#' ,#      #,     #,   #      #          
             '#######'   ##     ##  '#######'  #'      '#     '####' #    #          



                #########################################################
                #                        -***-                          #
                #          Department of theory and spectroscopy        #
                #                                                       #
                #                      Frank Neese                      #
                #                                                       #
                #     Directorship, Architecture, Infrastructure        #
                #                    SHARK, DRIVERS                     #
                #        Core code/Algorithms in most modules           #
                #                                                       #
                #        Max Planck Institute fuer Kohlenforschung      #
                #                Kaiser Wilhelm Platz 1                 #
                #                 D-45470 Muelheim/Ruhr                 #
                #                      Germany                          #
                #                                                       #
                #                  All rights reserved                  #
                #                        -***-                          #
                #########################################################


                         Program Version 6.1.0  -  RELEASE   -
                                (GIT: $679e74b$)
                          ($2025-06-10 18:02:51 +0200$)


 With contributions from (in alphabetic order):
[Max-Planck-Institut fuer Kohlenforschung]                               
  Daniel Aravena         : Magnetic Suceptibility                        
  Michael Atanasov       : Ab Initio Ligand Field Theory (pilot matlab implementation)
  Alexander A. Auer      : GIAO ZORA, VPT2 properties, NMR spectrum      
  Ute Becker             : All parallelization in ORCA, NUMFREQ, NUMCALC 
  Giovanni Bistoni       : ED, misc. LED, open-shell LED, HFLD           
  Dmytro Bykov           : pre 5.0 version of the SCF Hessian            
  Marcos Casanova-Páez   : Triplet and SCS-CIS(D). UHF-(DLPNO)-IP/EA/STEOM-CCSD. UHF-CVS-IP/STEOM-CCSD   
  Vijay G. Chilkuri      : MRCI spin determinant printing, contributions to CSF-ICE 
  Pauline Colinet        : FMM embedding                                 
  Dipayan Datta          : RHF DLPNO-CCSD density                        
  Achintya Kumar Dutta   : EOM-CC, STEOM-CC                              
  Nicolas Foglia         : Exact transition moments, OPA infrastructure, MCD improvements    
  Dmitry Ganyushin       : Spin-Orbit,Spin-Spin,Magnetic field MRCI      
  Miquel Garcia-Rates    : C-PCM and meta-GGA Hessian, CCSD/C-PCM, Gaussian charge scheme 
  Tiago L. C. Gouveia    : GS-ROHF, GS-ROCIS                             
  Yang Guo               : DLPNO-NEVPT2, F12-NEVPT2, CIM, IAO-localization        
  Andreas Hansen         : Spin unrestricted coupled pair/coupled cluster methods 
  Ingolf Harden          : AUTO-CI MPn and infrastructure                
  Benjamin Helmich-Paris : MC-RPA, TRAH-(SCF,CASSCF), AVAS, COSX integrals, SCF dyn. polar., MC-PDFT, srDFT 
  Lee Huntington         : MR-EOM, pCC                                   
  Robert Izsak           : Overlap fitted RIJCOSX, COSX-SCS-MP3, EOM     
  Riya Kayal             : Wick's Theorem for AUTO-CI, AUTO-CI UHF-CCSDT 
  Emily Kempfer          : AUTO-CI RHF CISDT and CCSDT, approximate NEVPT4
  Christian Kollmar      : KDIIS, OOCD, Brueckner-CCSD(T), CCSD density, CASPT2, CASPT2-K, improved NEVPT2 
  Axel Koslowski         : Symmetry handling                             
  Simone Kossmann        : meta-GGA functionals, TD-DFT gradient, OOMP2, (MP2 Hessian; deprecated post 5.0) 
  Lucas Lang             : DCDCAS, Hyperfine gauge corrections, ICE-SOC+SSC
  Marvin Lechner         : AUTO-CI (C++ implementation), FIC-MRCC        
  Spencer Leger          : CASSCF response                               
  Dagmar Lenk            : GEPOL surface, SMD, ORCA-2-JSON               
  Dimitrios Liakos       : Extrapolation schemes; Compound Job, Property file
  Dimitrios Manganas     : Further ROCIS development; embedding schemes. LFT, Crystal Embedding 
  Dimitrios Pantazis     : SARC Basis sets                               
  Anastasios Papadopoulos: AUTO-CI, single reference methods and gradients 
  Taras Petrenko         : pre 6.0 DFT Hessian and TD-DFT gradient,  ECA, NRVS 
  Petra Pikulova         : Analytic Raman intensities                    
  Peter Pinski           : DLPNO-MP2, DLPNO-MP2 Gradient                 
  Shashank Vittal Rao    : ES-AILFT, MagRelax                            
  Christoph Reimann      : Effective Core Potentials                     
  Marius Retegan         : Local ZFS, SOC                                
  Christoph Riplinger    : Optimizer, TS searches, QM/MM, DLPNO-CCSD(T), (RO)-DLPNO pert. Triples 
  Michael Roemelt        : Original ROCIS implementation, recursive CI coupling coefficients
  Masaaki Saitow         : Open-shell DLPNO-CCSD energy and density      
  Barbara Sandhoefer     : DKH picture change effects                    
  Yorick L. A. Schmerwitz: GMF and freeze-and-release deltaSCF, NEB S-IDPP initial path                    
  Kantharuban Sivalingam : CASSCF convergence/infrastructure, NEVPT2, NEVPT3, NEVPT4(SD), FIC-MRCI and CEPA variants
  Bernardo de Souza      : ESD, SOC TD-DFT                               
  Georgi L. Stoychev     : AutoAux, RI-MP2 NMR, DLPNO-MP2 response, X2C  
  Van Anh Tran           : RI-MP2 g-tensors                              
  Willem Van den Heuvel  : Paramagnetic NMR                              
  Zikuan Wang            : NOTCH, Electric field optimization            
  Frank Wennmohs         : Technical directorship and infrastructure     
  Hang Xu                : AUTO-CI-Response properties                   
                                                                         
[FACCTs GmbH]                                                            
  Markus Bursch, Nicolas Foglia, Miquel Garcia-Rates, Ingolf Harden, Hagen Neugebauer, Anastasios Papadopoulos, 
  Christoph Riplinger, Bernardo de Souza, Georgi L. Stoychev                                                    
                                                                 
  APM, various basis sets, CI-OPT, improved COSX, DLPNO-Multilevel,           
  DOCKER, DRACO, updates on ESD, Fragmentator, GOAT, IRC, LR-CPCM, L-BFGS, MBIS, meta-GGA TD-DFT gradient, ML-optimized integration grids, 
  MM, NACMEs, nearIR, NEB, NEB-TS, NL-DFT gradient (VV10), 2- and 3-layer-ONIOM, interface openCOSMO-RS, QMMM,   
  Crystal-QMMM, RESP, rigid body optimization, SF, symmetry and pop. for TD-DFT, various functionals, SOLVATOR                                   
                                                                         
[Other institutions]                                                     
  V. Asgeirsson          : NEB                                           
  Christoph Bannwarth    : sTDA-DFT, sTD-DFT, PBEh-3c, B97-3c, D3        
  Giovanni Bistoni       : ETS/NOCV, ADLD/ADEX, COVALED                  
  Martin Brehm           : Molecular dynamics                            
  Ronald Cardenas        : ETS/NOCV                                      
  Martina Colucci        : COVALED                                       
  Sebastian Ehlert       : rSCAN, r2SCAN, r2SCAN-3c, D4, dhf basis sets  
  Marvin Friede          : D4 for Fr, Ra, Ac-Lr                          
  Lars Goerigk           : TD-DFT with DH, B97 family of functionals     
  Stefan Grimme          : VdW corrections, initial TS optimization, DFT functionals, gCP, sTDA/sTD-DF 
  Waldemar Hujo          : DFT-NL                                        
  H. Jonsson             : NEB                                           
  Holger Kruse           : gCP                                           
  Marcel Mueller         : wB97X-3c, vDZP basis set                      
  Hagen Neugebauer       : wr2SCAN, Native XTB                           
  Gianluca Regni         : ADLD/ADEX                                     
  Tobias Risthaus        : pre 6.0 range-separated hybrid DFT and stability analysis
  Lukas Wittmann         : regularized MP2, r2SCAN double-hybrids, wr2SCAN        
                                                                         
We gratefully acknowledge several colleagues who have allowed us to      
interface, adapt or use parts of their codes:                            
  Ed Valeev, F. Pavosevic, A. Kumar             : LibInt (2-el integral package), F12 methods 
  Garnet Chan, S. Sharma, J. Yang, R. Olivares  : DMRG                   
  Ulf Ekstrom                                   : XCFun DFT Library      
  Mihaly Kallay                                 : mrcc  (arbitrary order and MRCC methods)
  Frank Weinhold                                : gennbo (NPA and NBO analysis)           
  Simon Mueller                                 : openCOSMO-RS                            
  Christopher J. Cramer and Donald G. Truhlar   : smd solvation model                     
  S Lehtola, MJT Oliveira, MAL Marques          : LibXC Library                           
  Liviu Ungur et al                             : ANISO software                          


 Your calculation uses the libint2 library for the computation of 2-el integrals
 For citations please refer to: http://libint.valeyev.net

 Your ORCA version has been built with support for libXC version: 7.0.0
 For citations please refer to: https://libxc.gitlab.io

 This ORCA versions uses:
   CBLAS   interface :  Fast vector & matrix operations
   LAPACKE interface :  Fast linear algebra routines
   SCALAPACK package :  Parallel linear algebra routines
   Shared memory     :  Shared parallel matrices
   BLAS/LAPACK       :  OpenBLAS 0.3.29  USE64BITINT DYNAMIC_ARCH NO_AFFINITY SkylakeX SINGLE_THREADED
        Core in use  :  SkylakeX
   Copyright (c) 2011-2014, The OpenBLAS Project


  ***********************************
  * Starting time: Thu Mar 12 12:40:53 2026
  * Host name:     midway3-login4.rcc.local
  * Process ID:    2748328
  * Working dir.:  /home/rzhu16/orca_TS_search/sn2_i_f/TS_search
  ***********************************

Your calculation utilizes the semiempirical GFN2-xTB method
Please cite in your paper:
Bannwarth, C.; Ehlert S.; Grimme, S. J. Chem. Theory Comput. 2019, 15, 1652.
   

================================================================================

cite the ECPs for I  [Def2-ECP] as follows:
Ce-Yb(ecp-28): M. Dolg, H. Stoll, H.Preuss, J. Chem. Phys., 1989, 90, 1730-1734.
Y-Cd(ecp-28), Hf-Hg(ecp-46): D. Andrae,U. Haeussermann, M. Dolg, H. Stoll, H. Preuss, Theor. Chim. Acta, 1990, 77, 123-141.
In-Sb(ecp-28), Tl-Bi(ecp-46): B. Metz, H. Stoll, M. Dolg, J. Chem. Phys., 2000, 113, 2563-2569.
Te-Xe(ecp-28), Po-Rn(ecp-46): K. A. Peterson, D. Figgen, E. Goll, H. Stoll, M. Dolg, J. Chem. Phys., 2003, 119, 11113-11123.
Rb(ecp-28), Cs(ecp-46): T. Leininger, A. Nicklass, W. Kuechle, H. Stoll, M. Dolg, A. Bergner, Chem. Phys. Lett., 1996, 255, 274-280.
Sr(ecp-28), Ba(ecp-46): M. Kaupp, P. V. Schleyer, H. Stoll and H. Preuss, J. Chem. Phys., 1991, 94, 1360-1366.
La(ecp-46): M. Dolg, H. Stoll, A. Savin, H. Preuss, Theor. Chim. Acta, 1989, 75, 173-194.
Lu(ecp-28): X. Cao, M. Dolg, J. Chem. Phys., 2001, 115, 7348-7355.

ECP parameters for I  [Def2-ECP] have been obtained from:
TURBOMOLE (7.0.2)

================================================================================
                                        WARNINGS
                       Please study these warnings very carefully!
================================================================================


WARNING: Analytical Hessian for XTB is limited in the analysis of the data.
       : If you want to obtain extensive IR and deltaG analysis, please use ! XTB NumFreq. 


WARNING: Geometry Optimization
  ===> : Switching off AutoStart
         For restart on a previous wavefunction, please use MOREAD

WARNING: Found dipole moment calculation with XTB calculation
  ===> : Switching off dipole moment calculation


WARNING: Found frequency calculation in combination with XTB calculation
  ===> : Need to redirect dipole moment calculation to properties.out


================================================================================
                                       INPUT FILE
================================================================================
NAME = sn2_i_f.inp
|  1> ! XTB2 OptTS Freq PAL8
|  2> 
|  3> %geom
|  4>   Calc_Hess true
|  5>   Recalc_Hess 5
|  6>   MaxIter 100
|  7> end
|  8> 
|  9> * xyz -1 1
| 10> C    0.000000   0.000000  -0.351040
| 11> H    0.000000   1.085000   0.000000
| 12> H    0.939638  -0.542500   0.000000
| 13> H   -0.939638  -0.542500   0.000000
| 14> I    0.000000   0.000000   2.430960
| 15> F    0.000000   0.000000  -2.255440
| 16> *
| 17> 
| 18>                          ****END OF INPUT****
================================================================================

                       *****************************
                       * Geometry Optimization Run *
                       *****************************

Geometry optimization settings:
Update method            Update   .... Bofill
Choice of coordinates    CoordSys .... (2022) Redundant Internals
Initial Hessian          InHess   .... Almloef's Model
Max. no of cycles        MaxIter  .... 100

Convergence Tolerances:
Energy Change            TolE     ....  5.0000e-06 Eh
Max. Gradient            TolMAXG  ....  3.0000e-04 Eh/bohr
RMS Gradient             TolRMSG  ....  1.0000e-04 Eh/bohr
Max. Displacement        TolMAXD  ....  4.0000e-03 bohr
RMS Displacement         TolRMSD  ....  2.0000e-03 bohr
Strict Convergence                .... False

------------------------------------------------------------------------------
                        ORCA OPTIMIZATION COORDINATE SETUP
------------------------------------------------------------------------------

The optimization will be done in redundant internal coordinates (2022)
Making redundant internal coordinates   ...  (2022 redundants) done
Following TS mode number                ...     0
Evaluating the initial hessian          ...  (Is done on the fly) done
Evaluating the coordinates              ...  done
Calculating the B-matrix                .... done
Calculating the G-matrix                .... done
The number of degrees of freedom        ....   17

    -----------------------------------------------------------------
                    Redundant Internal Coordinates


    -----------------------------------------------------------------
         Definition                    Initial Value    d2E/dq (diagonal element)
    -----------------------------------------------------------------
      1. B(H   1,C   0)                  1.1404         0.000000   
      2. B(H   2,C   0)                  1.1404         0.000000   
      3. B(H   3,C   0)                  1.1404         0.000000   
      4. B(I   4,H   2)                  2.6621         0.000000   
      5. B(I   4,H   1)                  2.6621         0.000000   
      6. B(I   4,H   3)                  2.6621         0.000000   
      7. B(I   4,C   0)                  2.7820         0.000000   
      8. B(F   5,C   0)                  1.9044         0.000000   
      9. A(H   1,C   0,H   3)          110.9690         0.000000   
     10. A(H   2,C   0,H   3)          110.9690         0.000000   
     11. A(H   1,C   0,F   5)          107.9284         0.000000   
     12. A(H   2,C   0,F   5)          107.9284         0.000000   
     13. A(H   3,C   0,F   5)          107.9284         0.000000   
     14. A(H   1,C   0,I   4)           72.0716         0.000000   
     15. A(H   2,C   0,I   4)           72.0716         0.000000   
     16. A(H   3,C   0,I   4)           72.0716         0.000000   
     17. A(H   1,C   0,H   2)          110.9690         0.000000   
    -----------------------------------------------------------------

Number of atoms                         .... 6
Number of degrees of freedom            .... 17


         *************************************************************
         *                GEOMETRY OPTIMIZATION CYCLE   1            *
         *************************************************************
---------------------------------
CARTESIAN COORDINATES (ANGSTROEM)
---------------------------------
  C     0.000000    0.000000   -0.351040
  H     0.000000    1.085000    0.000000
  H     0.939638   -0.542500    0.000000
  H    -0.939638   -0.542500    0.000000
  I     0.000000    0.000000    2.430960
  F     0.000000    0.000000   -2.255440

----------------------------
CARTESIAN COORDINATES (A.U.)
----------------------------
  NO LB    ZA    FRAG    MASS        X           Y           Z
   0 C   6.0000    0    12.011    0.000000    0.000000   -0.663369
   1 H   1.0000    0     1.008    0.000000    2.050353    0.000000
   2 H   1.0000    0     1.008    1.775658   -1.025176    0.000000
   3 H   1.0000    0     1.008   -1.775658   -1.025176    0.000000
   4 I  53.0000    0   126.900    0.000000    0.000000    4.593849
   5 F   9.0000    0    18.998    0.000000    0.000000   -4.262164

      -----------------------------------------------------------      
     |                   =====================                   |     
     |                           x T B                           |     
     |                   =====================                   |     
     |                         S. Grimme                         |     
     |          Mulliken Center for Theoretical Chemistry        |     
     |                    University of Bonn                     |     
      -----------------------------------------------------------      

   * xtb version 6.7.1 (edcfbbe) compiled by 'albert@albert-system' on 2024-07-22

   xtb is free software: you can redistribute it and/or modify it under
   the terms of the GNU Lesser General Public License as published by
   the Free Software Foundation, either version 3 of the License, or
   (at your option) any later version.
   
   xtb is distributed in the hope that it will be useful,
   but WITHOUT ANY WARRANTY; without even the implied warranty of
   MERCHANTABILITY or FITNESS FOR A PARTICULAR PURPOSE.  See the
   GNU Lesser General Public License for more details.
   
   Cite this work as:
   * C. Bannwarth, E. Caldeweyher, S. Ehlert, A. Hansen, P. Pracht,
     J. Seibert, S. Spicher, S. Grimme, WIREs Comput. Mol. Sci., 2020, 11,
     e01493. DOI: 10.1002/wcms.1493
   
   for GFN2-xTB:
   * C. Bannwarth, S. Ehlert and S. Grimme., J. Chem. Theory Comput., 2019,
     15, 1652-1671. DOI: 10.1021/acs.jctc.8b01176
   for GFN1-xTB:
   * S. Grimme, C. Bannwarth, P. Shushkov, J. Chem. Theory Comput., 2017,
     13, 1989-2009. DOI: 10.1021/acs.jctc.7b00118
   for GFN0-xTB:
   * P. Pracht, E. Caldeweyher, S. Ehlert, S. Grimme, ChemRxiv, 2019, preprint.
     DOI: 10.26434/chemrxiv.8326202.v1
   for GFN-FF:
   * S. Spicher and S. Grimme, Angew. Chem. Int. Ed., 2020, 59, 15665-15673.
     DOI: 10.1002/anie.202004239
   
   for ALPB and GBSA implicit solvation:
   * S. Ehlert, M. Stahn, S. Spicher, S. Grimme, J. Chem. Theory Comput.,
     2021, 17, 4250-4261. DOI: 10.1021/acs.jctc.1c00471
   
   for ddCOSMO and CPCM-X implicit solvation:
   * M. Stahn, S. Ehlert, S. Grimme, J. Phys. Chem. A,
     2023, XX, XXXX-XXXX. DOI: 10.1021/acs.jpca.3c04382
   
   for DFT-D4:
   * E. Caldeweyher, C. Bannwarth and S. Grimme, J. Chem. Phys., 2017,
     147, 034112. DOI: 10.1063/1.4993215
   * E. Caldeweyher, S. Ehlert, A. Hansen, H. Neugebauer, S. Spicher,
     C. Bannwarth and S. Grimme, J. Chem. Phys., 2019, 150, 154122.
     DOI: 10.1063/1.5090222
   * E. Caldeweyher, J.-M. Mewes, S. Ehlert and S. Grimme, Phys. Chem. Chem. Phys.
     2020, 22, 8499-8512. DOI: 10.1039/D0CP00502A
   
   for sTDA-xTB:
   * S. Grimme and C. Bannwarth, J. Chem. Phys., 2016, 145, 054103.
     DOI: 10.1063/1.4959605
   
   in the mass-spec context:
   * V. Asgeirsson, C. Bauer and S. Grimme, Chem. Sci., 2017, 8, 4879.
     DOI: 10.1039/c7sc00601b
   * J. Koopman and S. Grimme, ACS Omega 2019, 4, 12, 15120-15133.
     DOI: 10.1021/acsomega.9b02011
   
   for metadynamics refer to:
   * S. Grimme, J. Chem. Theory Comput., 2019, 155, 2847-2862
     DOI: 10.1021/acs.jctc.9b00143
   
   for SPH calculations refer to:
   * S. Spicher and S. Grimme, J. Chem. Theory Comput., 2021, 17, 1701-1714
     DOI: 10.1021/acs.jctc.0c01306
   
   for ONIOM refer to:
   * C. Plett, A. Katbashev, S. Ehlert, S. Grimme, M. Bursch,
     Phys. Chem. Chem. Phys., 2023, 25, 17860-17868. DOI: 10.1039/D3CP02178E
   
   for DIPRO refer to:
   * J. Kohn, N. Gildemeister, S. Grimme, D. Fazzi, A. Hansen,
     J. Chem. Phys., 2023, just accepted.
   
   for PTB refer to:
   * S. Grimme, M. Mueller, A. Hansen, J. Chem. Phys., 2023, 158, 124111.
     DOI: 10.1063/5.0137838
   
   with help from (in alphabetical order)
   P. Atkinson, C. Bannwarth, F. Bohle, G. Brandenburg, E. Caldeweyher
   M. Checinski, S. Dohm, S. Ehlert, S. Ehrlich, I. Gerasimov, C. Hölzer
   A. Katbashev, J. Kohn, J. Koopman, C. Lavigne, S. Lehtola, F. März, M. Müller,
   F. Musil, H. Neugebauer, J. Pisarek, C. Plett, P. Pracht, F. Pultar,
   J. Seibert, P. Shushkov, S. Spicher, M. Stahn, M. Steiner, T. Strunk,
   J. Stückrath, T. Rose, and J. Unsleber
   
 * started run on 2026/03/12 at 12:40:54.229     
   ID    Z sym.   atoms
    1    6 C      1
    2    1 H      2-4
    3   53 I      5
    4    9 F      6

           -------------------------------------------------
          |                Calculation Setup                |
           -------------------------------------------------

          program call               : /software/orca-6.1.0-el8-x86_64/bin/otool_xtb sn2_i_f_XTB.xyz --grad -c -1 -u 0 -P 8 --namespace sn2_i_f --input sn2_i_f_XTB.input.tmp --acc 0.200000
          hostname                   : midway3-login4.rcc.local
          calculation namespace      : sn2_i_f
          coordinate file            : sn2_i_f_XTB.xyz
          omp threads                :                     8


molecular fragmentation (1/2 indicates fragments):
111112
# atoms in fragment 1/2:     5     1
 fragment masses (1/2) :      141.94       19.00
CMA distance (Bohr)    :   8.313
constraining FC (au)   :  0.0500

           -------------------------------------------------
          |                 G F N 2 - x T B                 |
           -------------------------------------------------

        Reference                      10.1021/acs.jctc.8b01176
      * Hamiltonian:
        H0-scaling (s, p, d)           1.850000    2.230000    2.230000
        zeta-weighting                 0.500000
      * Dispersion:
        s8                             2.700000
        a1                             0.520000
        a2                             5.000000
        s9                             5.000000
      * Repulsion:
        kExp                           1.500000    1.000000
        rExp                           1.000000
      * Coulomb:
        alpha                          2.000000
        third order                    shell-resolved
        anisotropic                    true
        a3                             3.000000
        a5                             4.000000
        cn-shift                       1.200000
        cn-exp                         4.000000
        max-rad                        5.000000


          ...................................................
          :                      SETUP                      :
          :.................................................:
          :  # basis functions                  21          :
          :  # atomic orbitals                  20          :
          :  # shells                           10          :
          :  # electrons                        22          :
          :  max. iterations                   250          :
          :  Hamiltonian                  GFN2-xTB          :
          :  restarted?                      false          :
          :  GBSA solvation                  false          :
          :  PC potential                    false          :
          :  electronic temp.          300.0000000     K    :
          :  accuracy                    0.2000000          :
          :  -> integral cutoff          0.3198970E+02      :
          :  -> integral neglect         0.2000000E-08      :
          :  -> SCF convergence          0.2000000E-06 Eh   :
          :  -> wf. convergence          0.2000000E-04 e    :
          :  Broyden damping             0.4000000          :
          :  net charge                         -1          :
          :  unpaired electrons                  0          :
          ...................................................

 iter      E             dE          RMSdq      gap      omega  full diag
   1    -12.4126109 -0.124126E+02  0.971E+00    2.26       0.0  T
   2    -12.4397720 -0.271611E-01  0.380E+00    2.58       1.0  T
   3    -12.4389184  0.853640E-03  0.181E+00    2.74       1.0  T
   4    -12.4422287 -0.331036E-02  0.980E-01    2.54       1.0  T
   5    -12.4425712 -0.342473E-03  0.620E-01    2.71       1.0  T
   6    -12.4427379 -0.166758E-03  0.194E-01    2.62       1.0  T
   7    -12.4426529  0.850553E-04  0.202E-01    2.60       1.0  T
   8    -12.4427469 -0.940208E-04  0.233E-02    2.64       1.8  T
   9    -12.4427483 -0.136085E-05  0.370E-03    2.63      11.0  T
  10    -12.4427483 -0.590946E-08  0.752E-04    2.63      54.3  T
  11    -12.4427483 -0.165595E-08  0.108E-04    2.63     379.6  T
  12    -12.4427483 -0.475922E-10  0.158E-05    2.63    2577.2  T

   *** convergence criteria satisfied after 12 iterations ***

         #    Occupation            Energy/Eh            Energy/eV
      -------------------------------------------------------------
         1        2.0000           -0.5385113             -14.6536
       ...           ...                  ...                  ...
         5        2.0000           -0.3318594              -9.0304
         6        2.0000           -0.2890571              -7.8656
         7        2.0000           -0.2456036              -6.6832
         8        2.0000           -0.2456036              -6.6832
         9        2.0000           -0.2056620              -5.5963
        10        2.0000           -0.2008992              -5.4667
        11        2.0000           -0.2008992              -5.4667 (HOMO)
        12                         -0.1041672              -2.8345 (LUMO)
        13                          0.2187143               5.9515
        14                          0.2187144               5.9515
        15                          0.2214311               6.0254
        16                          0.3037859               8.2664
       ...                                ...                  ...
        20                          0.4067970              11.0695
      -------------------------------------------------------------
                  HL-Gap            0.0967320 Eh            2.6322 eV
             Fermi-level           -0.1525332 Eh           -4.1506 eV

 SCC (total)                   0 d,  0 h,  0 min,  0.127 sec
 SCC setup                      ...        0 min,  0.000 sec (  0.134%)
 Dispersion                     ...        0 min,  0.000 sec (  0.045%)
 classical contributions        ...        0 min,  0.000 sec (  0.027%)
 integral evaluation            ...        0 min,  0.124 sec ( 98.261%)
 iterations                     ...        0 min,  0.001 sec (  1.134%)
 molecular gradient             ...        0 min,  0.000 sec (  0.299%)
 printout                       ...        0 min,  0.000 sec (  0.089%)

         :::::::::::::::::::::::::::::::::::::::::::::::::::::
         ::                     SUMMARY                     ::
         :::::::::::::::::::::::::::::::::::::::::::::::::::::
         :: total energy             -12.408315654453 Eh    ::
         :: gradient norm              0.089224048580 Eh/a0 ::
         :: HOMO-LUMO gap              2.632210452522 eV    ::
         ::.................................................::
         :: SCC energy               -12.442748596039 Eh    ::
         :: -> isotropic ES            0.156316952205 Eh    ::
         :: -> anisotropic ES          0.001463441873 Eh    ::
         :: -> anisotropic XC          0.003941577272 Eh    ::
         :: -> dispersion             -0.002460525242 Eh    ::
         :: repulsion energy           0.034432941586 Eh    ::
         :: add. restraining           0.000000000000 Eh    ::
         :: total charge              -1.000000000000 e     ::
         :::::::::::::::::::::::::::::::::::::::::::::::::::::


Property printout bound to 'properties.out'

           -------------------------------------------------
          | TOTAL ENERGY              -12.408315654453 Eh   |
          | GRADIENT NORM               0.089224048580 Eh/α |
          | HOMO-LUMO GAP               2.632210452522 eV   |
           -------------------------------------------------

------------------------------------------------------------------------
 * finished run on 2026/03/12 at 12:40:54.370     
------------------------------------------------------------------------
 total:
 * wall-time:     0 d,  0 h,  0 min,  0.141 sec
 *  cpu-time:     0 d,  0 h,  0 min,  0.658 sec
 * ratio c/w:     4.672 speedup
 SCF:
 * wall-time:     0 d,  0 h,  0 min,  0.127 sec
 *  cpu-time:     0 d,  0 h,  0 min,  0.603 sec
 * ratio c/w:     4.754 speedup


-------------------------   --------------------
FINAL SINGLE POINT ENERGY       -12.408315654450
-------------------------   --------------------


-------------
DIPOLE MOMENT
-------------
                                X             Y             Z
Total Dipole Moment    :      0.00000       0.00000      -1.56800
                        -----------------------------------------
Magnitude (a.u.)       :      1.56800
Magnitude (Debye)      :      3.98554


------------------
CARTESIAN GRADIENT
------------------

   1   C   :    0.000000000    0.000000096   -0.022233806
   2   H   :   -0.000000000    0.030061699    0.028504680
   3   H   :    0.026034353   -0.015030897    0.028504707
   4   H   :   -0.026034353   -0.015030897    0.028504707
   5   I   :   -0.000000000   -0.000000000   -0.019076279
   6   F   :    0.000000000   -0.000000000   -0.044204008

Difference to translation invariance:
           :   -0.0000000000    0.0000000000   -0.0000000000

Difference to rotation invariance:
           :    0.0000000093   -0.0000000000    0.0000000000

Norm of the Cartesian gradient     ...    0.0892240486
RMS gradient                       ...    0.0210303099
MAX gradient                       ...    0.0442040082
      -----------------------------------------------------------      
     |                   =====================                   |     
     |                           x T B                           |     
     |                   =====================                   |     
     |                         S. Grimme                         |     
     |          Mulliken Center for Theoretical Chemistry        |     
     |                    University of Bonn                     |     
      -----------------------------------------------------------      

   * xtb version 6.7.1 (edcfbbe) compiled by 'albert@albert-system' on 2024-07-22

   xtb is free software: you can redistribute it and/or modify it under
   the terms of the GNU Lesser General Public License as published by
   the Free Software Foundation, either version 3 of the License, or
   (at your option) any later version.
   
   xtb is distributed in the hope that it will be useful,
   but WITHOUT ANY WARRANTY; without even the implied warranty of
   MERCHANTABILITY or FITNESS FOR A PARTICULAR PURPOSE.  See the
   GNU Lesser General Public License for more details.
   
   Cite this work as:
   * C. Bannwarth, E. Caldeweyher, S. Ehlert, A. Hansen, P. Pracht,
     J. Seibert, S. Spicher, S. Grimme, WIREs Comput. Mol. Sci., 2020, 11,
     e01493. DOI: 10.1002/wcms.1493
   
   for GFN2-xTB:
   * C. Bannwarth, S. Ehlert and S. Grimme., J. Chem. Theory Comput., 2019,
     15, 1652-1671. DOI: 10.1021/acs.jctc.8b01176
   for GFN1-xTB:
   * S. Grimme, C. Bannwarth, P. Shushkov, J. Chem. Theory Comput., 2017,
     13, 1989-2009. DOI: 10.1021/acs.jctc.7b00118
   for GFN0-xTB:
   * P. Pracht, E. Caldeweyher, S. Ehlert, S. Grimme, ChemRxiv, 2019, preprint.
     DOI: 10.26434/chemrxiv.8326202.v1
   for GFN-FF:
   * S. Spicher and S. Grimme, Angew. Chem. Int. Ed., 2020, 59, 15665-15673.
     DOI: 10.1002/anie.202004239
   
   for ALPB and GBSA implicit solvation:
   * S. Ehlert, M. Stahn, S. Spicher, S. Grimme, J. Chem. Theory Comput.,
     2021, 17, 4250-4261. DOI: 10.1021/acs.jctc.1c00471
   
   for ddCOSMO and CPCM-X implicit solvation:
   * M. Stahn, S. Ehlert, S. Grimme, J. Phys. Chem. A,
     2023, XX, XXXX-XXXX. DOI: 10.1021/acs.jpca.3c04382
   
   for DFT-D4:
   * E. Caldeweyher, C. Bannwarth and S. Grimme, J. Chem. Phys., 2017,
     147, 034112. DOI: 10.1063/1.4993215
   * E. Caldeweyher, S. Ehlert, A. Hansen, H. Neugebauer, S. Spicher,
     C. Bannwarth and S. Grimme, J. Chem. Phys., 2019, 150, 154122.
     DOI: 10.1063/1.5090222
   * E. Caldeweyher, J.-M. Mewes, S. Ehlert and S. Grimme, Phys. Chem. Chem. Phys.
     2020, 22, 8499-8512. DOI: 10.1039/D0CP00502A
   
   for sTDA-xTB:
   * S. Grimme and C. Bannwarth, J. Chem. Phys., 2016, 145, 054103.
     DOI: 10.1063/1.4959605
   
   in the mass-spec context:
   * V. Asgeirsson, C. Bauer and S. Grimme, Chem. Sci., 2017, 8, 4879.
     DOI: 10.1039/c7sc00601b
   * J. Koopman and S. Grimme, ACS Omega 2019, 4, 12, 15120-15133.
     DOI: 10.1021/acsomega.9b02011
   
   for metadynamics refer to:
   * S. Grimme, J. Chem. Theory Comput., 2019, 155, 2847-2862
     DOI: 10.1021/acs.jctc.9b00143
   
   for SPH calculations refer to:
   * S. Spicher and S. Grimme, J. Chem. Theory Comput., 2021, 17, 1701-1714
     DOI: 10.1021/acs.jctc.0c01306
   
   for ONIOM refer to:
   * C. Plett, A. Katbashev, S. Ehlert, S. Grimme, M. Bursch,
     Phys. Chem. Chem. Phys., 2023, 25, 17860-17868. DOI: 10.1039/D3CP02178E
   
   for DIPRO refer to:
   * J. Kohn, N. Gildemeister, S. Grimme, D. Fazzi, A. Hansen,
     J. Chem. Phys., 2023, just accepted.
   
   for PTB refer to:
   * S. Grimme, M. Mueller, A. Hansen, J. Chem. Phys., 2023, 158, 124111.
     DOI: 10.1063/5.0137838
   
   with help from (in alphabetical order)
   P. Atkinson, C. Bannwarth, F. Bohle, G. Brandenburg, E. Caldeweyher
   M. Checinski, S. Dohm, S. Ehlert, S. Ehrlich, I. Gerasimov, C. Hölzer
   A. Katbashev, J. Kohn, J. Koopman, C. Lavigne, S. Lehtola, F. März, M. Müller,
   F. Musil, H. Neugebauer, J. Pisarek, C. Plett, P. Pracht, F. Pultar,
   J. Seibert, P. Shushkov, S. Spicher, M. Stahn, M. Steiner, T. Strunk,
   J. Stückrath, T. Rose, and J. Unsleber
   
 * started run on 2026/03/12 at 12:40:54.378     
   ID    Z sym.   atoms
    1    6 C      1
    2    1 H      2-4
    3   53 I      5
    4    9 F      6

           -------------------------------------------------
          |                Calculation Setup                |
           -------------------------------------------------

          program call               : /software/orca-6.1.0-el8-x86_64/bin/otool_xtb sn2_i_f_XTB.xyz --hess -c -1 -u 0 -P 8 --namespace sn2_i_f --input sn2_i_f_XTB.input.tmp --acc 0.200000
          hostname                   : midway3-login4.rcc.local
          calculation namespace      : sn2_i_f
          coordinate file            : sn2_i_f_XTB.xyz
          omp threads                :                     8


molecular fragmentation (1/2 indicates fragments):
111112
# atoms in fragment 1/2:     5     1
 fragment masses (1/2) :      141.94       19.00
CMA distance (Bohr)    :   8.313
constraining FC (au)   :  0.0500

           -------------------------------------------------
          |                 G F N 2 - x T B                 |
           -------------------------------------------------

        Reference                      10.1021/acs.jctc.8b01176
      * Hamiltonian:
        H0-scaling (s, p, d)           1.850000    2.230000    2.230000
        zeta-weighting                 0.500000
      * Dispersion:
        s8                             2.700000
        a1                             0.520000
        a2                             5.000000
        s9                             5.000000
      * Repulsion:
        kExp                           1.500000    1.000000
        rExp                           1.000000
      * Coulomb:
        alpha                          2.000000
        third order                    shell-resolved
        anisotropic                    true
        a3                             3.000000
        a5                             4.000000
        cn-shift                       1.200000
        cn-exp                         4.000000
        max-rad                        5.000000

q/qsh data taken from xtbrestart
CAMM data taken from xtbrestart

          ...................................................
          :                      SETUP                      :
          :.................................................:
          :  # basis functions                  21          :
          :  # atomic orbitals                  20          :
          :  # shells                           10          :
          :  # electrons                        22          :
          :  max. iterations                   250          :
          :  Hamiltonian                  GFN2-xTB          :
          :  restarted?                       true          :
          :  GBSA solvation                  false          :
          :  PC potential                    false          :
          :  electronic temp.          300.0000000     K    :
          :  accuracy                    0.2000000          :
          :  -> integral cutoff          0.3198970E+02      :
          :  -> integral neglect         0.2000000E-08      :
          :  -> SCF convergence          0.2000000E-06 Eh   :
          :  -> wf. convergence          0.2000000E-04 e    :
          :  Broyden damping             0.4000000          :
          :  net charge                         -1          :
          :  unpaired electrons                  0          :
          ...................................................

 iter      E             dE          RMSdq      gap      omega  full diag
   1    -12.4427483 -0.124427E+02  0.504E-06    2.63       0.0  T
   2    -12.4427483 -0.177636E-13  0.144E-06    2.63   28292.8  T
   3    -12.4427483 -0.355271E-14  0.877E-07    2.63   46545.7  T

   *** convergence criteria satisfied after 3 iterations ***

         #    Occupation            Energy/Eh            Energy/eV
      -------------------------------------------------------------
         1        2.0000           -0.5385113             -14.6536
       ...           ...                  ...                  ...
         5        2.0000           -0.3318595              -9.0304
         6        2.0000           -0.2890571              -7.8656
         7        2.0000           -0.2456035              -6.6832
         8        2.0000           -0.2456035              -6.6832
         9        2.0000           -0.2056619              -5.5963
        10        2.0000           -0.2008992              -5.4667
        11        2.0000           -0.2008992              -5.4667 (HOMO)
        12                         -0.1041673              -2.8345 (LUMO)
        13                          0.2187143               5.9515
        14                          0.2187144               5.9515
        15                          0.2214311               6.0254
        16                          0.3037859               8.2664
       ...                                ...                  ...
        20                          0.4067970              11.0695
      -------------------------------------------------------------
                  HL-Gap            0.0967319 Eh            2.6322 eV
             Fermi-level           -0.1525332 Eh           -4.1506 eV

 SCC (total)                   0 d,  0 h,  0 min,  0.088 sec
 SCC setup                      ...        0 min,  0.000 sec (  0.186%)
 Dispersion                     ...        0 min,  0.000 sec (  0.059%)
 classical contributions        ...        0 min,  0.000 sec (  0.026%)
 integral evaluation            ...        0 min,  0.086 sec ( 98.198%)
 iterations                     ...        0 min,  0.001 sec (  0.870%)
 molecular gradient             ...        0 min,  0.000 sec (  0.521%)
 printout                       ...        0 min,  0.000 sec (  0.120%)

         :::::::::::::::::::::::::::::::::::::::::::::::::::::
         ::                     SUMMARY                     ::
         :::::::::::::::::::::::::::::::::::::::::::::::::::::
         :: total energy             -12.408315654453 Eh    ::
         :: gradient norm              0.089224016011 Eh/a0 ::
         :: HOMO-LUMO gap              2.632209127272 eV    ::
         ::.................................................::
         :: SCC energy               -12.442748596039 Eh    ::
         :: -> isotropic ES            0.156316851424 Eh    ::
         :: -> anisotropic ES          0.001463446200 Eh    ::
         :: -> anisotropic XC          0.003941580614 Eh    ::
         :: -> dispersion             -0.002460525005 Eh    ::
         :: repulsion energy           0.034432941586 Eh    ::
         :: add. restraining           0.000000000000 Eh    ::
         :: total charge              -1.000000000000 e     ::
         :::::::::::::::::::::::::::::::::::::::::::::::::::::

           ------------------------------------------------- 
          |                Numerical Hessian                |
           ------------------------------------------------- 
step length          :   0.00500
SCC accuracy         :   0.30000
Hessian scale factor :   1.00000
frozen atoms in %    :   0.00000    0
RMS gradient         :   0.08922 !! INCOMPLETELY OPTIMIZED GEOMETRY !!
estimated CPU  time      0.00 min
estimated wall time      0.00 min

writing file <hessian>.

 projected vibrational frequencies (cm⁻¹)
eigval :       -0.00    -0.00    -0.00     0.00     0.00     0.00
eigval :     -219.45   231.80   249.52   249.52   990.65   990.65
eigval :     1230.58  1468.49  1468.52  2494.69  2512.62  2512.65

Property printout bound to 'properties.out'
Molecule has the following symmetry elements: (C3) 3*(sigma) 
It seems to be the C3v point group
imag cut-off (cm-1) :    5.00
 found            1  significant imaginary frequency
 writing imag mode distorted coords to xtbhess.xyz
 for further optimization.

           -------------------------------------------------
          | TOTAL ENERGY              -12.408315654453 Eh   |
          | TOTAL ENTHALPY            -12.370144415804 Eh   |
          | TOTAL FREE ENERGY         -12.403124978398 Eh   |
          | GRADIENT NORM               0.089224016038 Eh/α |
          | HOMO-LUMO GAP               2.632209127295 eV   |
           -------------------------------------------------
########################################################################
[WARNING] Runtime exception occurred
-1- hessian_numhess: Hessian on incompletely optimized geometry!
########################################################################

------------------------------------------------------------------------
 * finished run on 2026/03/12 at 12:40:54.490     
------------------------------------------------------------------------
 total:
 * wall-time:     0 d,  0 h,  0 min,  0.112 sec
 *  cpu-time:     0 d,  0 h,  0 min,  0.521 sec
 * ratio c/w:     4.663 speedup
 SCF:
 * wall-time:     0 d,  0 h,  0 min,  0.088 sec
 *  cpu-time:     0 d,  0 h,  0 min,  0.384 sec
 * ratio c/w:     4.348 speedup
 analytical hessian:
 * wall-time:     0 d,  0 h,  0 min,  0.010 sec
 *  cpu-time:     0 d,  0 h,  0 min,  0.076 sec
 * ratio c/w:     7.874 speedup


-------------------------   --------------------
FINAL SINGLE POINT ENERGY       -12.408315654450
-------------------------   --------------------


-------------
DIPOLE MOMENT
-------------
                                X             Y             Z
Total Dipole Moment    :     -0.00000      -0.00000      -1.56800
                        -----------------------------------------
Magnitude (a.u.)       :      1.56800
Magnitude (Debye)      :      3.98554


-----------------------
VIBRATIONAL FREQUENCIES
-----------------------

Scaling factor for frequencies =  1.000000000  (already applied!)

     0:       0.00 cm**-1
     1:       0.00 cm**-1
     2:       0.00 cm**-1
     3:       0.00 cm**-1
     4:       0.00 cm**-1
     5:       0.00 cm**-1
     6:    -219.45 cm**-1  ***imaginary mode***
     7:     231.81 cm**-1
     8:     249.52 cm**-1
     9:     249.52 cm**-1
    10:     990.62 cm**-1
    11:     990.62 cm**-1
    12:    1230.54 cm**-1
    13:    1468.45 cm**-1
    14:    1468.48 cm**-1
    15:    2494.62 cm**-1
    16:    2512.55 cm**-1
    17:    2512.58 cm**-1


------------
NORMAL MODES
------------

These modes are the Cartesian displacements weighted by the diagonal matrix
M(i,i)=1/sqrt(m[i]) where m[i] is the mass of the displaced atom
Thus, these vectors are normalized but *not* orthogonal

                  0          1          2          3          4          5    
      0       0.000000   0.000000   0.000000   0.000000   0.000000   0.000000
      1       0.000000   0.000000   0.000000   0.000000   0.000000   0.000000
      2       0.000000   0.000000   0.000000   0.000000   0.000000   0.000000
      3       0.000000   0.000000   0.000000   0.000000   0.000000   0.000000
      4       0.000000   0.000000   0.000000   0.000000   0.000000   0.000000
      5       0.000000   0.000000   0.000000   0.000000   0.000000   0.000000
      6       0.000000   0.000000   0.000000   0.000000   0.000000   0.000000
      7       0.000000   0.000000   0.000000   0.000000   0.000000   0.000000
      8       0.000000   0.000000   0.000000   0.000000   0.000000   0.000000
      9       0.000000   0.000000   0.000000   0.000000   0.000000   0.000000
     10       0.000000   0.000000   0.000000   0.000000   0.000000   0.000000
     11       0.000000   0.000000   0.000000   0.000000   0.000000   0.000000
     12       0.000000   0.000000   0.000000   0.000000   0.000000   0.000000
     13       0.000000   0.000000   0.000000   0.000000   0.000000   0.000000
     14       0.000000   0.000000   0.000000   0.000000   0.000000   0.000000
     15       0.000000   0.000000   0.000000   0.000000   0.000000   0.000000
     16       0.000000   0.000000   0.000000   0.000000   0.000000   0.000000
     17       0.000000   0.000000   0.000000   0.000000   0.000000   0.000000
                  6          7          8          9         10         11    
      0      -0.000002   0.000000   0.455534  -0.003414   0.002276   0.055538
      1       0.000020  -0.000124   0.003414   0.455531   0.055541  -0.002276
      2      -0.614135   0.597007  -0.000000   0.000077  -0.000002  -0.000000
      3      -0.000002  -0.000000   0.497324  -0.003727  -0.008298  -0.202524
      4      -0.056887   0.040954   0.003706   0.494463  -0.172408   0.007066
      5      -0.325630   0.378049  -0.000610  -0.081139   0.769742  -0.031541
      6      -0.049286   0.035583   0.495181  -0.002464  -0.020422  -0.179402
      7       0.028489  -0.020685   0.004964   0.496594  -0.195538  -0.005048
      8      -0.325620   0.378015  -0.069998   0.041163  -0.357541   0.682382
      9       0.049283  -0.035584   0.495163  -0.004957   0.005672  -0.180476
     10       0.028489  -0.020685   0.002479   0.496613  -0.194472   0.021032
     11      -0.325620   0.378015   0.070605   0.040109  -0.412173  -0.650840
     12       0.000000   0.000000  -0.023432   0.000176   0.000088   0.002137
     13      -0.000001   0.000006  -0.000176  -0.023432   0.002137  -0.000088
     14      -0.015397  -0.131214  -0.000000  -0.000014  -0.000000  -0.000000
     15       0.000001   0.000000  -0.210415   0.001577  -0.000801  -0.019549
     16      -0.000010   0.000058  -0.001577  -0.210414  -0.019549   0.000801
     17       0.542948   0.438848   0.000001   0.000037   0.000000   0.000000
                 12         13         14         15         16         17    
      0      -0.000000   0.000002   0.088421   0.000000   0.093087   0.000019
      1       0.000002   0.088421  -0.000002  -0.000074   0.000019  -0.093086
      2      -0.084452   0.000001  -0.000000   0.028596  -0.000000  -0.000025
      3       0.000002  -0.000014  -0.773671  -0.000000   0.059298   0.000017
      4      -0.132174   0.088895   0.000002  -0.564643  -0.000166   0.782712
      5       0.559844  -0.234520   0.000007  -0.116137  -0.000045   0.213421
      6      -0.114477  -0.373497  -0.126740  -0.489837  -0.571760  -0.364086
      7       0.066081  -0.558036  -0.373493   0.282754   0.364358   0.150904
      8       0.559874   0.117239  -0.203074  -0.116394  -0.184719  -0.106596
      9       0.114481   0.373486  -0.126748   0.489834  -0.571919   0.363845
     10       0.066081  -0.558026   0.373514   0.282753  -0.364416   0.150745
     11       0.559872   0.117244   0.203072  -0.116397   0.184768  -0.106520
     12      -0.000000   0.000000  -0.000121   0.000000  -0.000023  -0.000000
     13      -0.000000  -0.000121   0.000000   0.000000  -0.000000   0.000023
     14      -0.003868   0.000000  -0.000000   0.000076  -0.000000  -0.000000
     15      -0.000000  -0.000000  -0.000594  -0.000000  -0.001161  -0.000000
     16       0.000000  -0.000594   0.000000   0.000001  -0.000000   0.001161
     17      -0.009885   0.000001  -0.000000  -0.000071   0.000000  -0.000000


The first frequency considered to be a vibration is 7
The total number of vibrations considered is 11


--------------------------
THERMOCHEMISTRY AT 298.15K
--------------------------

Temperature         ...   298.15 K
Pressure            ...     1.00 atm
Total Mass          ...   160.93 AMU
Quasi RRHO          ...     True
Cut-Off Frequency   ...     1.00 cm^-1

Throughout the following assumptions are being made:
  (1) The electronic state is orbitally nondegenerate
  (2) There are no thermally accessible electronically excited states
  (3) Hindered rotations indicated by low frequency modes are not
      treated as such but are treated as vibrations and this may
      cause some error
  (4) All equations used are the standard statistical mechanics
      equations for an ideal gas
  (5) All vibrations are strictly harmonic

freq.     231.81  E(vib)   ...       0.32 
freq.     249.52  E(vib)   ...       0.31 
freq.     249.52  E(vib)   ...       0.31 
freq.     990.62  E(vib)   ...       0.02 
freq.     990.62  E(vib)   ...       0.02 
freq.    1230.54  E(vib)   ...       0.01 
freq.    1468.45  E(vib)   ...       0.00 
freq.    1468.48  E(vib)   ...       0.00 
freq.    2494.62  E(vib)   ...       0.00 
freq.    2512.55  E(vib)   ...       0.00 
freq.    2512.58  E(vib)   ...       0.00 

------------
INNER ENERGY
------------

The inner energy is: U= E(el) + E(ZPE) + E(vib) + E(rot) + E(trans)
    E(el)   - is the total energy from the electronic structure calculation
              = E(kin-el) + E(nuc-el) + E(el-el) + E(nuc-nuc)
    E(ZPE)  - the the zero temperature vibrational energy from the frequency calculation
    E(vib)  - the the finite temperature correction to E(ZPE) due to population
              of excited vibrational states
    E(rot)  - is the rotational thermal energy
    E(trans)- is the translational thermal energy

Summary of contributions to the inner energy U:
Electronic energy                ...    -12.40831565 Eh
Zero point energy                ...      0.03280400 Eh      20.58 kcal/mol
Thermal vibrational correction   ...      0.00158956 Eh       1.00 kcal/mol
Thermal rotational correction    ...      0.00141627 Eh       0.89 kcal/mol
Thermal translational correction ...      0.00141627 Eh       0.89 kcal/mol
-----------------------------------------------------------------------
Total thermal energy                    -12.37108955 Eh


Summary of corrections to the electronic energy:
(perhaps to be used in another calculation)
Total thermal correction                  0.00442210 Eh       2.77 kcal/mol
Non-thermal (ZPE) correction              0.03280400 Eh      20.58 kcal/mol
-----------------------------------------------------------------------
Total correction                          0.03722610 Eh      23.36 kcal/mol


--------
ENTHALPY
--------

The enthalpy is H = U + kB*T
                kB is Boltzmann's constant
Total thermal energy              ...    -12.37108955 Eh 
Thermal Enthalpy correction       ...      0.00094421 Eh       0.59 kcal/mol
-----------------------------------------------------------------------
Total Enthalpy                    ...    -12.37014534 Eh


WARNING (ORCA/SYM): The number of Z matrix atoms does not agree with
the number of centers in the basis set. The point group will therefore
be determined without considering basis set information.


Note: Rotational entropy computed according to Herzberg 
Infrared and Raman Spectra, Chapter V,1, Van Nostrand Reinhold, 1945 
Point Group:  C3v, Symmetry Number:   3  
Rotational constants in cm-1:     4.735387     0.039650     0.039650 

Vibrational entropy computed according to the QRRHO of S. Grimme
Chem.Eur.J. 2012 18 9955 using a reference frequency of 100.0 cm-1


-------
ENTROPY
-------

The entropy contributions are T*S = T*(S(el)+S(vib)+S(rot)+S(trans))
     S(el)   - electronic entropy
     S(vib)  - vibrational entropy
     S(rot)  - rotational entropy
     S(trans)- translational entropy
The entropies will be listed as multiplied by the temperature to get
units of energy

Electronic entropy                ...      0.00000000 Eh      0.00 kcal/mol
Vibrational entropy               ...      0.00266411 Eh      1.67 kcal/mol
Rotational entropy                ...      0.01078690 Eh      6.77 kcal/mol
Translational entropy             ...      0.01954513 Eh     12.26 kcal/mol
-----------------------------------------------------------------------
Final entropy term                ...      0.03299613 Eh     20.71 kcal/mol

In case the symmetry of your molecule has not been determined correctly
or in case you have a reason to use a different symmetry number we print 
out the resulting rotational entropy values for sn=1,12:

 non-linear molecules -----------------------------------
|  sn= 1 | S(rot)=       0.01182418 Eh      7.42 kcal/mol|
|  sn= 2 | S(rot)=       0.01116973 Eh      7.01 kcal/mol|
|  sn= 3 | S(rot)=       0.01078690 Eh      6.77 kcal/mol|
|  sn= 4 | S(rot)=       0.01051527 Eh      6.60 kcal/mol|
|  sn= 5 | S(rot)=       0.01030458 Eh      6.47 kcal/mol|
|  sn= 6 | S(rot)=       0.01013244 Eh      6.36 kcal/mol|
|  sn= 7 | S(rot)=       0.00998689 Eh      6.27 kcal/mol|
|  sn= 8 | S(rot)=       0.00986082 Eh      6.19 kcal/mol|
|  sn= 9 | S(rot)=       0.00974961 Eh      6.12 kcal/mol|
|  sn=10 | S(rot)=       0.00965013 Eh      6.06 kcal/mol|
|  sn=11 | S(rot)=       0.00956014 Eh      6.00 kcal/mol|
|  sn=12 | S(rot)=       0.00947798 Eh      5.95 kcal/mol|
 linear molecules ---------------------------------------
|  Dinfh | S(rot)=       0.00837331 Eh      5.25 kcal/mol|
|  Cinfv | S(rot)=       0.00902777 Eh      5.66 kcal/mol|
 --------------------------------------------------------


-------------------
GIBBS FREE ENERGY
-------------------

The Gibbs free energy is G = H - T*S

Total enthalpy                    ...    -12.37014534 Eh 
Total entropy correction          ...     -0.03299613 Eh    -20.71 kcal/mol
-----------------------------------------------------------------------
Final Gibbs free energy         ...    -12.40314148 Eh

For completeness - the Gibbs free energy minus the electronic energy
G-E(el)                           ...      0.00517418 Eh      3.25 kcal/mol

Actual Hessian File stored as sn2_i_f.001.hess
------------------------------------------------------------------------------
                         ORCA GEOMETRY RELAXATION STEP
------------------------------------------------------------------------------

Reading the OPT-File                    .... done
Getting information on internals        .... done
Copying old internal coords+grads       .... done
Making the new internal coordinates     .... (2022 redundants) done
Validating the new internal coordinates .... (2022 redundants) done
Calculating the B-matrix                .... done
Calculating the G,G- and P matrices     .... done
Transforming gradient to internals      .... done
Projecting the internal gradient        .... done
Number of atoms                         ....   6
Number of internal coordinates          ....  17
Current Energy                          ....   -12.408315654 Eh
Current gradient norm                   ....     0.089224049 Eh/bohr
Maximum allowed component of the step   ....  0.300
Current trust radius                    ....  0.300
Evaluating the initial hessian          ....  (read) 
(Reading Exact Hessian)...  
InHessName: sn2_i_f.hess	The file <sn2_i_f.hess> is opened as a .hess file
done
done
Projecting the Hessian                  .... done
Diagonalizing the Hessian               .... done
Dimension of the hessian                ....  17
Lowest eigenvalues of the Hessian:
 -0.011405949  0.021081816  0.021751558  0.021751734  0.051170248
Hessian has   1 negative eigenvalues
Taking P-RFO step
Searching for lambda that maximizes along the lowest mode
TS mode is mode number   0 with eigenvalue  -0.01140595 and components:
   1.    0.01645963
   2.    0.01645650
   3.    0.01645564
   4.    0.09804298
   5.    0.09806449
   6.    0.09804423
   7.    0.28365642
   8.   -0.91649093
   9.   -0.07146648
  10.   -0.07145703
  11.    0.07595467
  12.    0.07594265
  13.    0.07594500
  14.   -0.07594108
  15.   -0.07595093
  16.   -0.07595031
  17.   -0.07146669

Lambda that maximizes along the TS mode:       0.03006047
Searching for lambda that minimizes along all other modes
In cycle   1: lambdaN =  -0.02963641   step =   0.02963641
In cycle   2: lambdaN =  -0.03582253   step =   0.00618612
In cycle   3: lambdaN =  -0.03592667   step =   0.00010414
In cycle   4: lambdaN =  -0.03592669   step =   0.00000003
In cycle   5: lambdaN =  -0.03592669   step =   0.00000000
Lambda that minimizes along all other modes:  -0.03592669
Calculated stepsize too large (   0.7748 >    0.3000). Scaled with    0.3872.
The final length of the internal step   ....       0.3000
Converting the step to Cartesian space:
 Initial RMS(Int)=    0.0727606875
Transforming coordinates:
 Iter   0:  RMS(Cart)=    0.0344263097 RMS(Int)=    0.0715059593
 Iter   5:  RMS(Cart)=    0.0000000206 RMS(Int)=    0.0000000249
done
Storing new coordinates                 .... done

                                .--------------------.
          ----------------------|Geometry convergence|-------------------------
          Item                value                   Tolerance       Converged
          ---------------------------------------------------------------------
          RMS gradient        0.0203097425            0.0001000000      NO
          MAX gradient        0.0442040082            0.0003000000      NO
          RMS step            0.0727606875            0.0020000000      NO
          MAX step            0.1161577774            0.0040000000      NO
          -------------------------------------------------------------------------
          ........................................................
          Max(Bonds)      0.0615      Max(Angles)    4.27
          Max(Dihed)        0.00      Max(Improp)    0.00
          ---------------------------------------------------------------------

The optimization has not yet converged - more geometry cycles are needed


    ---------------------------------------------------------------------------
                         Redundant Internal Coordinates
                            (Angstroem and degrees)

        Definition                    Value    dE/dq     Step     New-Value  comp.(TS mode)
    ----------------------------------------------------------------------------
     1. B(H   1,C   0)                1.1404  0.038255 -0.0373    1.1031   
     2. B(H   2,C   0)                1.1404  0.038255 -0.0373    1.1031   
     3. B(H   3,C   0)                1.1404  0.038255 -0.0373    1.1031   
     4. B(I   4,H   2)                2.6621 -0.008233 -0.0017    2.6604   
     5. B(I   4,H   1)                2.6621 -0.008233 -0.0017    2.6604   
     6. B(I   4,H   3)                2.6621 -0.008233 -0.0017    2.6604   
     7. B(I   4,C   0)                2.7820  0.003479 -0.0615    2.7205          0.28
     8. B(F   5,C   0)                1.9044  0.044204  0.0615    1.9659          0.92
     9. A(H   1,C   0,H   3)          110.97 -0.006803    4.02    114.99   
    10. A(H   2,C   0,H   3)          110.97 -0.006803    4.02    114.99   
    11. A(H   1,C   0,F   5)          107.93  0.007230   -4.27    103.66   
    12. A(H   2,C   0,F   5)          107.93  0.007230   -4.27    103.66   
    13. A(H   3,C   0,F   5)          107.93  0.007230   -4.27    103.66   
    14. A(H   1,C   0,I   4)           72.07 -0.007230    4.27     76.34   
    15. A(H   2,C   0,I   4)           72.07 -0.007230    4.27     76.34   
    16. A(H   3,C   0,I   4)           72.07 -0.007230    4.27     76.34   
    17. A(H   1,C   0,H   2)          110.97 -0.006803    4.02    114.99   
    ----------------------------------------------------------------------------

Geometry step timings:
Preparation and reading OPT file:      0.000 s ( 0.848 %)
Internal coordinates            :      0.000 s ( 1.154 %)
B/P matrices and projection     :      0.000 s ( 2.944 %)
Hessian update/contruction      :      0.003 s (80.075 %)
Making the step                 :      0.000 s ( 4.404 %)
Converting the step to Cartesian:      0.000 s ( 1.107 %)
Storing new data                :      0.000 s ( 1.884 %)
Checking convergence            :      0.000 s ( 1.460 %)
Final printing                  :      0.000 s ( 5.982 %)
Total time                      :      0.004 s

Time for energy+gradient        :      0.149 s
Time for complete geometry iter :      0.283 s

         *************************************************************
         *                GEOMETRY OPTIMIZATION CYCLE   2            *
         *************************************************************
---------------------------------
CARTESIAN COORDINATES (ANGSTROEM)
---------------------------------
  C     0.000000   -0.000002   -0.285661
  H     0.000000    1.070018   -0.019872
  H     0.926664   -0.535012   -0.019874
  H    -0.926664   -0.535013   -0.019873
  I    -0.000001    0.000004    2.421289
  F    -0.000001    0.000005   -2.251529

----------------------------
CARTESIAN COORDINATES (A.U.)
----------------------------
  NO LB    ZA    FRAG    MASS        X           Y           Z
   0 C   6.0000    0    12.011    0.000001   -0.000003   -0.539820
   1 H   1.0000    0     1.008    0.000001    2.022041   -0.037554
   2 H   1.0000    0     1.008    1.751142   -1.011027   -0.037556
   3 H   1.0000    0     1.008   -1.751141   -1.011027   -0.037555
   4 I  53.0000    0   126.900   -0.000001    0.000008    4.575573
   5 F   9.0000    0    18.998   -0.000001    0.000009   -4.254772

      -----------------------------------------------------------      
     |                   =====================                   |     
     |                           x T B                           |     
     |                   =====================                   |     
     |                         S. Grimme                         |     
     |          Mulliken Center for Theoretical Chemistry        |     
     |                    University of Bonn                     |     
      -----------------------------------------------------------      

   * xtb version 6.7.1 (edcfbbe) compiled by 'albert@albert-system' on 2024-07-22

   xtb is free software: you can redistribute it and/or modify it under
   the terms of the GNU Lesser General Public License as published by
   the Free Software Foundation, either version 3 of the License, or
   (at your option) any later version.
   
   xtb is distributed in the hope that it will be useful,
   but WITHOUT ANY WARRANTY; without even the implied warranty of
   MERCHANTABILITY or FITNESS FOR A PARTICULAR PURPOSE.  See the
   GNU Lesser General Public License for more details.
   
   Cite this work as:
   * C. Bannwarth, E. Caldeweyher, S. Ehlert, A. Hansen, P. Pracht,
     J. Seibert, S. Spicher, S. Grimme, WIREs Comput. Mol. Sci., 2020, 11,
     e01493. DOI: 10.1002/wcms.1493
   
   for GFN2-xTB:
   * C. Bannwarth, S. Ehlert and S. Grimme., J. Chem. Theory Comput., 2019,
     15, 1652-1671. DOI: 10.1021/acs.jctc.8b01176
   for GFN1-xTB:
   * S. Grimme, C. Bannwarth, P. Shushkov, J. Chem. Theory Comput., 2017,
     13, 1989-2009. DOI: 10.1021/acs.jctc.7b00118
   for GFN0-xTB:
   * P. Pracht, E. Caldeweyher, S. Ehlert, S. Grimme, ChemRxiv, 2019, preprint.
     DOI: 10.26434/chemrxiv.8326202.v1
   for GFN-FF:
   * S. Spicher and S. Grimme, Angew. Chem. Int. Ed., 2020, 59, 15665-15673.
     DOI: 10.1002/anie.202004239
   
   for ALPB and GBSA implicit solvation:
   * S. Ehlert, M. Stahn, S. Spicher, S. Grimme, J. Chem. Theory Comput.,
     2021, 17, 4250-4261. DOI: 10.1021/acs.jctc.1c00471
   
   for ddCOSMO and CPCM-X implicit solvation:
   * M. Stahn, S. Ehlert, S. Grimme, J. Phys. Chem. A,
     2023, XX, XXXX-XXXX. DOI: 10.1021/acs.jpca.3c04382
   
   for DFT-D4:
   * E. Caldeweyher, C. Bannwarth and S. Grimme, J. Chem. Phys., 2017,
     147, 034112. DOI: 10.1063/1.4993215
   * E. Caldeweyher, S. Ehlert, A. Hansen, H. Neugebauer, S. Spicher,
     C. Bannwarth and S. Grimme, J. Chem. Phys., 2019, 150, 154122.
     DOI: 10.1063/1.5090222
   * E. Caldeweyher, J.-M. Mewes, S. Ehlert and S. Grimme, Phys. Chem. Chem. Phys.
     2020, 22, 8499-8512. DOI: 10.1039/D0CP00502A
   
   for sTDA-xTB:
   * S. Grimme and C. Bannwarth, J. Chem. Phys., 2016, 145, 054103.
     DOI: 10.1063/1.4959605
   
   in the mass-spec context:
   * V. Asgeirsson, C. Bauer and S. Grimme, Chem. Sci., 2017, 8, 4879.
     DOI: 10.1039/c7sc00601b
   * J. Koopman and S. Grimme, ACS Omega 2019, 4, 12, 15120-15133.
     DOI: 10.1021/acsomega.9b02011
   
   for metadynamics refer to:
   * S. Grimme, J. Chem. Theory Comput., 2019, 155, 2847-2862
     DOI: 10.1021/acs.jctc.9b00143
   
   for SPH calculations refer to:
   * S. Spicher and S. Grimme, J. Chem. Theory Comput., 2021, 17, 1701-1714
     DOI: 10.1021/acs.jctc.0c01306
   
   for ONIOM refer to:
   * C. Plett, A. Katbashev, S. Ehlert, S. Grimme, M. Bursch,
     Phys. Chem. Chem. Phys., 2023, 25, 17860-17868. DOI: 10.1039/D3CP02178E
   
   for DIPRO refer to:
   * J. Kohn, N. Gildemeister, S. Grimme, D. Fazzi, A. Hansen,
     J. Chem. Phys., 2023, just accepted.
   
   for PTB refer to:
   * S. Grimme, M. Mueller, A. Hansen, J. Chem. Phys., 2023, 158, 124111.
     DOI: 10.1063/5.0137838
   
   with help from (in alphabetical order)
   P. Atkinson, C. Bannwarth, F. Bohle, G. Brandenburg, E. Caldeweyher
   M. Checinski, S. Dohm, S. Ehlert, S. Ehrlich, I. Gerasimov, C. Hölzer
   A. Katbashev, J. Kohn, J. Koopman, C. Lavigne, S. Lehtola, F. März, M. Müller,
   F. Musil, H. Neugebauer, J. Pisarek, C. Plett, P. Pracht, F. Pultar,
   J. Seibert, P. Shushkov, S. Spicher, M. Stahn, M. Steiner, T. Strunk,
   J. Stückrath, T. Rose, and J. Unsleber
   
 * started run on 2026/03/12 at 12:40:54.512     
   ID    Z sym.   atoms
    1    6 C      1
    2    1 H      2-4
    3   53 I      5
    4    9 F      6

           -------------------------------------------------
          |                Calculation Setup                |
           -------------------------------------------------

          program call               : /software/orca-6.1.0-el8-x86_64/bin/otool_xtb sn2_i_f_XTB.xyz --grad -c -1 -u 0 -P 8 --namespace sn2_i_f --input sn2_i_f_XTB.input.tmp --acc 0.200000
          hostname                   : midway3-login4.rcc.local
          calculation namespace      : sn2_i_f
          coordinate file            : sn2_i_f_XTB.xyz
          omp threads                :                     8


molecular fragmentation (1/2 indicates fragments):
111112
# atoms in fragment 1/2:     5     1
 fragment masses (1/2) :      141.94       19.00
CMA distance (Bohr)    :   8.299
constraining FC (au)   :  0.0500

           -------------------------------------------------
          |                 G F N 2 - x T B                 |
           -------------------------------------------------

        Reference                      10.1021/acs.jctc.8b01176
      * Hamiltonian:
        H0-scaling (s, p, d)           1.850000    2.230000    2.230000
        zeta-weighting                 0.500000
      * Dispersion:
        s8                             2.700000
        a1                             0.520000
        a2                             5.000000
        s9                             5.000000
      * Repulsion:
        kExp                           1.500000    1.000000
        rExp                           1.000000
      * Coulomb:
        alpha                          2.000000
        third order                    shell-resolved
        anisotropic                    true
        a3                             3.000000
        a5                             4.000000
        cn-shift                       1.200000
        cn-exp                         4.000000
        max-rad                        5.000000

q/qsh data taken from xtbrestart
CAMM data taken from xtbrestart

          ...................................................
          :                      SETUP                      :
          :.................................................:
          :  # basis functions                  21          :
          :  # atomic orbitals                  20          :
          :  # shells                           10          :
          :  # electrons                        22          :
          :  max. iterations                   250          :
          :  Hamiltonian                  GFN2-xTB          :
          :  restarted?                       true          :
          :  GBSA solvation                  false          :
          :  PC potential                    false          :
          :  electronic temp.          300.0000000     K    :
          :  accuracy                    0.2000000          :
          :  -> integral cutoff          0.3198970E+02      :
          :  -> integral neglect         0.2000000E-08      :
          :  -> SCF convergence          0.2000000E-06 Eh   :
          :  -> wf. convergence          0.2000000E-04 e    :
          :  Broyden damping             0.4000000          :
          :  net charge                         -1          :
          :  unpaired electrons                  0          :
          ...................................................

 iter      E             dE          RMSdq      gap      omega  full diag
   1    -12.4574405 -0.124574E+02  0.143E+00    2.51       0.0  T
   2    -12.4603310 -0.289053E-02  0.661E-01    2.96       1.0  T
   3    -12.4607858 -0.454814E-03  0.205E-01    2.81       1.0  T
   4    -12.4607942 -0.835129E-05  0.119E-01    2.82       1.0  T
   5    -12.4608018 -0.767075E-05  0.784E-02    2.80       1.0  T
   6    -12.4608017  0.181080E-06  0.595E-02    2.82       1.0  T
   7    -12.4608059 -0.419892E-05  0.227E-02    2.81       1.8  T
   8    -12.4608063 -0.435102E-06  0.199E-03    2.81      20.5  T
   9    -12.4608063 -0.401674E-08  0.586E-04    2.81      69.6  T
  10    -12.4608063 -0.553877E-09  0.397E-05    2.81    1028.0  T
  11    -12.4608063 -0.278177E-11  0.784E-06    2.81    5206.9  T

   *** convergence criteria satisfied after 11 iterations ***

         #    Occupation            Energy/Eh            Energy/eV
      -------------------------------------------------------------
         1        2.0000           -0.5207062             -14.1691
       ...           ...                  ...                  ...
         5        2.0000           -0.3351230              -9.1192
         6        2.0000           -0.2748022              -7.4777
         7        2.0000           -0.2301367              -6.2623
         8        2.0000           -0.2301367              -6.2623
         9        2.0000           -0.2092252              -5.6933
        10        2.0000           -0.2072175              -5.6387
        11        2.0000           -0.2072175              -5.6387 (HOMO)
        12                         -0.1040528              -2.8314 (LUMO)
        13                          0.2447608               6.6603
        14                          0.2447611               6.6603
        15                          0.2523075               6.8656
        16                          0.2911795               7.9234
       ...                                ...                  ...
        20                          0.4331991              11.7879
      -------------------------------------------------------------
                  HL-Gap            0.1031647 Eh            2.8073 eV
             Fermi-level           -0.1556352 Eh           -4.2350 eV

 SCC (total)                   0 d,  0 h,  0 min,  0.099 sec
 SCC setup                      ...        0 min,  0.000 sec (  0.244%)
 Dispersion                     ...        0 min,  0.000 sec (  0.110%)
 classical contributions        ...        0 min,  0.000 sec (  0.128%)
 integral evaluation            ...        0 min,  0.051 sec ( 51.939%)
 iterations                     ...        0 min,  0.046 sec ( 46.783%)
 molecular gradient             ...        0 min,  0.001 sec (  0.616%)
 printout                       ...        0 min,  0.000 sec (  0.161%)

         :::::::::::::::::::::::::::::::::::::::::::::::::::::
         ::                     SUMMARY                     ::
         :::::::::::::::::::::::::::::::::::::::::::::::::::::
         :: total energy             -12.414743247622 Eh    ::
         :: gradient norm              0.063482339658 Eh/a0 ::
         :: HOMO-LUMO gap              2.807253874064 eV    ::
         ::.................................................::
         :: SCC energy               -12.460806620913 Eh    ::
         :: -> isotropic ES            0.160215164980 Eh    ::
         :: -> anisotropic ES          0.000859364568 Eh    ::
         :: -> anisotropic XC          0.003099629295 Eh    ::
         :: -> dispersion             -0.002469626543 Eh    ::
         :: repulsion energy           0.046063373292 Eh    ::
         :: add. restraining           0.000000000000 Eh    ::
         :: total charge              -1.000000000000 e     ::
         :::::::::::::::::::::::::::::::::::::::::::::::::::::


Property printout bound to 'properties.out'

           -------------------------------------------------
          | TOTAL ENERGY              -12.414743247622 Eh   |
          | GRADIENT NORM               0.063482339658 Eh/α |
          | HOMO-LUMO GAP               2.807253874064 eV   |
           -------------------------------------------------

------------------------------------------------------------------------
 * finished run on 2026/03/12 at 12:40:54.654     
------------------------------------------------------------------------
 total:
 * wall-time:     0 d,  0 h,  0 min,  0.141 sec
 *  cpu-time:     0 d,  0 h,  0 min,  0.469 sec
 * ratio c/w:     3.316 speedup
 SCF:
 * wall-time:     0 d,  0 h,  0 min,  0.099 sec
 *  cpu-time:     0 d,  0 h,  0 min,  0.385 sec
 * ratio c/w:     3.898 speedup


-------------------------   --------------------
FINAL SINGLE POINT ENERGY       -12.414743247620
-------------------------   --------------------


-------------
DIPOLE MOMENT
-------------
                                X             Y             Z
Total Dipole Moment    :      0.00000      -0.00000      -1.29300
                        -----------------------------------------
Magnitude (a.u.)       :      1.29300
Magnitude (Debye)      :      3.28654


------------------
CARTESIAN GRADIENT
------------------

   1   C   :    0.000000222   -0.000000092   -0.005901195
   2   H   :    0.000000002    0.015927002    0.021188647
   3   H   :    0.013793147   -0.007963554    0.021188516
   4   H   :   -0.013793325   -0.007963659    0.021188582
   5   I   :   -0.000000012    0.000000072   -0.018232722
   6   F   :   -0.000000033    0.000000230   -0.039431828

Difference to translation invariance:
           :    0.0000000000    0.0000000000   -0.0000000000

Difference to rotation invariance:
           :   -0.0000000016   -0.0000000002    0.0000000000

Norm of the Cartesian gradient     ...    0.0634823397
RMS gradient                       ...    0.0149629310
MAX gradient                       ...    0.0394318277
------------------------------------------------------------------------------
[...]
                  HL-Gap            0.0394897 Eh            1.0746 eV
             Fermi-level           -0.0978951 Eh           -2.6639 eV

 SCC (total)                   0 d,  0 h,  0 min,  0.068 sec
 SCC setup                      ...        0 min,  0.000 sec (  0.253%)
 Dispersion                     ...        0 min,  0.000 sec (  0.073%)
 classical contributions        ...        0 min,  0.000 sec (  0.042%)
 integral evaluation            ...        0 min,  0.066 sec ( 97.722%)
 iterations                     ...        0 min,  0.001 sec (  1.152%)
 molecular gradient             ...        0 min,  0.000 sec (  0.562%)
 printout                       ...        0 min,  0.000 sec (  0.166%)

         :::::::::::::::::::::::::::::::::::::::::::::::::::::
         ::                     SUMMARY                     ::
         :::::::::::::::::::::::::::::::::::::::::::::::::::::
         :: total energy             -12.415662571530 Eh    ::
         :: gradient norm              0.000000104499 Eh/a0 ::
         :: HOMO-LUMO gap              1.074568109269 eV    ::
         ::.................................................::
         :: SCC energy               -12.472847178708 Eh    ::
         :: -> isotropic ES            0.218606360215 Eh    ::
         :: -> anisotropic ES         -0.006829452421 Eh    ::
         :: -> anisotropic XC         -0.002758216790 Eh    ::
         :: -> dispersion             -0.002525783232 Eh    ::
         :: repulsion energy           0.057184607179 Eh    ::
         :: add. restraining           0.000000000000 Eh    ::
         :: total charge              -0.999999998177 e     ::
         :::::::::::::::::::::::::::::::::::::::::::::::::::::

           ------------------------------------------------- 
          |                Numerical Hessian                |
           ------------------------------------------------- 
step length          :   0.00500
SCC accuracy         :   0.30000
Hessian scale factor :   1.00000
frozen atoms in %    :   0.00000    0
RMS gradient         :   0.00000
estimated CPU  time      0.00 min
estimated wall time      0.00 min

writing file <hessian>.

 projected vibrational frequencies (cm⁻¹)
eigval :       -0.00    -0.00    -0.00     0.00     0.00     0.00
eigval :     -116.90   188.53   188.65   470.01   731.06   917.94
eigval :     1256.64  1412.91  1444.13  2893.16  3061.13  3069.69

Property printout bound to 'properties.out'
Molecule has the following symmetry elements: (sigma) 
It seems to be the Cs point group
imag cut-off (cm-1) :    5.00
 found            1  significant imaginary frequency
 writing imag mode distorted coords to xtbhess.xyz
 for further optimization.

           -------------------------------------------------
          | TOTAL ENERGY              -12.415662571530 Eh   |
          | TOTAL ENTHALPY            -12.374686399130 Eh   |
          | TOTAL FREE ENERGY         -12.409153150634 Eh   |
          | GRADIENT NORM               0.000000104139 Eh/α |
          | HOMO-LUMO GAP               1.074569998180 eV   |
           -------------------------------------------------

------------------------------------------------------------------------
 * finished run on 2026/03/12 at 12:41:00.189     
------------------------------------------------------------------------
 total:
 * wall-time:     0 d,  0 h,  0 min,  0.092 sec
 *  cpu-time:     0 d,  0 h,  0 min,  0.431 sec
 * ratio c/w:     4.702 speedup
 SCF:
 * wall-time:     0 d,  0 h,  0 min,  0.068 sec
 *  cpu-time:     0 d,  0 h,  0 min,  0.285 sec
 * ratio c/w:     4.185 speedup
 analytical hessian:
 * wall-time:     0 d,  0 h,  0 min,  0.010 sec
 *  cpu-time:     0 d,  0 h,  0 min,  0.082 sec
 * ratio c/w:     7.852 speedup


-------------------------   --------------------
FINAL SINGLE POINT ENERGY       -12.415662571530
-------------------------   --------------------


-------------
DIPOLE MOMENT
-------------
                                X             Y             Z
Total Dipole Moment    :     -0.00100      -1.54000       1.06200
                        -----------------------------------------
Magnitude (a.u.)       :      1.87068
Magnitude (Debye)      :      4.75489


-----------------------
VIBRATIONAL FREQUENCIES
-----------------------

Scaling factor for frequencies =  1.000000000  (already applied!)

     0:       0.00 cm**-1
     1:       0.00 cm**-1
     2:       0.00 cm**-1
     3:       0.00 cm**-1
     4:       0.00 cm**-1
     5:       0.00 cm**-1
     6:    -116.90 cm**-1  ***imaginary mode***
     7:     188.54 cm**-1
     8:     188.64 cm**-1
     9:     470.00 cm**-1
    10:     731.04 cm**-1
    11:     917.92 cm**-1
    12:    1256.60 cm**-1
    13:    1412.87 cm**-1
    14:    1444.09 cm**-1
    15:    2893.08 cm**-1
    16:    3061.05 cm**-1
    17:    3069.60 cm**-1


------------
NORMAL MODES
------------

These modes are the Cartesian displacements weighted by the diagonal matrix
M(i,i)=1/sqrt(m[i]) where m[i] is the mass of the displaced atom
Thus, these vectors are normalized but *not* orthogonal

                  0          1          2          3          4          5    
      0       0.000000   0.000000   0.000000   0.000000   0.000000   0.000000
      1       0.000000   0.000000   0.000000   0.000000   0.000000   0.000000
      2       0.000000   0.000000   0.000000   0.000000   0.000000   0.000000
      3       0.000000   0.000000   0.000000   0.000000   0.000000   0.000000
      4       0.000000   0.000000   0.000000   0.000000   0.000000   0.000000
      5       0.000000   0.000000   0.000000   0.000000   0.000000   0.000000
      6       0.000000   0.000000   0.000000   0.000000   0.000000   0.000000
      7       0.000000   0.000000   0.000000   0.000000   0.000000   0.000000
      8       0.000000   0.000000   0.000000   0.000000   0.000000   0.000000
      9       0.000000   0.000000   0.000000   0.000000   0.000000   0.000000
     10       0.000000   0.000000   0.000000   0.000000   0.000000   0.000000
     11       0.000000   0.000000   0.000000   0.000000   0.000000   0.000000
     12       0.000000   0.000000   0.000000   0.000000   0.000000   0.000000
     13       0.000000   0.000000   0.000000   0.000000   0.000000   0.000000
     14       0.000000   0.000000   0.000000   0.000000   0.000000   0.000000
     15       0.000000   0.000000   0.000000   0.000000   0.000000   0.000000
     16       0.000000   0.000000   0.000000   0.000000   0.000000   0.000000
     17       0.000000   0.000000   0.000000   0.000000   0.000000   0.000000
                  6          7          8          9         10         11    
      0       0.000181  -0.004802  -0.144846   0.000105  -0.000060  -0.099183
      1       0.357178   0.168671  -0.000408   0.212885  -0.112915   0.000053
      2      -0.123999  -0.018621   0.000048   0.583465   0.041754  -0.000007
      3       0.000276  -0.022153  -0.661405  -0.000029   0.000223   0.306254
      4       0.561520   0.318309  -0.000557   0.018675   0.417700  -0.000174
      5       0.182917   0.193032  -0.000541   0.286321   0.793527  -0.000031
      6       0.005761   0.003565   0.142062  -0.031771   0.040437   0.160302
      7       0.409874   0.213922   0.466203   0.169210   0.054880   0.213427
      8      -0.265201  -0.153613  -0.175364   0.481623  -0.293028   0.613941
      9      -0.005331   0.006212   0.141565   0.031984  -0.040380   0.160064
     10       0.409854   0.182400  -0.467489   0.169114   0.054921  -0.213601
     11      -0.265184  -0.141729   0.176192   0.481540  -0.293082  -0.613945
     12      -0.000011   0.000259   0.007744  -0.000011   0.000003   0.004696
     13      -0.021318  -0.002318   0.000003  -0.021798   0.004962  -0.000002
     14       0.025999  -0.120705   0.000341  -0.054211  -0.003775   0.000001
     15      -0.000081   0.001962   0.059896  -0.000002   0.000005  -0.001911
     16      -0.156708  -0.129073   0.000335  -0.007933   0.010254   0.000000
     17      -0.076836   0.823469  -0.002326  -0.073064  -0.012185   0.000002
                 12         13         14         15         16         17    
      0       0.000002  -0.067850  -0.000038   0.000030  -0.000034  -0.091956
      1       0.007970   0.000032  -0.076787   0.057623  -0.065556   0.000047
      2       0.101251   0.000001   0.008316  -0.044757  -0.008225   0.000001
      3      -0.000118   0.763067  -0.000106  -0.000423   0.000028  -0.043110
      4      -0.276030  -0.000383  -0.153998  -0.820307   0.056769   0.000022
      5      -0.352672   0.000017  -0.156411   0.552664  -0.064284   0.000001
      6      -0.094008   0.089454   0.396328  -0.065730  -0.595895   0.568270
      7      -0.000062   0.253190   0.561614   0.061903   0.363613  -0.405785
      8      -0.621076  -0.366670   0.020740  -0.003820   0.082778  -0.085049
      9       0.094000   0.089166  -0.395741   0.065793   0.596258   0.568720
     10      -0.000185  -0.253247   0.562046   0.061831   0.362973   0.405199
     11      -0.621040   0.366717   0.020729  -0.003818   0.082759   0.085038
     12       0.000001  -0.000746  -0.000000  -0.000000   0.000000  -0.000020
     13       0.001628   0.000000  -0.000380  -0.000090  -0.000029   0.000000
     14       0.002891  -0.000000  -0.000049  -0.000128  -0.000050  -0.000000
     15      -0.000001  -0.002086  -0.000000   0.000001   0.000000   0.000232
     16      -0.001258   0.000001  -0.000361   0.001131   0.000077  -0.000000
     17       0.001295  -0.000001   0.001170   0.000234   0.000165  -0.000000


The first frequency considered to be a vibration is 7
The total number of vibrations considered is 11


--------------------------
THERMOCHEMISTRY AT 298.15K
--------------------------

Temperature         ...   298.15 K
Pressure            ...     1.00 atm
Total Mass          ...   160.93 AMU
Quasi RRHO          ...     True
Cut-Off Frequency   ...     1.00 cm^-1

Throughout the following assumptions are being made:
  (1) The electronic state is orbitally nondegenerate
  (2) There are no thermally accessible electronically excited states
  (3) Hindered rotations indicated by low frequency modes are not
      treated as such but are treated as vibrations and this may
      cause some error
  (4) All equations used are the standard statistical mechanics
      equations for an ideal gas
  (5) All vibrations are strictly harmonic

freq.     188.54  E(vib)   ...       0.36 
freq.     188.64  E(vib)   ...       0.36 
freq.     470.00  E(vib)   ...       0.16 
freq.     731.04  E(vib)   ...       0.06 
freq.     917.92  E(vib)   ...       0.03 
freq.    1256.60  E(vib)   ...       0.01 
freq.    1412.87  E(vib)   ...       0.00 
freq.    1444.09  E(vib)   ...       0.00 
freq.    2893.08  E(vib)   ...       0.00 
freq.    3061.05  E(vib)   ...       0.00 
freq.    3069.60  E(vib)   ...       0.00 

------------
INNER ENERGY
------------

The inner energy is: U= E(el) + E(ZPE) + E(vib) + E(rot) + E(trans)
    E(el)   - is the total energy from the electronic structure calculation
              = E(kin-el) + E(nuc-el) + E(el-el) + E(nuc-nuc)
    E(ZPE)  - the the zero temperature vibrational energy from the frequency calculation
    E(vib)  - the the finite temperature correction to E(ZPE) due to population
              of excited vibrational states
    E(rot)  - is the rotational thermal energy
    E(trans)- is the translational thermal energy

Summary of contributions to the inner energy U:
Electronic energy                ...    -12.41566257 Eh
Zero point energy                ...      0.03561557 Eh      22.35 kcal/mol
Thermal vibrational correction   ...      0.00158286 Eh       0.99 kcal/mol
Thermal rotational correction    ...      0.00141627 Eh       0.89 kcal/mol
Thermal translational correction ...      0.00141627 Eh       0.89 kcal/mol
-----------------------------------------------------------------------
Total thermal energy                    -12.37563160 Eh


Summary of corrections to the electronic energy:
(perhaps to be used in another calculation)
Total thermal correction                  0.00441540 Eh       2.77 kcal/mol
Non-thermal (ZPE) correction              0.03561557 Eh      22.35 kcal/mol
-----------------------------------------------------------------------
Total correction                          0.04003097 Eh      25.12 kcal/mol


--------
ENTHALPY
--------

The enthalpy is H = U + kB*T
                kB is Boltzmann's constant
Total thermal energy              ...    -12.37563160 Eh 
Thermal Enthalpy correction       ...      0.00094421 Eh       0.59 kcal/mol
-----------------------------------------------------------------------
Total Enthalpy                    ...    -12.37468739 Eh


WARNING (ORCA/SYM): The number of Z matrix atoms does not agree with
the number of centers in the basis set. The point group will therefore
be determined without considering basis set information.


Note: Rotational entropy computed according to Herzberg 
Infrared and Raman Spectra, Chapter V,1, Van Nostrand Reinhold, 1945 
Point Group:  Cs, Symmetry Number:   1  
Rotational constants in cm-1:     1.695121     0.043587     0.042837 

Vibrational entropy computed according to the QRRHO of S. Grimme
Chem.Eur.J. 2012 18 9955 using a reference frequency of 100.0 cm-1


-------
ENTROPY
-------

The entropy contributions are T*S = T*(S(el)+S(vib)+S(rot)+S(trans))
     S(el)   - electronic entropy
     S(vib)  - vibrational entropy
     S(rot)  - rotational entropy
     S(trans)- translational entropy
The entropies will be listed as multiplied by the temperature to get
units of energy

Electronic entropy                ...      0.00000000 Eh      0.00 kcal/mol
Vibrational entropy               ...      0.00270162 Eh      1.70 kcal/mol
Rotational entropy                ...      0.01222797 Eh      7.67 kcal/mol
Translational entropy             ...      0.01954513 Eh     12.26 kcal/mol
-----------------------------------------------------------------------
Final entropy term                ...      0.03447472 Eh     21.63 kcal/mol

In case the symmetry of your molecule has not been determined correctly
or in case you have a reason to use a different symmetry number we print 
out the resulting rotational entropy values for sn=1,12:

 non-linear molecules -----------------------------------
|  sn= 1 | S(rot)=       0.01222797 Eh      7.67 kcal/mol|
|  sn= 2 | S(rot)=       0.01157351 Eh      7.26 kcal/mol|
|  sn= 3 | S(rot)=       0.01119068 Eh      7.02 kcal/mol|
|  sn= 4 | S(rot)=       0.01091905 Eh      6.85 kcal/mol|
|  sn= 5 | S(rot)=       0.01070836 Eh      6.72 kcal/mol|
|  sn= 6 | S(rot)=       0.01053622 Eh      6.61 kcal/mol|
|  sn= 7 | S(rot)=       0.01039067 Eh      6.52 kcal/mol|
|  sn= 8 | S(rot)=       0.01026460 Eh      6.44 kcal/mol|
|  sn= 9 | S(rot)=       0.01015339 Eh      6.37 kcal/mol|
|  sn=10 | S(rot)=       0.01005391 Eh      6.31 kcal/mol|
|  sn=11 | S(rot)=       0.00996392 Eh      6.25 kcal/mol|
|  sn=12 | S(rot)=       0.00988176 Eh      6.20 kcal/mol|
 linear molecules ---------------------------------------
|  Dinfh | S(rot)=       0.00830030 Eh      5.21 kcal/mol|
|  Cinfv | S(rot)=       0.00895476 Eh      5.62 kcal/mol|
 --------------------------------------------------------


-------------------
GIBBS FREE ENERGY
-------------------

The Gibbs free energy is G = H - T*S

Total enthalpy                    ...    -12.37468739 Eh 
Total entropy correction          ...     -0.03447472 Eh    -21.63 kcal/mol
-----------------------------------------------------------------------
Final Gibbs free energy         ...    -12.40916211 Eh

For completeness - the Gibbs free energy minus the electronic energy
G-E(el)                           ...      0.00650046 Eh      4.08 kcal/mol


--------------------------------
SUGGESTED CITATIONS FOR THIS RUN
--------------------------------

Below you find a list of papers that are relevant to this ORCA run
We neither can nor want to force you to cite these papers, but we appreciate if you do
You receive ORCA, which is the product of decades of hard work by many enthusiastic individuals, for free
The only thing we kindly ask in return is that you cite our papers,
We deeply appreciate it, if you show your appreciation for ORCA by not just citing the generic ORCA reference.

Please note that relegating all ORCA citations to the supporting information does *not* help us.
SI sections are not indexed - citations you put there will not count into any citation statistics
But we need these citations in order to attract the funding resources that allow us to do what we are doing

Therefore, if you are a happy ORCA user, please consider citing a few of the papers listed below in the main body of your paper

In addition to the list printed below, the program has created the file sn2_i_f.bibtex that contains the list in bibtex format
You can import this file easily into all common literature databanks and citation aid programs


List of essential papers. We consider these as the minimum necessary citations

  1. Bannwarth, C.; Ehlert, S.; Grimme, S.
     GFN2-xTB—An Accurate and Broadly Parametrized Self-Consistent Tight-Binding Quantum Chemical Method with Multipole Electrostatics and Density-Dependent Dispersion Contributions
     J. Chem. Theory Comput. 2019 15(3), 1652-1671
     doi.org/10.1021/acs.jctc.8b01176
  2. Neese, F.
     Software update: the ORCA program system, version 6.0
     WIRES Comput. Molec. Sci. 2025 15(1), e70019
     doi.org/10.1002/wcms.7019

List of papers to cite with high priority. The work reported in these papers was absolutely
necessary for this run to complete.
Our perspective: the developers of density functionals and basis sets usually get cited in chemistry papers
Good! But without the algorithms to do something with them, the functionals or basis sets would not do anything.
Hence, in our opinion, the algorithm design and method developments papers are equally worthy of getting cited

  1. Bykov, D.; Petrenko, T.; Izsak, R.; Kossmann, S.; Becker, U.; Valeev, E.; Neese, F.
     Efficient implementation of the analytic second derivatives of Hartree-Fock and hybrid DFT energies: a detailed analysis of different approximations
     Molec. Phys. 2015 113 , 1961-1977
     doi.org/10.1080/00268976.2015.1025114
  2. Bannwarth, C.; Caldeweyher, E.; Ehlert, S.; Hansen, A.; Pracht, P.; Seibert, J.; Spicher, S.; Grimme, S.
     Extended tight-binding quantum chemistry methods
     WIRES Comput. Molec. Sci. 2020 11(2), e1493
     doi.org/10.1002/wcms.1493

List of suggested additional citations. These are papers that are important in the 'surrounding' of 
of this run, or papers that preceded the highly important papers. If you like your results we are grateful for a citation.

  1. Neese, F.
     The ORCA program system
     WIRES Comput. Molec. Sci. 2012 2(1), 73-78
     doi.org/10.1002/wcms.81
  2. Neese, F.
     Software update: the ORCA program system, version 4.0
     WIRES Comput. Molec. Sci. 2018 8(1), 1-6
     doi.org/10.1002/wcms.1327
  3. Neese, F.; Wennmohs, F.; Becker, U.; Riplinger, C.
     The ORCA quantum chemistry program package
     J. Chem. Phys. 2020 152(22), 224108
     doi.org/10.1063/5.0004608
  4. Neese, F.
     Software update: The ORCA program system—Version 5.0
     WIRES Comput. Molec. Sci. 2022 12(1), e1606
     doi.org/10.1002/wcms.1606

List of optional additional citations

  1. Neese, F.
     Approximate second-order SCF convergence for spin unrestricted wavefunctions
     Chem. Phys. Lett. 2000 325(1-3), 93-98
     doi.org/10.1016/s0009-2614(00)00662-x

Timings for individual modules:

Sum of individual times          ...        5.490 sec (=   0.091 min)
Geometry relaxation              ...        0.112 sec (=   0.002 min)   2.0 %
XTB module                       ...        5.377 sec (=   0.090 min)  98.0 %
                             ****ORCA TERMINATED NORMALLY****
TOTAL RUN TIME: 0 days 0 hours 0 minutes 6 seconds 990 msec
