
                                 *****************
                                 * O   R   C   A *
                                 *****************

                                            #,                                       
                                            ###                                      
                                            ####                                     
                                            #####                                    
                                            ######                                   
                                           ########,                                 
                                     ,,################,,,,,                         
                               ,,#################################,,                 
                          ,,##########################################,,             
                       ,#########################################, ''#####,          
                    ,#############################################,,   '####,        
                  ,##################################################,,,,####,       
                ,###########''''           ''''###############################       
              ,#####''   ,,,,##########,,,,          '''####'''          '####       
            ,##' ,,,,###########################,,,                        '##       
           ' ,,###''''                  '''############,,,                           
         ,,##''                                '''############,,,,        ,,,,,,###''
      ,#''                                            '''#######################'''  
     '                                                          ''''####''''         
             ,#######,   #######,   ,#######,      ##                                
            ,#'     '#,  ##    ##  ,#'     '#,    #''#        ,####,    ,#,          
            ##       ##  ##   ,#'  ##            #'  '#       #'       ,# #          
            ##       ##  #######   ##           ,######,      #####,      #          
            '#,     ,#'  ##    ##  '#,     ,#' ,#      #,     #,   #      #          
             '#######'   ##     ##  '#######'  #'      '#     '####' #    #          



                #########################################################
                #                        -***-                          #
                #          Department of theory and spectroscopy        #
                #                                                       #
                #                      Frank Neese                      #
                #                                                       #
                #     Directorship, Architecture, Infrastructure        #
                #                    SHARK, DRIVERS                     #
                #        Core code/Algorithms in most modules           #
                #                                                       #
                #        Max Planck Institute fuer Kohlenforschung      #
                #                Kaiser Wilhelm Platz 1                 #
                #                 D-45470 Muelheim/Ruhr                 #
                #                      Germany                          #
                #                                                       #
                #                  All rights reserved                  #
                #                        -***-                          #
                #########################################################


                         Program Version 6.1.0  -  RELEASE   -
                                (GIT: $679e74b$)
                          ($2025-06-10 18:02:51 +0200$)


 With contributions from (in alphabetic order):
[Max-Planck-Institut fuer Kohlenforschung]                               
  Daniel Aravena         : Magnetic Suceptibility                        
  Michael Atanasov       : Ab Initio Ligand Field Theory (pilot matlab implementation)
  Alexander A. Auer      : GIAO ZORA, VPT2 properties, NMR spectrum      
  Ute Becker             : All parallelization in ORCA, NUMFREQ, NUMCALC 
  Giovanni Bistoni       : ED, misc. LED, open-shell LED, HFLD           
  Dmytro Bykov           : pre 5.0 version of the SCF Hessian            
  Marcos Casanova-Páez   : Triplet and SCS-CIS(D). UHF-(DLPNO)-IP/EA/STEOM-CCSD. UHF-CVS-IP/STEOM-CCSD   
  Vijay G. Chilkuri      : MRCI spin determinant printing, contributions to CSF-ICE 
  Pauline Colinet        : FMM embedding                                 
  Dipayan Datta          : RHF DLPNO-CCSD density                        
  Achintya Kumar Dutta   : EOM-CC, STEOM-CC                              
  Nicolas Foglia         : Exact transition moments, OPA infrastructure, MCD improvements    
  Dmitry Ganyushin       : Spin-Orbit,Spin-Spin,Magnetic field MRCI      
  Miquel Garcia-Rates    : C-PCM and meta-GGA Hessian, CCSD/C-PCM, Gaussian charge scheme 
  Tiago L. C. Gouveia    : GS-ROHF, GS-ROCIS                             
  Yang Guo               : DLPNO-NEVPT2, F12-NEVPT2, CIM, IAO-localization        
  Andreas Hansen         : Spin unrestricted coupled pair/coupled cluster methods 
  Ingolf Harden          : AUTO-CI MPn and infrastructure                
  Benjamin Helmich-Paris : MC-RPA, TRAH-(SCF,CASSCF), AVAS, COSX integrals, SCF dyn. polar., MC-PDFT, srDFT 
  Lee Huntington         : MR-EOM, pCC                                   
  Robert Izsak           : Overlap fitted RIJCOSX, COSX-SCS-MP3, EOM     
  Riya Kayal             : Wick's Theorem for AUTO-CI, AUTO-CI UHF-CCSDT 
  Emily Kempfer          : AUTO-CI RHF CISDT and CCSDT, approximate NEVPT4
  Christian Kollmar      : KDIIS, OOCD, Brueckner-CCSD(T), CCSD density, CASPT2, CASPT2-K, improved NEVPT2 
  Axel Koslowski         : Symmetry handling                             
  Simone Kossmann        : meta-GGA functionals, TD-DFT gradient, OOMP2, (MP2 Hessian; deprecated post 5.0) 
  Lucas Lang             : DCDCAS, Hyperfine gauge corrections, ICE-SOC+SSC
  Marvin Lechner         : AUTO-CI (C++ implementation), FIC-MRCC        
  Spencer Leger          : CASSCF response                               
  Dagmar Lenk            : GEPOL surface, SMD, ORCA-2-JSON               
  Dimitrios Liakos       : Extrapolation schemes; Compound Job, Property file
  Dimitrios Manganas     : Further ROCIS development; embedding schemes. LFT, Crystal Embedding 
  Dimitrios Pantazis     : SARC Basis sets                               
  Anastasios Papadopoulos: AUTO-CI, single reference methods and gradients 
  Taras Petrenko         : pre 6.0 DFT Hessian and TD-DFT gradient,  ECA, NRVS 
  Petra Pikulova         : Analytic Raman intensities                    
  Peter Pinski           : DLPNO-MP2, DLPNO-MP2 Gradient                 
  Shashank Vittal Rao    : ES-AILFT, MagRelax                            
  Christoph Reimann      : Effective Core Potentials                     
  Marius Retegan         : Local ZFS, SOC                                
  Christoph Riplinger    : Optimizer, TS searches, QM/MM, DLPNO-CCSD(T), (RO)-DLPNO pert. Triples 
  Michael Roemelt        : Original ROCIS implementation, recursive CI coupling coefficients
  Masaaki Saitow         : Open-shell DLPNO-CCSD energy and density      
  Barbara Sandhoefer     : DKH picture change effects                    
  Yorick L. A. Schmerwitz: GMF and freeze-and-release deltaSCF, NEB S-IDPP initial path                    
  Kantharuban Sivalingam : CASSCF convergence/infrastructure, NEVPT2, NEVPT3, NEVPT4(SD), FIC-MRCI and CEPA variants
  Bernardo de Souza      : ESD, SOC TD-DFT                               
  Georgi L. Stoychev     : AutoAux, RI-MP2 NMR, DLPNO-MP2 response, X2C  
  Van Anh Tran           : RI-MP2 g-tensors                              
  Willem Van den Heuvel  : Paramagnetic NMR                              
  Zikuan Wang            : NOTCH, Electric field optimization            
  Frank Wennmohs         : Technical directorship and infrastructure     
  Hang Xu                : AUTO-CI-Response properties                   
                                                                         
[FACCTs GmbH]                                                            
  Markus Bursch, Nicolas Foglia, Miquel Garcia-Rates, Ingolf Harden, Hagen Neugebauer, Anastasios Papadopoulos, 
  Christoph Riplinger, Bernardo de Souza, Georgi L. Stoychev                                                    
                                                                 
  APM, various basis sets, CI-OPT, improved COSX, DLPNO-Multilevel,           
  DOCKER, DRACO, updates on ESD, Fragmentator, GOAT, IRC, LR-CPCM, L-BFGS, MBIS, meta-GGA TD-DFT gradient, ML-optimized integration grids, 
  MM, NACMEs, nearIR, NEB, NEB-TS, NL-DFT gradient (VV10), 2- and 3-layer-ONIOM, interface openCOSMO-RS, QMMM,   
  Crystal-QMMM, RESP, rigid body optimization, SF, symmetry and pop. for TD-DFT, various functionals, SOLVATOR                                   
                                                                         
[Other institutions]                                                     
  V. Asgeirsson          : NEB                                           
  Christoph Bannwarth    : sTDA-DFT, sTD-DFT, PBEh-3c, B97-3c, D3        
  Giovanni Bistoni       : ETS/NOCV, ADLD/ADEX, COVALED                  
  Martin Brehm           : Molecular dynamics                            
  Ronald Cardenas        : ETS/NOCV                                      
  Martina Colucci        : COVALED                                       
  Sebastian Ehlert       : rSCAN, r2SCAN, r2SCAN-3c, D4, dhf basis sets  
  Marvin Friede          : D4 for Fr, Ra, Ac-Lr                          
  Lars Goerigk           : TD-DFT with DH, B97 family of functionals     
  Stefan Grimme          : VdW corrections, initial TS optimization, DFT functionals, gCP, sTDA/sTD-DF 
  Waldemar Hujo          : DFT-NL                                        
  H. Jonsson             : NEB                                           
  Holger Kruse           : gCP                                           
  Marcel Mueller         : wB97X-3c, vDZP basis set                      
  Hagen Neugebauer       : wr2SCAN, Native XTB                           
  Gianluca Regni         : ADLD/ADEX                                     
  Tobias Risthaus        : pre 6.0 range-separated hybrid DFT and stability analysis
  Lukas Wittmann         : regularized MP2, r2SCAN double-hybrids, wr2SCAN        
                                                                         
We gratefully acknowledge several colleagues who have allowed us to      
interface, adapt or use parts of their codes:                            
  Ed Valeev, F. Pavosevic, A. Kumar             : LibInt (2-el integral package), F12 methods 
  Garnet Chan, S. Sharma, J. Yang, R. Olivares  : DMRG                   
  Ulf Ekstrom                                   : XCFun DFT Library      
  Mihaly Kallay                                 : mrcc  (arbitrary order and MRCC methods)
  Frank Weinhold                                : gennbo (NPA and NBO analysis)           
  Simon Mueller                                 : openCOSMO-RS                            
  Christopher J. Cramer and Donald G. Truhlar   : smd solvation model                     
  S Lehtola, MJT Oliveira, MAL Marques          : LibXC Library                           
  Liviu Ungur et al                             : ANISO software                          


 Your calculation uses the libint2 library for the computation of 2-el integrals
 For citations please refer to: http://libint.valeyev.net

 Your ORCA version has been built with support for libXC version: 7.0.0
 For citations please refer to: https://libxc.gitlab.io

 This ORCA versions uses:
   CBLAS   interface :  Fast vector & matrix operations
   LAPACKE interface :  Fast linear algebra routines
   SCALAPACK package :  Parallel linear algebra routines
   Shared memory     :  Shared parallel matrices
   BLAS/LAPACK       :  OpenBLAS 0.3.29  USE64BITINT DYNAMIC_ARCH NO_AFFINITY SkylakeX SINGLE_THREADED
        Core in use  :  SkylakeX
   Copyright (c) 2011-2014, The OpenBLAS Project


  ***********************************
  * Starting time: Mon Mar 16 14:16:56 2026
  * Host name:     midway3-login4.rcc.local
  * Process ID:    81524
  * Working dir.:  /home/rzhu16/evans-polanyi-principle-validation/runs/sn2_cl_br/geo_opt_reactant_product
  ***********************************

Your calculation utilizes the semiempirical GFN2-xTB method
Please cite in your paper:
Bannwarth, C.; Ehlert S.; Grimme, S. J. Chem. Theory Comput. 2019, 15, 1652.
   

================================================================================

================================================================================
                                        WARNINGS
                       Please study these warnings very carefully!
================================================================================


WARNING: Analytical Hessian for XTB is limited in the analysis of the data.
       : If you want to obtain extensive IR and deltaG analysis, please use ! XTB NumFreq. 


WARNING: Geometry Optimization
  ===> : Switching off AutoStart
         For restart on a previous wavefunction, please use MOREAD

WARNING: Found dipole moment calculation with XTB calculation
  ===> : Switching off dipole moment calculation


WARNING: Found frequency calculation in combination with XTB calculation
  ===> : Need to redirect dipole moment calculation to properties.out


================================================================================
                                       INPUT FILE
================================================================================
NAME = product_optfreq.inp
|  1> ! XTB2 Opt Freq PAL8
|  2> 
|  3> %geom
|  4>   MaxIter 500
|  5> end
|  6> 
|  7> * xyz -1 1
|  8>   C      -0.000305      0.000088      0.396799
|  9>   H       0.000012      1.027593      0.054592
| 10>   H       0.890123     -0.513905      0.054513
| 11>   H      -0.889842     -0.513757      0.054617
| 12>   Cl      0.000015     -0.000002      2.178518
| 13>   Br     -0.000002      0.000001     -2.664652
| 14> *
| 15> 
| 16>                          ****END OF INPUT****
================================================================================

                       *****************************
                       * Geometry Optimization Run *
                       *****************************

Geometry optimization settings:
Update method            Update   .... BFGS
Choice of coordinates    CoordSys .... (2022) Redundant Internals
Initial Hessian          InHess   .... Almloef's Model
Max. no of cycles        MaxIter  .... 500

Convergence Tolerances:
Energy Change            TolE     ....  5.0000e-06 Eh
Max. Gradient            TolMAXG  ....  3.0000e-04 Eh/bohr
RMS Gradient             TolRMSG  ....  1.0000e-04 Eh/bohr
Max. Displacement        TolMAXD  ....  4.0000e-03 bohr
RMS Displacement         TolRMSD  ....  2.0000e-03 bohr
Strict Convergence                .... False

------------------------------------------------------------------------------
                        ORCA OPTIMIZATION COORDINATE SETUP
------------------------------------------------------------------------------

The optimization will be done in redundant internal coordinates (2022)
Making redundant internal coordinates   ...  (2022 redundants) done
Evaluating the initial hessian          ...  (Almloef) done
Evaluating the coordinates              ...  done
Calculating the B-matrix                .... done
Calculating the G-matrix                .... done
The number of degrees of freedom        ....   17

    -----------------------------------------------------------------
                    Redundant Internal Coordinates


    -----------------------------------------------------------------
         Definition                    Initial Value    Approx d2E/dq
    -----------------------------------------------------------------
      1. B(H   1,C   0)                  1.0830         0.369491   
      2. B(H   2,C   0)                  1.0836         0.368653   
      3. B(H   3,C   0)                  1.0828         0.369786   
      4. B(Cl  4,C   0)                  1.7817         0.332485   
      5. B(Br  5,H   1)                  2.9069         0.010000   
      6. B(Br  5,H   2)                  2.9069         0.010000   
      7. B(Br  5,H   3)                  2.9069         0.010000   
      8. B(Br  5,C   0)                  3.0615         0.010000   
      9. A(H   1,C   0,H   3)          110.5259         0.293242   
     10. A(H   2,C   0,H   3)          110.4964         0.293137   
     11. A(H   1,C   0,Cl  4)          108.4230         0.332832   
     12. A(H   2,C   0,Cl  4)          108.4033         0.332706   
     13. A(H   3,C   0,Cl  4)          108.4301         0.332876   
     14. A(H   1,C   0,Br  5)           71.5815         0.183569   
     15. A(H   2,C   0,Br  5)           71.5806         0.183521   
     16. A(H   3,C   0,Br  5)           71.5815         0.183586   
     17. A(H   1,C   0,H   2)          110.4861         0.293100   
    -----------------------------------------------------------------

Number of atoms                         .... 6
Number of degrees of freedom            .... 17


         *************************************************************
         *                GEOMETRY OPTIMIZATION CYCLE   1            *
         *************************************************************
---------------------------------
CARTESIAN COORDINATES (ANGSTROEM)
---------------------------------
  C    -0.000305    0.000088    0.396799
  H     0.000012    1.027593    0.054592
  H     0.890123   -0.513905    0.054513
  H    -0.889842   -0.513757    0.054617
  Cl    0.000015   -0.000002    2.178518
  Br   -0.000002    0.000001   -2.664652

----------------------------
CARTESIAN COORDINATES (A.U.)
----------------------------
  NO LB    ZA    FRAG    MASS        X           Y           Z
   0 C   6.0000    0    12.011   -0.000576    0.000166    0.749841
   1 H   1.0000    0     1.008    0.000023    1.941869    0.103164
   2 H   1.0000    0     1.008    1.682089   -0.971140    0.103015
   3 H   1.0000    0     1.008   -1.681558   -0.970860    0.103211
   4 Cl 17.0000    0    35.453    0.000028   -0.000004    4.116802
   5 Br 35.0000    0    79.900   -0.000004    0.000002   -5.035463

      -----------------------------------------------------------      
     |                   =====================                   |     
     |                           x T B                           |     
     |                   =====================                   |     
     |                         S. Grimme                         |     
     |          Mulliken Center for Theoretical Chemistry        |     
     |                    University of Bonn                     |     
      -----------------------------------------------------------      

   * xtb version 6.7.1 (edcfbbe) compiled by 'albert@albert-system' on 2024-07-22

   xtb is free software: you can redistribute it and/or modify it under
   the terms of the GNU Lesser General Public License as published by
   the Free Software Foundation, either version 3 of the License, or
   (at your option) any later version.
   
   xtb is distributed in the hope that it will be useful,
   but WITHOUT ANY WARRANTY; without even the implied warranty of
   MERCHANTABILITY or FITNESS FOR A PARTICULAR PURPOSE.  See the
   GNU Lesser General Public License for more details.
   
   Cite this work as:
   * C. Bannwarth, E. Caldeweyher, S. Ehlert, A. Hansen, P. Pracht,
     J. Seibert, S. Spicher, S. Grimme, WIREs Comput. Mol. Sci., 2020, 11,
     e01493. DOI: 10.1002/wcms.1493
   
   for GFN2-xTB:
   * C. Bannwarth, S. Ehlert and S. Grimme., J. Chem. Theory Comput., 2019,
     15, 1652-1671. DOI: 10.1021/acs.jctc.8b01176
   for GFN1-xTB:
   * S. Grimme, C. Bannwarth, P. Shushkov, J. Chem. Theory Comput., 2017,
     13, 1989-2009. DOI: 10.1021/acs.jctc.7b00118
   for GFN0-xTB:
   * P. Pracht, E. Caldeweyher, S. Ehlert, S. Grimme, ChemRxiv, 2019, preprint.
     DOI: 10.26434/chemrxiv.8326202.v1
   for GFN-FF:
   * S. Spicher and S. Grimme, Angew. Chem. Int. Ed., 2020, 59, 15665-15673.
     DOI: 10.1002/anie.202004239
   
   for ALPB and GBSA implicit solvation:
   * S. Ehlert, M. Stahn, S. Spicher, S. Grimme, J. Chem. Theory Comput.,
     2021, 17, 4250-4261. DOI: 10.1021/acs.jctc.1c00471
   
   for ddCOSMO and CPCM-X implicit solvation:
   * M. Stahn, S. Ehlert, S. Grimme, J. Phys. Chem. A,
     2023, XX, XXXX-XXXX. DOI: 10.1021/acs.jpca.3c04382
   
   for DFT-D4:
   * E. Caldeweyher, C. Bannwarth and S. Grimme, J. Chem. Phys., 2017,
     147, 034112. DOI: 10.1063/1.4993215
   * E. Caldeweyher, S. Ehlert, A. Hansen, H. Neugebauer, S. Spicher,
     C. Bannwarth and S. Grimme, J. Chem. Phys., 2019, 150, 154122.
     DOI: 10.1063/1.5090222
   * E. Caldeweyher, J.-M. Mewes, S. Ehlert and S. Grimme, Phys. Chem. Chem. Phys.
     2020, 22, 8499-8512. DOI: 10.1039/D0CP00502A
   
   for sTDA-xTB:
   * S. Grimme and C. Bannwarth, J. Chem. Phys., 2016, 145, 054103.
     DOI: 10.1063/1.4959605
   
   in the mass-spec context:
   * V. Asgeirsson, C. Bauer and S. Grimme, Chem. Sci., 2017, 8, 4879.
     DOI: 10.1039/c7sc00601b
   * J. Koopman and S. Grimme, ACS Omega 2019, 4, 12, 15120-15133.
     DOI: 10.1021/acsomega.9b02011
   
   for metadynamics refer to:
   * S. Grimme, J. Chem. Theory Comput., 2019, 155, 2847-2862
     DOI: 10.1021/acs.jctc.9b00143
   
   for SPH calculations refer to:
   * S. Spicher and S. Grimme, J. Chem. Theory Comput., 2021, 17, 1701-1714
     DOI: 10.1021/acs.jctc.0c01306
   
   for ONIOM refer to:
   * C. Plett, A. Katbashev, S. Ehlert, S. Grimme, M. Bursch,
     Phys. Chem. Chem. Phys., 2023, 25, 17860-17868. DOI: 10.1039/D3CP02178E
   
   for DIPRO refer to:
   * J. Kohn, N. Gildemeister, S. Grimme, D. Fazzi, A. Hansen,
     J. Chem. Phys., 2023, just accepted.
   
   for PTB refer to:
   * S. Grimme, M. Mueller, A. Hansen, J. Chem. Phys., 2023, 158, 124111.
     DOI: 10.1063/5.0137838
   
   with help from (in alphabetical order)
   P. Atkinson, C. Bannwarth, F. Bohle, G. Brandenburg, E. Caldeweyher
   M. Checinski, S. Dohm, S. Ehlert, S. Ehrlich, I. Gerasimov, C. Hölzer
   A. Katbashev, J. Kohn, J. Koopman, C. Lavigne, S. Lehtola, F. März, M. Müller,
   F. Musil, H. Neugebauer, J. Pisarek, C. Plett, P. Pracht, F. Pultar,
   J. Seibert, P. Shushkov, S. Spicher, M. Stahn, M. Steiner, T. Strunk,
   J. Stückrath, T. Rose, and J. Unsleber
   
 * started run on 2026/03/16 at 14:16:57.580     
   ID    Z sym.   atoms
    1    6 C      1
    2    1 H      2-4
    3   17 Cl     5
    4   35 Br     6

           -------------------------------------------------
          |                Calculation Setup                |
           -------------------------------------------------

          program call               : /software/orca-6.1.0-el8-x86_64/bin/otool_xtb product_optfreq_XTB.xyz --grad -c -1 -u 0 -P 8 --namespace product_optfreq --input product_optfreq_XTB.input.tmp --acc 0.200000
          hostname                   : midway3-login4.rcc.local
          calculation namespace      : product_optfreq
          coordinate file            : product_optfreq_XTB.xyz
          omp threads                :                     8


molecular fragmentation (1/2 indicates fragments):
111112
# atoms in fragment 1/2:     5     1
 fragment masses (1/2) :       50.49       79.90
CMA distance (Bohr)    :   8.111
constraining FC (au)   :  0.0500

           -------------------------------------------------
          |                 G F N 2 - x T B                 |
           -------------------------------------------------

        Reference                      10.1021/acs.jctc.8b01176
      * Hamiltonian:
        H0-scaling (s, p, d)           1.850000    2.230000    2.230000
        zeta-weighting                 0.500000
      * Dispersion:
        s8                             2.700000
        a1                             0.520000
        a2                             5.000000
        s9                             5.000000
      * Repulsion:
        kExp                           1.500000    1.000000
        rExp                           1.000000
      * Coulomb:
        alpha                          2.000000
        third order                    shell-resolved
        anisotropic                    true
        a3                             3.000000
        a5                             4.000000
        cn-shift                       1.200000
        cn-exp                         4.000000
        max-rad                        5.000000


          ...................................................
          :                      SETUP                      :
          :.................................................:
          :  # basis functions                  27          :
          :  # atomic orbitals                  25          :
          :  # shells                           11          :
          :  # electrons                        22          :
          :  max. iterations                   250          :
          :  Hamiltonian                  GFN2-xTB          :
          :  restarted?                      false          :
          :  GBSA solvation                  false          :
          :  PC potential                    false          :
          :  electronic temp.          300.0000000     K    :
          :  accuracy                    0.2000000          :
          :  -> integral cutoff          0.3198970E+02      :
          :  -> integral neglect         0.2000000E-08      :
          :  -> SCF convergence          0.2000000E-06 Eh   :
          :  -> wf. convergence          0.2000000E-04 e    :
          :  Broyden damping             0.4000000          :
          :  net charge                         -1          :
          :  unpaired electrons                  0          :
          ...................................................

 iter      E             dE          RMSdq      gap      omega  full diag
   1    -12.5705869 -0.125706E+02  0.560E+00    5.05       0.0  T
   2    -12.6134096 -0.428227E-01  0.311E+00    3.68       1.0  T
   3    -12.6142759 -0.866240E-03  0.152E+00    3.55       1.0  T
   4    -12.6146587 -0.382797E-03  0.304E-01    3.30       1.0  T
   5    -12.6148058 -0.147097E-03  0.185E-01    3.31       1.0  T
   6    -12.6148938 -0.880630E-04  0.128E-01    3.22       1.0  T
   7    -12.6149384 -0.446079E-04  0.317E-02    3.21       1.3  T
   8    -12.6149390 -0.563652E-06  0.212E-02    3.20       1.9  T
   9    -12.6149399 -0.908121E-06  0.845E-03    3.21       4.8  T
  10    -12.6149400 -0.666741E-07  0.179E-03    3.21      22.8  T
  11    -12.6149400 -0.277252E-08  0.254E-04    3.21     160.5  T
  12    -12.6149400 -0.135918E-09  0.323E-05    3.21    1264.3  T
  13    -12.6149400 -0.358824E-12  0.210E-06    3.21   19444.1  T

   *** convergence criteria satisfied after 13 iterations ***

         #    Occupation            Energy/Eh            Energy/eV
      -------------------------------------------------------------
         1        2.0000           -0.9375904             -25.5131
       ...           ...                  ...                  ...
         5        2.0000           -0.3766802             -10.2500
         6        2.0000           -0.3718511             -10.1186
         7        2.0000           -0.2959642              -8.0536
         8        2.0000           -0.2959508              -8.0532
         9        2.0000           -0.1566565              -4.2628
        10        2.0000           -0.1531278              -4.1668
        11        2.0000           -0.1531277              -4.1668 (HOMO)
        12                         -0.0353008              -0.9606 (LUMO)
        13                          0.1430589               3.8928
        14                          0.1430842               3.8935
        15                          0.1468899               3.9971
        16                          0.1468904               3.9971
       ...                                ...                  ...
        25                          0.3942535              10.7282
      -------------------------------------------------------------
                  HL-Gap            0.1178269 Eh            3.2062 eV
             Fermi-level           -0.0942142 Eh           -2.5637 eV

 SCC (total)                   0 d,  0 h,  0 min,  0.121 sec
 SCC setup                      ...        0 min,  0.000 sec (  0.228%)
 Dispersion                     ...        0 min,  0.000 sec (  0.086%)
 classical contributions        ...        0 min,  0.000 sec (  0.113%)
 integral evaluation            ...        0 min,  0.117 sec ( 97.147%)
 iterations                     ...        0 min,  0.002 sec (  1.704%)
 molecular gradient             ...        0 min,  0.001 sec (  0.586%)
 printout                       ...        0 min,  0.000 sec (  0.120%)

         :::::::::::::::::::::::::::::::::::::::::::::::::::::
         ::                     SUMMARY                     ::
         :::::::::::::::::::::::::::::::::::::::::::::::::::::
         :: total energy             -12.557765958438 Eh    ::
         :: gradient norm              0.001921107037 Eh/a0 ::
         :: HOMO-LUMO gap              3.206233546540 eV    ::
         ::.................................................::
         :: SCC energy               -12.614940623143 Eh    ::
         :: -> isotropic ES            0.165510725610 Eh    ::
         :: -> anisotropic ES         -0.001743175314 Eh    ::
         :: -> anisotropic XC          0.001115123732 Eh    ::
         :: -> dispersion             -0.002680275533 Eh    ::
         :: repulsion energy           0.057174664706 Eh    ::
         :: add. restraining           0.000000000000 Eh    ::
         :: total charge              -1.000000000000 e     ::
         :::::::::::::::::::::::::::::::::::::::::::::::::::::


Property printout bound to 'properties.out'

           -------------------------------------------------
          | TOTAL ENERGY              -12.557765958438 Eh   |
          | GRADIENT NORM               0.001921107037 Eh/α |
          | HOMO-LUMO GAP               3.206233546540 eV   |
           -------------------------------------------------

------------------------------------------------------------------------
 * finished run on 2026/03/16 at 14:16:57.852     
------------------------------------------------------------------------
 total:
 * wall-time:     0 d,  0 h,  0 min,  0.271 sec
 *  cpu-time:     0 d,  0 h,  0 min,  0.461 sec
 * ratio c/w:     1.703 speedup
 SCF:
 * wall-time:     0 d,  0 h,  0 min,  0.121 sec
 *  cpu-time:     0 d,  0 h,  0 min,  0.352 sec
 * ratio c/w:     2.906 speedup


-------------------------   --------------------
FINAL SINGLE POINT ENERGY       -12.557765958440
-------------------------   --------------------


-------------
DIPOLE MOMENT
-------------
                                X             Y             Z
Total Dipole Moment    :     -0.00000       0.00000       3.50900
                        -----------------------------------------
Magnitude (a.u.)       :      3.50900
Magnitude (Debye)      :      8.91917


------------------
CARTESIAN GRADIENT
------------------

   1   C   :   -0.000450162    0.000124237   -0.000422688
   2   H   :    0.000018562   -0.000104372   -0.000298013
   3   H   :    0.000213091   -0.000117421   -0.000403708
   4   H   :    0.000203531    0.000101682   -0.000260763
   5   Cl  :    0.000013957   -0.000003837   -0.000280130
   6   Br  :    0.000001021   -0.000000290    0.001665303

Difference to translation invariance:
           :    0.0000000000    0.0000000000   -0.0000000000

Difference to rotation invariance:
           :   -0.0000000001    0.0000000035   -0.0000000000

Norm of the Cartesian gradient     ...    0.0019211070
RMS gradient                       ...    0.0004528093
MAX gradient                       ...    0.0016653032
------------------------------------------------------------------------------
                         ORCA GEOMETRY RELAXATION STEP
------------------------------------------------------------------------------

Reading the OPT-File                    .... done
Getting information on internals        .... done
Copying old internal coords+grads       .... done
Making the new internal coordinates     .... (2022 redundants) done
Validating the new internal coordinates .... (2022 redundants) done
Calculating the B-matrix                .... done
Calculating the G,G- and P matrices     .... done
Transforming gradient to internals      .... done
Projecting the internal gradient        .... done
Number of atoms                         ....   6
Number of internal coordinates          ....  17
Current Energy                          ....   -12.557765958 Eh
Current gradient norm                   ....     0.001921107 Eh/bohr
Maximum allowed component of the step   ....  0.300
Current trust radius                    ....  0.300
Evaluating the initial hessian          ....  (Almloef) done
Projecting the Hessian                  .... done
Forming the augmented Hessian           .... done
Diagonalizing the augmented Hessian     .... done
Last element of RFO vector              ....  0.996252705
Lowest eigenvalues of augmented Hessian:
 -0.000076792  0.010075918  0.043467011  0.043499261  0.195808138
Length of the computed step             ....  0.086815483
The final length of the internal step   ....  0.086815483
Converting the step to Cartesian space:
 Initial RMS(Int)=    0.0210558474
Transforming coordinates:
 Iter   0:  RMS(Cart)=    0.0098904668 RMS(Int)=    0.0210646142
done
Storing new coordinates                 .... done

                                .--------------------.
          ----------------------|Geometry convergence|-------------------------
          Item                value                   Tolerance       Converged
          ---------------------------------------------------------------------
          RMS gradient        0.0002474895            0.0001000000      NO
          MAX gradient        0.0005533424            0.0003000000      NO
          RMS step            0.0210558474            0.0020000000      NO
          MAX step            0.0460652361            0.0040000000      NO
          -------------------------------------------------------------------------
          ........................................................
          Max(Bonds)      0.0244      Max(Angles)    0.02
          Max(Dihed)        0.00      Max(Improp)    0.00
          ---------------------------------------------------------------------

The optimization has not yet converged - more geometry cycles are needed


    ---------------------------------------------------------------------------
                         Redundant Internal Coordinates
                            (Angstroem and degrees)

        Definition                    Value    dE/dq     Step     New-Value
    ----------------------------------------------------------------------------
     1. B(H   1,C   0)                1.0830  0.000011 -0.0000    1.0830   
     2. B(H   2,C   0)                1.0836  0.000374 -0.0005    1.0831   
     3. B(H   3,C   0)                1.0828 -0.000117  0.0002    1.0829   
     4. B(Cl  4,C   0)                1.7817 -0.000280  0.0004    1.7822   
     5. B(Br  5,H   1)                2.9069 -0.000396  0.0225    2.9294   
     6. B(Br  5,H   2)                2.9069 -0.000396  0.0225    2.9294   
     7. B(Br  5,H   3)                2.9069 -0.000397  0.0225    2.9294   
     8. B(Br  5,C   0)                3.0615 -0.000553  0.0244    3.0858   
     9. A(H   1,C   0,H   3)          110.53  0.000080   -0.02    110.50   
    10. A(H   2,C   0,H   3)          110.50  0.000048   -0.01    110.48   
    11. A(H   1,C   0,Cl  4)          108.42 -0.000049    0.02    108.44   
    12. A(H   2,C   0,Cl  4)          108.40 -0.000089    0.02    108.43   
    13. A(H   3,C   0,Cl  4)          108.43 -0.000035    0.01    108.44   
    14. A(H   1,C   0,Br  5)           71.58  0.000059   -0.02     71.56   
    15. A(H   2,C   0,Br  5)           71.58  0.000052   -0.02     71.56   
    16. A(H   3,C   0,Br  5)           71.58  0.000061   -0.02     71.56   
    17. A(H   1,C   0,H   2)          110.49  0.000037   -0.01    110.47   
    ----------------------------------------------------------------------------

Geometry step timings:
Preparation and reading OPT file:      0.000 s ( 3.531 %)
Internal coordinates            :      0.000 s ( 4.613 %)
B/P matrices and projection     :      0.000 s (11.788 %)
Hessian update/contruction      :      0.001 s (34.169 %)
Making the step                 :      0.000 s ( 9.453 %)
Converting the step to Cartesian:      0.000 s ( 3.929 %)
Storing new data                :      0.000 s ( 5.923 %)
Checking convergence            :      0.000 s ( 4.670 %)
Final printing                  :      0.000 s (21.697 %)
Total time                      :      0.002 s

Time for energy+gradient        :      0.283 s
Time for complete geometry iter :      0.286 s

         *************************************************************
         *                GEOMETRY OPTIMIZATION CYCLE   2            *
         *************************************************************
---------------------------------
CARTESIAN COORDINATES (ANGSTROEM)
---------------------------------
  C    -0.000143    0.000043    0.400920
  H     0.000102    1.027432    0.058419
  H     0.889734   -0.513653    0.058463
  H    -0.889761   -0.513787    0.058401
  Cl    0.000065   -0.000016    2.183085
  Br    0.000003   -0.000000   -2.684901

----------------------------
CARTESIAN COORDINATES (A.U.)
----------------------------
  NO LB    ZA    FRAG    MASS        X           Y           Z
   0 C   6.0000    0    12.011   -0.000271    0.000082    0.757629
   1 H   1.0000    0     1.008    0.000193    1.941565    0.110396
   2 H   1.0000    0     1.008    1.681354   -0.970664    0.110479
   3 H   1.0000    0     1.008   -1.681405   -0.970917    0.110362
   4 Cl 17.0000    0    35.453    0.000123   -0.000030    4.125432
   5 Br 35.0000    0    79.900    0.000006   -0.000001   -5.073727

      -----------------------------------------------------------      
     |                   =====================                   |     
     |                           x T B                           |     
     |                   =====================                   |     
     |                         S. Grimme                         |     
     |          Mulliken Center for Theoretical Chemistry        |     
     |                    University of Bonn                     |     
      -----------------------------------------------------------      

   * xtb version 6.7.1 (edcfbbe) compiled by 'albert@albert-system' on 2024-07-22

   xtb is free software: you can redistribute it and/or modify it under
   the terms of the GNU Lesser General Public License as published by
   the Free Software Foundation, either version 3 of the License, or
   (at your option) any later version.
   
   xtb is distributed in the hope that it will be useful,
   but WITHOUT ANY WARRANTY; without even the implied warranty of
   MERCHANTABILITY or FITNESS FOR A PARTICULAR PURPOSE.  See the
   GNU Lesser General Public License for more details.
   
   Cite this work as:
   * C. Bannwarth, E. Caldeweyher, S. Ehlert, A. Hansen, P. Pracht,
     J. Seibert, S. Spicher, S. Grimme, WIREs Comput. Mol. Sci., 2020, 11,
     e01493. DOI: 10.1002/wcms.1493
   
   for GFN2-xTB:
   * C. Bannwarth, S. Ehlert and S. Grimme., J. Chem. Theory Comput., 2019,
     15, 1652-1671. DOI: 10.1021/acs.jctc.8b01176
   for GFN1-xTB:
   * S. Grimme, C. Bannwarth, P. Shushkov, J. Chem. Theory Comput., 2017,
     13, 1989-2009. DOI: 10.1021/acs.jctc.7b00118
   for GFN0-xTB:
   * P. Pracht, E. Caldeweyher, S. Ehlert, S. Grimme, ChemRxiv, 2019, preprint.
     DOI: 10.26434/chemrxiv.8326202.v1
   for GFN-FF:
   * S. Spicher and S. Grimme, Angew. Chem. Int. Ed., 2020, 59, 15665-15673.
     DOI: 10.1002/anie.202004239
   
   for ALPB and GBSA implicit solvation:
   * S. Ehlert, M. Stahn, S. Spicher, S. Grimme, J. Chem. Theory Comput.,
     2021, 17, 4250-4261. DOI: 10.1021/acs.jctc.1c00471
   
   for ddCOSMO and CPCM-X implicit solvation:
   * M. Stahn, S. Ehlert, S. Grimme, J. Phys. Chem. A,
     2023, XX, XXXX-XXXX. DOI: 10.1021/acs.jpca.3c04382
   
   for DFT-D4:
   * E. Caldeweyher, C. Bannwarth and S. Grimme, J. Chem. Phys., 2017,
     147, 034112. DOI: 10.1063/1.4993215
   * E. Caldeweyher, S. Ehlert, A. Hansen, H. Neugebauer, S. Spicher,
     C. Bannwarth and S. Grimme, J. Chem. Phys., 2019, 150, 154122.
     DOI: 10.1063/1.5090222
   * E. Caldeweyher, J.-M. Mewes, S. Ehlert and S. Grimme, Phys. Chem. Chem. Phys.
     2020, 22, 8499-8512. DOI: 10.1039/D0CP00502A
   
   for sTDA-xTB:
   * S. Grimme and C. Bannwarth, J. Chem. Phys., 2016, 145, 054103.
     DOI: 10.1063/1.4959605
   
   in the mass-spec context:
   * V. Asgeirsson, C. Bauer and S. Grimme, Chem. Sci., 2017, 8, 4879.
     DOI: 10.1039/c7sc00601b
   * J. Koopman and S. Grimme, ACS Omega 2019, 4, 12, 15120-15133.
     DOI: 10.1021/acsomega.9b02011
   
   for metadynamics refer to:
   * S. Grimme, J. Chem. Theory Comput., 2019, 155, 2847-2862
     DOI: 10.1021/acs.jctc.9b00143
   
   for SPH calculations refer to:
   * S. Spicher and S. Grimme, J. Chem. Theory Comput., 2021, 17, 1701-1714
     DOI: 10.1021/acs.jctc.0c01306
   
   for ONIOM refer to:
   * C. Plett, A. Katbashev, S. Ehlert, S. Grimme, M. Bursch,
     Phys. Chem. Chem. Phys., 2023, 25, 17860-17868. DOI: 10.1039/D3CP02178E
   
   for DIPRO refer to:
   * J. Kohn, N. Gildemeister, S. Grimme, D. Fazzi, A. Hansen,
     J. Chem. Phys., 2023, just accepted.
   
   for PTB refer to:
   * S. Grimme, M. Mueller, A. Hansen, J. Chem. Phys., 2023, 158, 124111.
     DOI: 10.1063/5.0137838
   
   with help from (in alphabetical order)
   P. Atkinson, C. Bannwarth, F. Bohle, G. Brandenburg, E. Caldeweyher
   M. Checinski, S. Dohm, S. Ehlert, S. Ehrlich, I. Gerasimov, C. Hölzer
   A. Katbashev, J. Kohn, J. Koopman, C. Lavigne, S. Lehtola, F. März, M. Müller,
   F. Musil, H. Neugebauer, J. Pisarek, C. Plett, P. Pracht, F. Pultar,
   J. Seibert, P. Shushkov, S. Spicher, M. Stahn, M. Steiner, T. Strunk,
   J. Stückrath, T. Rose, and J. Unsleber
   
 * started run on 2026/03/16 at 14:16:57.868     
   ID    Z sym.   atoms
    1    6 C      1
    2    1 H      2-4
    3   17 Cl     5
    4   35 Br     6

           -------------------------------------------------
          |                Calculation Setup                |
           -------------------------------------------------

          program call               : /software/orca-6.1.0-el8-x86_64/bin/otool_xtb product_optfreq_XTB.xyz --grad -c -1 -u 0 -P 8 --namespace product_optfreq --input product_optfreq_XTB.input.tmp --acc 0.200000
          hostname                   : midway3-login4.rcc.local
          calculation namespace      : product_optfreq
          coordinate file            : product_optfreq_XTB.xyz
          omp threads                :                     8


molecular fragmentation (1/2 indicates fragments):
111112
# atoms in fragment 1/2:     5     1
 fragment masses (1/2) :       50.49       79.90
CMA distance (Bohr)    :   8.158
constraining FC (au)   :  0.0500

           -------------------------------------------------
          |                 G F N 2 - x T B                 |
           -------------------------------------------------

        Reference                      10.1021/acs.jctc.8b01176
      * Hamiltonian:
        H0-scaling (s, p, d)           1.850000    2.230000    2.230000
        zeta-weighting                 0.500000
      * Dispersion:
        s8                             2.700000
        a1                             0.520000
        a2                             5.000000
        s9                             5.000000
      * Repulsion:
        kExp                           1.500000    1.000000
        rExp                           1.000000
      * Coulomb:
        alpha                          2.000000
        third order                    shell-resolved
        anisotropic                    true
        a3                             3.000000
        a5                             4.000000
        cn-shift                       1.200000
        cn-exp                         4.000000
        max-rad                        5.000000

q/qsh data taken from xtbrestart
CAMM data taken from xtbrestart

          ...................................................
          :                      SETUP                      :
          :.................................................:
          :  # basis functions                  27          :
          :  # atomic orbitals                  25          :
          :  # shells                           11          :
          :  # electrons                        22          :
          :  max. iterations                   250          :
          :  Hamiltonian                  GFN2-xTB          :
          :  restarted?                       true          :
          :  GBSA solvation                  false          :
          :  PC potential                    false          :
          :  electronic temp.          300.0000000     K    :
          :  accuracy                    0.2000000          :
          :  -> integral cutoff          0.3198970E+02      :
          :  -> integral neglect         0.2000000E-08      :
          :  -> SCF convergence          0.2000000E-06 Eh   :
          :  -> wf. convergence          0.2000000E-04 e    :
          :  Broyden damping             0.4000000          :
          :  net charge                         -1          :
          :  unpaired electrons                  0          :
          ...................................................

 iter      E             dE          RMSdq      gap      omega  full diag
   1    -12.6150405 -0.126150E+02  0.768E-02    3.17       0.0  T
   2    -12.6150412 -0.719889E-06  0.411E-02    3.17       1.0  T
   3    -12.6150415 -0.273237E-06  0.119E-02    3.16       3.4  T
   4    -12.6150415 -0.670894E-07  0.882E-03    3.16       4.6  T
   5    -12.6150416 -0.725692E-07  0.243E-03    3.16      16.8  T
   6    -12.6150416 -0.524066E-08  0.848E-04    3.16      48.1  T
   7    -12.6150416 -0.123312E-08  0.524E-04    3.16      77.9  T
   8    -12.6150416 -0.723794E-09  0.311E-04    3.16     131.3  T
   9    -12.6150416 -0.280155E-09  0.103E-05    3.16    3979.5  T
  10    -12.6150416 -0.941469E-13  0.110E-06    3.16   36949.3  T

   *** convergence criteria satisfied after 10 iterations ***

         #    Occupation            Energy/Eh            Energy/eV
      -------------------------------------------------------------
         1        2.0000           -0.9382945             -25.5323
       ...           ...                  ...                  ...
         5        2.0000           -0.3775038             -10.2724
         6        2.0000           -0.3726752             -10.1410
         7        2.0000           -0.2967122              -8.0739
         8        2.0000           -0.2967034              -8.0737
         9        2.0000           -0.1560387              -4.2460
        10        2.0000           -0.1526333              -4.1534
        11        2.0000           -0.1526332              -4.1534 (HOMO)
        12                         -0.0364090              -0.9907 (LUMO)
        13                          0.1422354               3.8704
        14                          0.1422405               3.8706
        15                          0.1460558               3.9744
        16                          0.1460566               3.9744
       ...                                ...                  ...
        25                          0.3926986              10.6859
      -------------------------------------------------------------
                  HL-Gap            0.1162242 Eh            3.1626 eV
             Fermi-level           -0.0945211 Eh           -2.5721 eV

 SCC (total)                   0 d,  0 h,  0 min,  0.070 sec
 SCC setup                      ...        0 min,  0.000 sec (  0.367%)
 Dispersion                     ...        0 min,  0.000 sec (  0.069%)
 classical contributions        ...        0 min,  0.000 sec (  0.043%)
 integral evaluation            ...        0 min,  0.065 sec ( 92.714%)
 iterations                     ...        0 min,  0.003 sec (  4.966%)
 molecular gradient             ...        0 min,  0.001 sec (  1.535%)
 printout                       ...        0 min,  0.000 sec (  0.272%)

         :::::::::::::::::::::::::::::::::::::::::::::::::::::
         ::                     SUMMARY                     ::
         :::::::::::::::::::::::::::::::::::::::::::::::::::::
         :: total energy             -12.557827186771 Eh    ::
         :: gradient norm              0.001312827899 Eh/a0 ::
         :: HOMO-LUMO gap              3.162620918146 eV    ::
         ::.................................................::
         :: SCC energy               -12.615042292444 Eh    ::
         :: -> isotropic ES            0.165952343677 Eh    ::
         :: -> anisotropic ES         -0.001665663526 Eh    ::
         :: -> anisotropic XC          0.001202203263 Eh    ::
         :: -> dispersion             -0.002666749468 Eh    ::
         :: repulsion energy           0.057215105673 Eh    ::
         :: add. restraining           0.000000000000 Eh    ::
         :: total charge              -1.000000000000 e     ::
         :::::::::::::::::::::::::::::::::::::::::::::::::::::


Property printout bound to 'properties.out'

           -------------------------------------------------
          | TOTAL ENERGY              -12.557827186771 Eh   |
          | GRADIENT NORM               0.001312827899 Eh/α |
          | HOMO-LUMO GAP               3.162620918146 eV   |
           -------------------------------------------------

------------------------------------------------------------------------
 * finished run on 2026/03/16 at 14:16:57.962     
------------------------------------------------------------------------
 total:
 * wall-time:     0 d,  0 h,  0 min,  0.093 sec
 *  cpu-time:     0 d,  0 h,  0 min,  0.197 sec
 * ratio c/w:     2.125 speedup
 SCF:
 * wall-time:     0 d,  0 h,  0 min,  0.070 sec
 *  cpu-time:     0 d,  0 h,  0 min,  0.122 sec
 * ratio c/w:     1.749 speedup


-------------------------   --------------------
FINAL SINGLE POINT ENERGY       -12.557827186770
-------------------------   --------------------


-------------
DIPOLE MOMENT
-------------
                                X             Y             Z
Total Dipole Moment    :     -0.00000       0.00000       3.55800
                        -----------------------------------------
Magnitude (a.u.)       :      3.55800
Magnitude (Debye)      :      9.04372


------------------
CARTESIAN GRADIENT
------------------

   1   C   :   -0.000103948    0.000028717   -0.000648467
   2   H   :    0.000026196   -0.000153452   -0.000203914
   3   H   :   -0.000090605    0.000060182   -0.000213324
   4   H   :    0.000156320    0.000067874   -0.000200658
   5   Cl  :    0.000011802   -0.000003249    0.000247871
   6   Br  :    0.000000235   -0.000000071    0.001018493

Difference to translation invariance:
           :    0.0000000000   -0.0000000000   -0.0000000000

Difference to rotation invariance:
           :    0.0000000006   -0.0000000080   -0.0000000000

Norm of the Cartesian gradient     ...    0.0013128279
RMS gradient                       ...    0.0003094365
MAX gradient                       ...    0.0010184931
------------------------------------------------------------------------------
                         ORCA GEOMETRY RELAXATION STEP
------------------------------------------------------------------------------

Reading the OPT-File                    .... done
Getting information on internals        .... done
Copying old internal coords+grads       .... done
Making the new internal coordinates     .... (2022 redundants) done
Validating the new internal coordinates .... (2022 redundants) done
Calculating the B-matrix                .... done
Calculating the G,G- and P matrices     .... done
Transforming gradient to internals      .... done
Projecting the internal gradient        .... done
Number of atoms                         ....   6
Number of internal coordinates          ....  17
Current Energy                          ....   -12.557827187 Eh
Current gradient norm                   ....     0.001312828 Eh/bohr
Maximum allowed component of the step   ....  0.300
Current trust radius                    ....  0.300
Updating the Hessian (BFGS)             .... done
Forming the augmented Hessian           .... done
Diagonalizing the augmented Hessian     .... done
Last element of RFO vector              ....  0.990860984
Lowest eigenvalues of augmented Hessian:
 -0.000073338  0.003945164  0.043467010  0.043499261  0.196145919
Length of the computed step             ....  0.136131136
The final length of the internal step   ....  0.136131136
Converting the step to Cartesian space:
 Initial RMS(Int)=    0.0330166502
Transforming coordinates:
 Iter   0:  RMS(Cart)=    0.0152925451 RMS(Int)=    0.0330361419
done
Storing new coordinates                 .... done
The predicted energy change is          ....    -0.000037348
Previously predicted energy change      ....    -0.000038686
Actually observed energy change         ....    -0.000061228
Ratio of predicted to observed change   ....     1.582718661
New trust radius                        ....     0.200000000

                                .--------------------.
          ----------------------|Geometry convergence|-------------------------
          Item                value                   Tolerance       Converged
          ---------------------------------------------------------------------
          Energy change      -0.0000612283            0.0000050000      NO
          RMS gradient        0.0001465775            0.0001000000      NO
          MAX gradient        0.0002964428            0.0003000000      YES
          RMS step            0.0330166502            0.0020000000      NO
          MAX step            0.0717027383            0.0040000000      NO
          -------------------------------------------------------------------------
          ........................................................
          Max(Bonds)      0.0379      Max(Angles)    0.03
          Max(Dihed)        0.00      Max(Improp)    0.00
          ---------------------------------------------------------------------

The optimization has not yet converged - more geometry cycles are needed


    ---------------------------------------------------------------------------
                         Redundant Internal Coordinates
                            (Angstroem and degrees)

        Definition                    Value    dE/dq     Step     New-Value
    ----------------------------------------------------------------------------
     1. B(H   1,C   0)                1.0830 -0.000072  0.0003    1.0832   
     2. B(H   2,C   0)                1.0831 -0.000026  0.0001    1.0831   
     3. B(H   3,C   0)                1.0829 -0.000088  0.0003    1.0833   
     4. B(Cl  4,C   0)                1.7822  0.000248 -0.0010    1.7812   
     5. B(Br  5,H   1)                2.9294 -0.000257  0.0353    2.9648   
     6. B(Br  5,H   2)                2.9294 -0.000257  0.0354    2.9648   
     7. B(Br  5,H   3)                2.9294 -0.000257  0.0353    2.9647   
     8. B(Br  5,C   0)                3.0858 -0.000296  0.0379    3.1238   
     9. A(H   1,C   0,H   3)          110.50  0.000046   -0.03    110.48   
    10. A(H   2,C   0,H   3)          110.48  0.000001   -0.00    110.48   
    11. A(H   1,C   0,Cl  4)          108.44 -0.000004    0.01    108.44   
    12. A(H   2,C   0,Cl  4)          108.43 -0.000038    0.02    108.45   
    13. A(H   3,C   0,Cl  4)          108.44  0.000008    0.00    108.44   
    14. A(H   1,C   0,Br  5)           71.56  0.000011   -0.01     71.55   
    15. A(H   2,C   0,Br  5)           71.56  0.000010   -0.01     71.56   
    16. A(H   3,C   0,Br  5)           71.56  0.000012   -0.01     71.55   
    17. A(H   1,C   0,H   2)          110.47 -0.000015    0.00    110.48   
    ----------------------------------------------------------------------------

Geometry step timings:
Preparation and reading OPT file:      0.000 s ( 2.984 %)
Internal coordinates            :      0.000 s ( 4.208 %)
B/P matrices and projection     :      0.000 s (12.777 %)
Hessian update/contruction      :      0.000 s (28.003 %)
Making the step                 :      0.000 s ( 7.881 %)
Converting the step to Cartesian:      0.000 s ( 2.678 %)
Storing new data                :      0.000 s ( 6.886 %)
Checking convergence            :      0.000 s ( 9.105 %)
Final printing                  :      0.000 s (25.402 %)
Total time                      :      0.001 s

Time for energy+gradient        :      0.105 s
Time for complete geometry iter :      0.107 s

         *************************************************************
         *                GEOMETRY OPTIMIZATION CYCLE   3            *
         *************************************************************
---------------------------------
CARTESIAN COORDINATES (ANGSTROEM)
---------------------------------
  C     0.000035   -0.000006    0.407520
  H     0.000044    1.027568    0.064778
  H     0.889862   -0.513745    0.064807
  H    -0.889895   -0.513815    0.064766
  Cl   -0.000015    0.000006    2.188732
  Br   -0.000030    0.000009   -2.716217

----------------------------
CARTESIAN COORDINATES (A.U.)
----------------------------
  NO LB    ZA    FRAG    MASS        X           Y           Z
   0 C   6.0000    0    12.011    0.000066   -0.000012    0.770102
   1 H   1.0000    0     1.008    0.000083    1.941823    0.122413
   2 H   1.0000    0     1.008    1.681595   -0.970837    0.122468
   3 H   1.0000    0     1.008   -1.681658   -0.970969    0.122390
   4 Cl 17.0000    0    35.453   -0.000028    0.000012    4.136105
   5 Br 35.0000    0    79.900   -0.000056    0.000017   -5.132906

      -----------------------------------------------------------      
     |                   =====================                   |     
     |                           x T B                           |     
     |                   =====================                   |     
     |                         S. Grimme                         |     
     |          Mulliken Center for Theoretical Chemistry        |     
     |                    University of Bonn                     |     
      -----------------------------------------------------------      

   * xtb version 6.7.1 (edcfbbe) compiled by 'albert@albert-system' on 2024-07-22

   xtb is free software: you can redistribute it and/or modify it under
   the terms of the GNU Lesser General Public License as published by
   the Free Software Foundation, either version 3 of the License, or
   (at your option) any later version.
   
   xtb is distributed in the hope that it will be useful,
   but WITHOUT ANY WARRANTY; without even the implied warranty of
   MERCHANTABILITY or FITNESS FOR A PARTICULAR PURPOSE.  See the
   GNU Lesser General Public License for more details.
   
   Cite this work as:
   * C. Bannwarth, E. Caldeweyher, S. Ehlert, A. Hansen, P. Pracht,
     J. Seibert, S. Spicher, S. Grimme, WIREs Comput. Mol. Sci., 2020, 11,
     e01493. DOI: 10.1002/wcms.1493
   
   for GFN2-xTB:
   * C. Bannwarth, S. Ehlert and S. Grimme., J. Chem. Theory Comput., 2019,
     15, 1652-1671. DOI: 10.1021/acs.jctc.8b01176
   for GFN1-xTB:
   * S. Grimme, C. Bannwarth, P. Shushkov, J. Chem. Theory Comput., 2017,
     13, 1989-2009. DOI: 10.1021/acs.jctc.7b00118
   for GFN0-xTB:
   * P. Pracht, E. Caldeweyher, S. Ehlert, S. Grimme, ChemRxiv, 2019, preprint.
     DOI: 10.26434/chemrxiv.8326202.v1
   for GFN-FF:
   * S. Spicher and S. Grimme, Angew. Chem. Int. Ed., 2020, 59, 15665-15673.
     DOI: 10.1002/anie.202004239
   
   for ALPB and GBSA implicit solvation:
   * S. Ehlert, M. Stahn, S. Spicher, S. Grimme, J. Chem. Theory Comput.,
     2021, 17, 4250-4261. DOI: 10.1021/acs.jctc.1c00471
   
   for ddCOSMO and CPCM-X implicit solvation:
   * M. Stahn, S. Ehlert, S. Grimme, J. Phys. Chem. A,
     2023, XX, XXXX-XXXX. DOI: 10.1021/acs.jpca.3c04382
   
   for DFT-D4:
   * E. Caldeweyher, C. Bannwarth and S. Grimme, J. Chem. Phys., 2017,
     147, 034112. DOI: 10.1063/1.4993215
   * E. Caldeweyher, S. Ehlert, A. Hansen, H. Neugebauer, S. Spicher,
     C. Bannwarth and S. Grimme, J. Chem. Phys., 2019, 150, 154122.
     DOI: 10.1063/1.5090222
   * E. Caldeweyher, J.-M. Mewes, S. Ehlert and S. Grimme, Phys. Chem. Chem. Phys.
     2020, 22, 8499-8512. DOI: 10.1039/D0CP00502A
   
   for sTDA-xTB:
   * S. Grimme and C. Bannwarth, J. Chem. Phys., 2016, 145, 054103.
     DOI: 10.1063/1.4959605
   
   in the mass-spec context:
   * V. Asgeirsson, C. Bauer and S. Grimme, Chem. Sci., 2017, 8, 4879.
     DOI: 10.1039/c7sc00601b
   * J. Koopman and S. Grimme, ACS Omega 2019, 4, 12, 15120-15133.
     DOI: 10.1021/acsomega.9b02011
   
   for metadynamics refer to:
   * S. Grimme, J. Chem. Theory Comput., 2019, 155, 2847-2862
     DOI: 10.1021/acs.jctc.9b00143
   
   for SPH calculations refer to:
   * S. Spicher and S. Grimme, J. Chem. Theory Comput., 2021, 17, 1701-1714
     DOI: 10.1021/acs.jctc.0c01306
   
   for ONIOM refer to:
   * C. Plett, A. Katbashev, S. Ehlert, S. Grimme, M. Bursch,
     Phys. Chem. Chem. Phys., 2023, 25, 17860-17868. DOI: 10.1039/D3CP02178E
   
   for DIPRO refer to:
   * J. Kohn, N. Gildemeister, S. Grimme, D. Fazzi, A. Hansen,
     J. Chem. Phys., 2023, just accepted.
   
   for PTB refer to:
   * S. Grimme, M. Mueller, A. Hansen, J. Chem. Phys., 2023, 158, 124111.
     DOI: 10.1063/5.0137838
   
   with help from (in alphabetical order)
   P. Atkinson, C. Bannwarth, F. Bohle, G. Brandenburg, E. Caldeweyher
   M. Checinski, S. Dohm, S. Ehlert, S. Ehrlich, I. Gerasimov, C. Hölzer
   A. Katbashev, J. Kohn, J. Koopman, C. Lavigne, S. Lehtola, F. März, M. Müller,
   F. Musil, H. Neugebauer, J. Pisarek, C. Plett, P. Pracht, F. Pultar,
   J. Seibert, P. Shushkov, S. Spicher, M. Stahn, M. Steiner, T. Strunk,
   J. Stückrath, T. Rose, and J. Unsleber
   
 * started run on 2026/03/16 at 14:16:57.974     
   ID    Z sym.   atoms
    1    6 C      1
    2    1 H      2-4
    3   17 Cl     5
    4   35 Br     6

           -------------------------------------------------
          |                Calculation Setup                |
           -------------------------------------------------

          program call               : /software/orca-6.1.0-el8-x86_64/bin/otool_xtb product_optfreq_XTB.xyz --grad -c -1 -u 0 -P 8 --namespace product_optfreq --input product_optfreq_XTB.input.tmp --acc 0.200000
          hostname                   : midway3-login4.rcc.local
          calculation namespace      : product_optfreq
          coordinate file            : product_optfreq_XTB.xyz
          omp threads                :                     8


molecular fragmentation (1/2 indicates fragments):
111112
# atoms in fragment 1/2:     5     1
 fragment masses (1/2) :       50.49       79.90
CMA distance (Bohr)    :   8.228
constraining FC (au)   :  0.0500

           -------------------------------------------------
          |                 G F N 2 - x T B                 |
           -------------------------------------------------

        Reference                      10.1021/acs.jctc.8b01176
      * Hamiltonian:
        H0-scaling (s, p, d)           1.850000    2.230000    2.230000
        zeta-weighting                 0.500000
      * Dispersion:
        s8                             2.700000
        a1                             0.520000
        a2                             5.000000
        s9                             5.000000
      * Repulsion:
        kExp                           1.500000    1.000000
        rExp                           1.000000
      * Coulomb:
        alpha                          2.000000
        third order                    shell-resolved
        anisotropic                    true
        a3                             3.000000
        a5                             4.000000
        cn-shift                       1.200000
        cn-exp                         4.000000
        max-rad                        5.000000

q/qsh data taken from xtbrestart
CAMM data taken from xtbrestart

          ...................................................
          :                      SETUP                      :
          :.................................................:
          :  # basis functions                  27          :
          :  # atomic orbitals                  25          :
          :  # shells                           11          :
          :  # electrons                        22          :
          :  max. iterations                   250          :
          :  Hamiltonian                  GFN2-xTB          :
          :  restarted?                       true          :
          :  GBSA solvation                  false          :
          :  PC potential                    false          :
          :  electronic temp.          300.0000000     K    :
          :  accuracy                    0.2000000          :
          :  -> integral cutoff          0.3198970E+02      :
          :  -> integral neglect         0.2000000E-08      :
          :  -> SCF convergence          0.2000000E-06 Eh   :
          :  -> wf. convergence          0.2000000E-04 e    :
          :  Broyden damping             0.4000000          :
          :  net charge                         -1          :
          :  unpaired electrons                  0          :
          ...................................................

 iter      E             dE          RMSdq      gap      omega  full diag
   1    -12.6150236 -0.126150E+02  0.109E-01    3.13       0.0  T
   2    -12.6150250 -0.138826E-05  0.577E-02    3.12       1.0  T
   3    -12.6150255 -0.503304E-06  0.155E-02    3.11       2.6  T
   4    -12.6150256 -0.961559E-07  0.112E-02    3.11       3.6  T
   5    -12.6150257 -0.912614E-07  0.343E-03    3.11      11.9  T
   6    -12.6150257 -0.651224E-08  0.606E-04    3.11      67.3  T
   7    -12.6150257 -0.345091E-09  0.375E-04    3.11     108.8  T
   8    -12.6150257 -0.275985E-09  0.235E-04    3.11     173.5  T
   9    -12.6150257 -0.198932E-09  0.155E-05    3.11    2640.0  T
  10    -12.6150257 -0.195399E-12  0.103E-06    3.11   39479.0  T

   *** convergence criteria satisfied after 10 iterations ***

         #    Occupation            Energy/Eh            Energy/eV
      -------------------------------------------------------------
         1        2.0000           -0.9394767             -25.5645
       ...           ...                  ...                  ...
         5        2.0000           -0.3789020             -10.3104
         6        2.0000           -0.3740593             -10.1787
         7        2.0000           -0.2978671              -8.1054
         8        2.0000           -0.2978665              -8.1054
         9        2.0000           -0.1550737              -4.2198
        10        2.0000           -0.1518676              -4.1325
        11        2.0000           -0.1518676              -4.1325 (HOMO)
        12                         -0.0375936              -1.0230 (LUMO)
        13                          0.1408427               3.8325
        14                          0.1408460               3.8326
        15                          0.1446919               3.9373
        16                          0.1446919               3.9373
       ...                                ...                  ...
        25                          0.3903387              10.6217
      -------------------------------------------------------------
                  HL-Gap            0.1142740 Eh            3.1096 eV
             Fermi-level           -0.0947306 Eh           -2.5777 eV

 SCC (total)                   0 d,  0 h,  0 min,  0.105 sec
 SCC setup                      ...        0 min,  0.000 sec (  0.296%)
 Dispersion                     ...        0 min,  0.000 sec (  0.246%)
 classical contributions        ...        0 min,  0.000 sec (  0.164%)
 integral evaluation            ...        0 min,  0.098 sec ( 93.482%)
 iterations                     ...        0 min,  0.004 sec (  4.007%)
 molecular gradient             ...        0 min,  0.002 sec (  1.570%)
 printout                       ...        0 min,  0.000 sec (  0.210%)

         :::::::::::::::::::::::::::::::::::::::::::::::::::::
         ::                     SUMMARY                     ::
         :::::::::::::::::::::::::::::::::::::::::::::::::::::
         :: total energy             -12.557869347987 Eh    ::
         :: gradient norm              0.000746761213 Eh/a0 ::
         :: HOMO-LUMO gap              3.109553074827 eV    ::
         ::.................................................::
         :: SCC energy               -12.615026423421 Eh    ::
         :: -> isotropic ES            0.166651691883 Eh    ::
         :: -> anisotropic ES         -0.001576910836 Eh    ::
         :: -> anisotropic XC          0.001265076994 Eh    ::
         :: -> dispersion             -0.002646655220 Eh    ::
         :: repulsion energy           0.057157075434 Eh    ::
         :: add. restraining           0.000000000000 Eh    ::
         :: total charge              -1.000000000000 e     ::
         :::::::::::::::::::::::::::::::::::::::::::::::::::::


Property printout bound to 'properties.out'

           -------------------------------------------------
          | TOTAL ENERGY              -12.557869347987 Eh   |
          | GRADIENT NORM               0.000746761213 Eh/α |
          | HOMO-LUMO GAP               3.109553074827 eV   |
           -------------------------------------------------

------------------------------------------------------------------------
 * finished run on 2026/03/16 at 14:16:58.161     
------------------------------------------------------------------------
 total:
 * wall-time:     0 d,  0 h,  0 min,  0.186 sec
 *  cpu-time:     0 d,  0 h,  0 min,  0.284 sec
 * ratio c/w:     1.525 speedup
 SCF:
 * wall-time:     0 d,  0 h,  0 min,  0.105 sec
 *  cpu-time:     0 d,  0 h,  0 min,  0.198 sec
 * ratio c/w:     1.886 speedup


-------------------------   --------------------
FINAL SINGLE POINT ENERGY       -12.557869347990
-------------------------   --------------------


-------------
DIPOLE MOMENT
-------------
                                X             Y             Z
Total Dipole Moment    :      0.00000      -0.00000       3.63400
                        -----------------------------------------
Magnitude (a.u.)       :      3.63400
Magnitude (Debye)      :      9.23689


------------------
CARTESIAN GRADIENT
------------------

   1   C   :    0.000063233   -0.000017538   -0.000535391
   2   H   :    0.000003933   -0.000039843   -0.000038414
   3   H   :   -0.000084171    0.000049772   -0.000021856
   4   H   :    0.000018361    0.000007236   -0.000044255
   5   Cl  :   -0.000001130    0.000000316    0.000472419
   6   Br  :   -0.000000226    0.000000057    0.000167497

Difference to translation invariance:
           :    0.0000000000    0.0000000000   -0.0000000000

Difference to rotation invariance:
           :   -0.0000000010   -0.0000000004   -0.0000000000

Norm of the Cartesian gradient     ...    0.0007467612
RMS gradient                       ...    0.0001760133
MAX gradient                       ...    0.0005353914
------------------------------------------------------------------------------
                         ORCA GEOMETRY RELAXATION STEP
------------------------------------------------------------------------------

Reading the OPT-File                    .... done
Getting information on internals        .... done
Copying old internal coords+grads       .... done
Making the new internal coordinates     .... (2022 redundants) done
Validating the new internal coordinates .... (2022 redundants) done
Calculating the B-matrix                .... done
Calculating the G,G- and P matrices     .... done
Transforming gradient to internals      .... done
Projecting the internal gradient        .... done
Number of atoms                         ....   6
Number of internal coordinates          ....  17
Current Energy                          ....   -12.557869348 Eh
Current gradient norm                   ....     0.000746761 Eh/bohr
Maximum allowed component of the step   ....  0.300
Current trust radius                    ....  0.200
Updating the Hessian (BFGS)             .... done
Forming the augmented Hessian           .... done
Diagonalizing the augmented Hessian     .... done
Last element of RFO vector              ....  0.999559796
Lowest eigenvalues of augmented Hessian:
 -0.000003532  0.003257281  0.043467014  0.043499261  0.196156174
Length of the computed step             ....  0.029681474
The final length of the internal step   ....  0.029681474
Converting the step to Cartesian space:
 Initial RMS(Int)=    0.0071988149
Transforming coordinates:
 Iter   0:  RMS(Cart)=    0.0032758275 RMS(Int)=    0.0071996810
done
Storing new coordinates                 .... done
The predicted energy change is          ....    -0.000001768
Previously predicted energy change      ....    -0.000037348
Actually observed energy change         ....    -0.000042161
Ratio of predicted to observed change   ....     1.128861945
New trust radius                        ....     0.300000000

                                .--------------------.
          ----------------------|Geometry convergence|-------------------------
          Item                value                   Tolerance       Converged
          ---------------------------------------------------------------------
          Energy change      -0.0000421612            0.0000050000      NO
          RMS gradient        0.0001185183            0.0001000000      NO
          MAX gradient        0.0004724187            0.0003000000      NO
          RMS step            0.0071988149            0.0020000000      NO
          MAX step            0.0155466688            0.0040000000      NO
          -------------------------------------------------------------------------
          ........................................................
          Max(Bonds)      0.0082      Max(Angles)    0.00
          Max(Dihed)        0.00      Max(Improp)    0.00
          ---------------------------------------------------------------------

The optimization has not yet converged - more geometry cycles are needed


    ---------------------------------------------------------------------------
                         Redundant Internal Coordinates
                            (Angstroem and degrees)

        Definition                    Value    dE/dq     Step     New-Value
    ----------------------------------------------------------------------------
     1. B(H   1,C   0)                1.0832 -0.000024  0.0001    1.0833   
     2. B(H   2,C   0)                1.0831 -0.000084  0.0001    1.0833   
     3. B(H   3,C   0)                1.0833 -0.000003  0.0000    1.0833   
     4. B(Cl  4,C   0)                1.7812  0.000472 -0.0010    1.7802   
     5. B(Br  5,H   1)                2.9648 -0.000045  0.0077    2.9725   
     6. B(Br  5,H   2)                2.9648 -0.000045  0.0077    2.9725   
     7. B(Br  5,H   3)                2.9647 -0.000045  0.0077    2.9725   
     8. B(Br  5,C   0)                3.1237 -0.000040  0.0082    3.1320   
     9. A(H   1,C   0,H   3)          110.48  0.000002   -0.00    110.47   
    10. A(H   2,C   0,H   3)          110.48 -0.000004    0.00    110.48   
    11. A(H   1,C   0,Cl  4)          108.45  0.000002    0.00    108.45   
    12. A(H   2,C   0,Cl  4)          108.45  0.000006    0.00    108.45   
    13. A(H   3,C   0,Cl  4)          108.44  0.000001   -0.00    108.44   
    14. A(H   1,C   0,Br  5)           71.55 -0.000003   -0.00     71.55   
    15. A(H   2,C   0,Br  5)           71.56 -0.000002   -0.00     71.55   
    16. A(H   3,C   0,Br  5)           71.55 -0.000004   -0.00     71.55   
    17. A(H   1,C   0,H   2)          110.48 -0.000007    0.00    110.48   
    ----------------------------------------------------------------------------

Geometry step timings:
Preparation and reading OPT file:      0.000 s ( 2.680 %)
Internal coordinates            :      0.000 s ( 3.526 %)
B/P matrices and projection     :      0.000 s (11.425 %)
Hessian update/contruction      :      0.000 s (24.683 %)
Making the step                 :      0.000 s ( 8.110 %)
Converting the step to Cartesian:      0.000 s ( 3.315 %)
Storing new data                :      0.000 s ( 6.770 %)
Checking convergence            :      0.000 s (10.085 %)
Final printing                  :      0.000 s (29.267 %)
Total time                      :      0.001 s

Time for energy+gradient        :      0.197 s
Time for complete geometry iter :      0.200 s

         *************************************************************
         *                GEOMETRY OPTIMIZATION CYCLE   4            *
         *************************************************************
---------------------------------
CARTESIAN COORDINATES (ANGSTROEM)
---------------------------------
  C     0.000040   -0.000007    0.409080
  H     0.000003    1.027632    0.066303
  H     0.889969   -0.513819    0.066305
  H    -0.889945   -0.513809    0.066301
  Cl   -0.000034    0.000012    2.189278
  Br   -0.000032    0.000010   -2.722880

----------------------------
CARTESIAN COORDINATES (A.U.)
----------------------------
  NO LB    ZA    FRAG    MASS        X           Y           Z
   0 C   6.0000    0    12.011    0.000075   -0.000014    0.773050
   1 H   1.0000    0     1.008    0.000005    1.941943    0.125295
   2 H   1.0000    0     1.008    1.681798   -0.970977    0.125298
   3 H   1.0000    0     1.008   -1.681752   -0.970958    0.125291
   4 Cl 17.0000    0    35.453   -0.000064    0.000022    4.137135
   5 Br 35.0000    0    79.900   -0.000060    0.000018   -5.145498

      -----------------------------------------------------------      
     |                   =====================                   |     
     |                           x T B                           |     
     |                   =====================                   |     
     |                         S. Grimme                         |     
     |          Mulliken Center for Theoretical Chemistry        |     
     |                    University of Bonn                     |     
      -----------------------------------------------------------      

   * xtb version 6.7.1 (edcfbbe) compiled by 'albert@albert-system' on 2024-07-22

   xtb is free software: you can redistribute it and/or modify it under
[...]
        25                          0.3897289              10.6051
      -------------------------------------------------------------
                  HL-Gap            0.1141705 Eh            3.1067 eV
             Fermi-level           -0.0945735 Eh           -2.5735 eV

 SCC (total)                   0 d,  0 h,  0 min,  0.110 sec
 SCC setup                      ...        0 min,  0.000 sec (  0.271%)
 Dispersion                     ...        0 min,  0.000 sec (  0.111%)
 classical contributions        ...        0 min,  0.000 sec (  0.067%)
 integral evaluation            ...        0 min,  0.098 sec ( 89.591%)
 iterations                     ...        0 min,  0.009 sec (  8.528%)
 molecular gradient             ...        0 min,  0.001 sec (  1.198%)
 printout                       ...        0 min,  0.000 sec (  0.213%)

         :::::::::::::::::::::::::::::::::::::::::::::::::::::
         ::                     SUMMARY                     ::
         :::::::::::::::::::::::::::::::::::::::::::::::::::::
         :: total energy             -12.557871637045 Eh    ::
         :: gradient norm              0.000228785112 Eh/a0 ::
         :: HOMO-LUMO gap              3.106737922359 eV    ::
         ::.................................................::
         :: SCC energy               -12.615024336937 Eh    ::
         :: -> isotropic ES            0.166854525603 Eh    ::
         :: -> anisotropic ES         -0.001572289720 Eh    ::
         :: -> anisotropic XC          0.001226748507 Eh    ::
         :: -> dispersion             -0.002642252359 Eh    ::
         :: repulsion energy           0.057152699892 Eh    ::
         :: add. restraining           0.000000000000 Eh    ::
         :: total charge              -1.000000000000 e     ::
         :::::::::::::::::::::::::::::::::::::::::::::::::::::

           ------------------------------------------------- 
          |                Numerical Hessian                |
           ------------------------------------------------- 
step length          :   0.00500
SCC accuracy         :   0.30000
Hessian scale factor :   1.00000
frozen atoms in %    :   0.00000    0
RMS gradient         :   0.00023
estimated CPU  time      0.00 min
estimated wall time      0.00 min

writing file <hessian>.

 projected vibrational frequencies (cm⁻¹)
eigval :       -0.00    -0.00    -0.00    -0.00     0.00     0.00
eigval :       87.93    87.94    94.13   642.65   984.63   984.64
eigval :     1312.67  1438.43  1438.54  3061.15  3074.22  3074.30

Property printout bound to 'properties.out'
Molecule has the following symmetry elements: (C3) 3*(sigma) 
It seems to be the C3v point group

           -------------------------------------------------
          | TOTAL ENERGY              -12.557871637045 Eh   |
          | TOTAL ENTHALPY            -12.514501999648 Eh   |
          | TOTAL FREE ENERGY         -12.550276337933 Eh   |
          | GRADIENT NORM               0.000228793795 Eh/α |
          | HOMO-LUMO GAP               3.106737368874 eV   |
           -------------------------------------------------

------------------------------------------------------------------------
 * finished run on 2026/03/16 at 14:16:58.752     
------------------------------------------------------------------------
 total:
 * wall-time:     0 d,  0 h,  0 min,  0.275 sec
 *  cpu-time:     0 d,  0 h,  0 min,  0.471 sec
 * ratio c/w:     1.710 speedup
 SCF:
 * wall-time:     0 d,  0 h,  0 min,  0.110 sec
 *  cpu-time:     0 d,  0 h,  0 min,  0.209 sec
 * ratio c/w:     1.903 speedup
 analytical hessian:
 * wall-time:     0 d,  0 h,  0 min,  0.018 sec
 *  cpu-time:     0 d,  0 h,  0 min,  0.136 sec
 * ratio c/w:     7.570 speedup


-------------------------   --------------------
FINAL SINGLE POINT ENERGY       -12.557871637040
-------------------------   --------------------


-------------
DIPOLE MOMENT
-------------
                                X             Y             Z
Total Dipole Moment    :      0.00000      -0.00000       3.65400
                        -----------------------------------------
Magnitude (a.u.)       :      3.65400
Magnitude (Debye)      :      9.28773


-----------------------
VIBRATIONAL FREQUENCIES
-----------------------

Scaling factor for frequencies =  1.000000000  (already applied!)

     0:       0.00 cm**-1
     1:       0.00 cm**-1
     2:       0.00 cm**-1
     3:       0.00 cm**-1
     4:       0.00 cm**-1
     5:       0.00 cm**-1
     6:      87.93 cm**-1
     7:      87.94 cm**-1
     8:      94.13 cm**-1
     9:     642.65 cm**-1
    10:     984.60 cm**-1
    11:     984.62 cm**-1
    12:    1312.64 cm**-1
    13:    1438.39 cm**-1
    14:    1438.50 cm**-1
    15:    3061.06 cm**-1
    16:    3074.14 cm**-1
    17:    3074.21 cm**-1


------------
NORMAL MODES
------------

These modes are the Cartesian displacements weighted by the diagonal matrix
M(i,i)=1/sqrt(m[i]) where m[i] is the mass of the displaced atom
Thus, these vectors are normalized but *not* orthogonal

                  0          1          2          3          4          5    
      0       0.000000   0.000000   0.000000   0.000000   0.000000   0.000000
      1       0.000000   0.000000   0.000000   0.000000   0.000000   0.000000
      2       0.000000   0.000000   0.000000   0.000000   0.000000   0.000000
      3       0.000000   0.000000   0.000000   0.000000   0.000000   0.000000
      4       0.000000   0.000000   0.000000   0.000000   0.000000   0.000000
      5       0.000000   0.000000   0.000000   0.000000   0.000000   0.000000
      6       0.000000   0.000000   0.000000   0.000000   0.000000   0.000000
      7       0.000000   0.000000   0.000000   0.000000   0.000000   0.000000
      8       0.000000   0.000000   0.000000   0.000000   0.000000   0.000000
      9       0.000000   0.000000   0.000000   0.000000   0.000000   0.000000
     10       0.000000   0.000000   0.000000   0.000000   0.000000   0.000000
     11       0.000000   0.000000   0.000000   0.000000   0.000000   0.000000
     12       0.000000   0.000000   0.000000   0.000000   0.000000   0.000000
     13       0.000000   0.000000   0.000000   0.000000   0.000000   0.000000
     14       0.000000   0.000000   0.000000   0.000000   0.000000   0.000000
     15       0.000000   0.000000   0.000000   0.000000   0.000000   0.000000
     16       0.000000   0.000000   0.000000   0.000000   0.000000   0.000000
     17       0.000000   0.000000   0.000000   0.000000   0.000000   0.000000
                  6          7          8          9         10         11    
      0      -0.040697   0.391600  -0.000144   0.000015  -0.045508  -0.104250
      1      -0.391602  -0.040697   0.000277   0.000102   0.104257  -0.045515
      2      -0.000005   0.000038   0.445621  -0.631219   0.000007  -0.000014
      3      -0.050086   0.481129  -0.000176  -0.000002   0.096799   0.221751
      4      -0.487468  -0.050659  -0.004677   0.040753  -0.143495   0.062655
      5      -0.283176  -0.029392   0.420706  -0.421908  -0.694694   0.303281
      6      -0.047704   0.486143  -0.004528   0.035418   0.037275   0.177907
      7      -0.482324  -0.052911   0.002853  -0.020196  -0.187479   0.122185
      8       0.116128   0.260000   0.420317  -0.421805   0.610059   0.450043
      9      -0.053200   0.485569   0.004171  -0.035412   0.105086   0.148261
     10      -0.483039  -0.047415   0.002852  -0.020190  -0.217022   0.054412
     11       0.167099  -0.230489   0.420494  -0.421737   0.084726  -0.753294
     12       0.010969  -0.105550   0.000041  -0.000006   0.008676   0.019874
     13       0.105550   0.010969  -0.000075  -0.000028  -0.019874   0.008676
     14       0.000083   0.000038   0.439920   0.250577  -0.000005   0.000004
     15       0.003155  -0.030362   0.000010   0.000000  -0.000026  -0.000060
     16       0.030362   0.003155  -0.000021  -0.000007   0.000060  -0.000026
     17      -0.000037  -0.000024  -0.278103  -0.000332   0.000000   0.000000
                 12         13         14         15         16         17    
      0       0.000008  -0.010767   0.070491   0.000172   0.037335   0.083232
      1      -0.000012  -0.070472  -0.010768  -0.000521   0.083233  -0.037337
      2      -0.100653   0.000031   0.000009   0.037689   0.000186  -0.000168
      3      -0.000051   0.112998  -0.739739   0.000072   0.017521   0.039021
      4       0.187775  -0.122010  -0.018654   0.557652  -0.700971   0.313203
      5       0.542802  -0.293482  -0.044839  -0.164870   0.231212  -0.103349
      6       0.162671   0.387366  -0.036486   0.476123   0.091478  -0.664236
      7      -0.093844   0.581299  -0.293016  -0.275070  -0.003695   0.388539
      8       0.542810   0.107847   0.276431  -0.162287  -0.026638   0.253634
      9      -0.162694  -0.358800  -0.150455  -0.478260  -0.556150  -0.371633
     10      -0.093799   0.467316   0.453230  -0.276387  -0.292169  -0.254583
     11       0.542848   0.185504  -0.231688  -0.163111  -0.206872  -0.148163
     12      -0.000001  -0.000360   0.002351   0.000000   0.000082   0.000183
     13       0.000000  -0.002355  -0.000359  -0.000000   0.000183  -0.000082
     14      -0.010566  -0.000007  -0.000000   0.001023   0.000002  -0.000003
     15       0.000000  -0.000008   0.000051  -0.000000  -0.000008  -0.000017
     16      -0.000000  -0.000051  -0.000008   0.000000  -0.000017   0.000008
     17      -0.000725   0.000000   0.000000   0.000066   0.000000  -0.000000


The first frequency considered to be a vibration is 6
The total number of vibrations considered is 12


--------------------------
THERMOCHEMISTRY AT 298.15K
--------------------------

Temperature         ...   298.15 K
Pressure            ...     1.00 atm
Total Mass          ...   130.39 AMU
Quasi RRHO          ...     True
Cut-Off Frequency   ...     1.00 cm^-1

Throughout the following assumptions are being made:
  (1) The electronic state is orbitally nondegenerate
  (2) There are no thermally accessible electronically excited states
  (3) Hindered rotations indicated by low frequency modes are not
      treated as such but are treated as vibrations and this may
      cause some error
  (4) All equations used are the standard statistical mechanics
      equations for an ideal gas
  (5) All vibrations are strictly harmonic

freq.      87.93  E(vib)   ...       0.48 
freq.      87.94  E(vib)   ...       0.48 
freq.      94.13  E(vib)   ...       0.47 
freq.     642.65  E(vib)   ...       0.09 
freq.     984.60  E(vib)   ...       0.02 
freq.     984.62  E(vib)   ...       0.02 
freq.    1312.64  E(vib)   ...       0.01 
freq.    1438.39  E(vib)   ...       0.00 
freq.    1438.50  E(vib)   ...       0.00 
freq.    3061.06  E(vib)   ...       0.00 
freq.    3074.14  E(vib)   ...       0.00 
freq.    3074.21  E(vib)   ...       0.00 

------------
INNER ENERGY
------------

The inner energy is: U= E(el) + E(ZPE) + E(vib) + E(rot) + E(trans)
    E(el)   - is the total energy from the electronic structure calculation
              = E(kin-el) + E(nuc-el) + E(el-el) + E(nuc-nuc)
    E(ZPE)  - the the zero temperature vibrational energy from the frequency calculation
    E(vib)  - the the finite temperature correction to E(ZPE) due to population
              of excited vibrational states
    E(rot)  - is the rotational thermal energy
    E(trans)- is the translational thermal energy

Summary of contributions to the inner energy U:
Electronic energy                ...    -12.55787164 Eh
Zero point energy                ...      0.03709037 Eh      23.27 kcal/mol
Thermal vibrational correction   ...      0.00250147 Eh       1.57 kcal/mol
Thermal rotational correction    ...      0.00141627 Eh       0.89 kcal/mol
Thermal translational correction ...      0.00141627 Eh       0.89 kcal/mol
-----------------------------------------------------------------------
Total thermal energy                    -12.51544725 Eh


Summary of corrections to the electronic energy:
(perhaps to be used in another calculation)
Total thermal correction                  0.00533402 Eh       3.35 kcal/mol
Non-thermal (ZPE) correction              0.03709037 Eh      23.27 kcal/mol
-----------------------------------------------------------------------
Total correction                          0.04242438 Eh      26.62 kcal/mol


--------
ENTHALPY
--------

The enthalpy is H = U + kB*T
                kB is Boltzmann's constant
Total thermal energy              ...    -12.51544725 Eh 
Thermal Enthalpy correction       ...      0.00094421 Eh       0.59 kcal/mol
-----------------------------------------------------------------------
Total Enthalpy                    ...    -12.51450304 Eh


WARNING (ORCA/SYM): The number of Z matrix atoms does not agree with
the number of centers in the basis set. The point group will therefore
be determined without considering basis set information.


Note: Rotational entropy computed according to Herzberg 
Infrared and Raman Spectra, Chapter V,1, Van Nostrand Reinhold, 1945 
Point Group:  C3v, Symmetry Number:   3  
Rotational constants in cm-1:     5.278779     0.026894     0.026894 

Vibrational entropy computed according to the QRRHO of S. Grimme
Chem.Eur.J. 2012 18 9955 using a reference frequency of 100.0 cm-1


-------
ENTROPY
-------

The entropy contributions are T*S = T*(S(el)+S(vib)+S(rot)+S(trans))
     S(el)   - electronic entropy
     S(vib)  - vibrational entropy
     S(rot)  - rotational entropy
     S(trans)- translational entropy
The entropies will be listed as multiplied by the temperature to get
units of energy

Electronic entropy                ...      0.00000000 Eh      0.00 kcal/mol
Vibrational entropy               ...      0.00491672 Eh      3.09 kcal/mol
Rotational entropy                ...      0.01110211 Eh      6.97 kcal/mol
Translational entropy             ...      0.01924704 Eh     12.08 kcal/mol
-----------------------------------------------------------------------
Final entropy term                ...      0.03526587 Eh     22.13 kcal/mol

In case the symmetry of your molecule has not been determined correctly
or in case you have a reason to use a different symmetry number we print 
out the resulting rotational entropy values for sn=1,12:

 non-linear molecules -----------------------------------
|  sn= 1 | S(rot)=       0.01213940 Eh      7.62 kcal/mol|
|  sn= 2 | S(rot)=       0.01148495 Eh      7.21 kcal/mol|
|  sn= 3 | S(rot)=       0.01110211 Eh      6.97 kcal/mol|
|  sn= 4 | S(rot)=       0.01083049 Eh      6.80 kcal/mol|
|  sn= 5 | S(rot)=       0.01061980 Eh      6.66 kcal/mol|
|  sn= 6 | S(rot)=       0.01044766 Eh      6.56 kcal/mol|
|  sn= 7 | S(rot)=       0.01030211 Eh      6.46 kcal/mol|
|  sn= 8 | S(rot)=       0.01017603 Eh      6.39 kcal/mol|
|  sn= 9 | S(rot)=       0.01006482 Eh      6.32 kcal/mol|
|  sn=10 | S(rot)=       0.00996534 Eh      6.25 kcal/mol|
|  sn=11 | S(rot)=       0.00987535 Eh      6.20 kcal/mol|
|  sn=12 | S(rot)=       0.00979320 Eh      6.15 kcal/mol|
 linear molecules ---------------------------------------
|  Dinfh | S(rot)=       0.00873981 Eh      5.48 kcal/mol|
|  Cinfv | S(rot)=       0.00939427 Eh      5.89 kcal/mol|
 --------------------------------------------------------


-------------------
GIBBS FREE ENERGY
-------------------

The Gibbs free energy is G = H - T*S

Total enthalpy                    ...    -12.51450304 Eh 
Total entropy correction          ...     -0.03526587 Eh    -22.13 kcal/mol
-----------------------------------------------------------------------
Final Gibbs free energy         ...    -12.54976892 Eh

For completeness - the Gibbs free energy minus the electronic energy
G-E(el)                           ...      0.00810272 Eh      5.08 kcal/mol


--------------------------------
SUGGESTED CITATIONS FOR THIS RUN
--------------------------------

Below you find a list of papers that are relevant to this ORCA run
We neither can nor want to force you to cite these papers, but we appreciate if you do
You receive ORCA, which is the product of decades of hard work by many enthusiastic individuals, for free
The only thing we kindly ask in return is that you cite our papers,
We deeply appreciate it, if you show your appreciation for ORCA by not just citing the generic ORCA reference.

Please note that relegating all ORCA citations to the supporting information does *not* help us.
SI sections are not indexed - citations you put there will not count into any citation statistics
But we need these citations in order to attract the funding resources that allow us to do what we are doing

Therefore, if you are a happy ORCA user, please consider citing a few of the papers listed below in the main body of your paper

In addition to the list printed below, the program has created the file product_optfreq.bibtex that contains the list in bibtex format
You can import this file easily into all common literature databanks and citation aid programs


List of essential papers. We consider these as the minimum necessary citations

  1. Bannwarth, C.; Ehlert, S.; Grimme, S.
     GFN2-xTB—An Accurate and Broadly Parametrized Self-Consistent Tight-Binding Quantum Chemical Method with Multipole Electrostatics and Density-Dependent Dispersion Contributions
     J. Chem. Theory Comput. 2019 15(3), 1652-1671
     doi.org/10.1021/acs.jctc.8b01176
  2. Neese, F.
     Software update: the ORCA program system, version 6.0
     WIRES Comput. Molec. Sci. 2025 15(1), e70019
     doi.org/10.1002/wcms.7019

List of papers to cite with high priority. The work reported in these papers was absolutely
necessary for this run to complete.
Our perspective: the developers of density functionals and basis sets usually get cited in chemistry papers
Good! But without the algorithms to do something with them, the functionals or basis sets would not do anything.
Hence, in our opinion, the algorithm design and method developments papers are equally worthy of getting cited

  1. Bykov, D.; Petrenko, T.; Izsak, R.; Kossmann, S.; Becker, U.; Valeev, E.; Neese, F.
     Efficient implementation of the analytic second derivatives of Hartree-Fock and hybrid DFT energies: a detailed analysis of different approximations
     Molec. Phys. 2015 113 , 1961-1977
     doi.org/10.1080/00268976.2015.1025114
  2. Bannwarth, C.; Caldeweyher, E.; Ehlert, S.; Hansen, A.; Pracht, P.; Seibert, J.; Spicher, S.; Grimme, S.
     Extended tight-binding quantum chemistry methods
     WIRES Comput. Molec. Sci. 2020 11(2), e1493
     doi.org/10.1002/wcms.1493

List of suggested additional citations. These are papers that are important in the 'surrounding' of 
of this run, or papers that preceded the highly important papers. If you like your results we are grateful for a citation.

  1. Neese, F.
     The ORCA program system
     WIRES Comput. Molec. Sci. 2012 2(1), 73-78
     doi.org/10.1002/wcms.81
  2. Neese, F.
     Software update: the ORCA program system, version 4.0
     WIRES Comput. Molec. Sci. 2018 8(1), 1-6
     doi.org/10.1002/wcms.1327
  3. Neese, F.; Wennmohs, F.; Becker, U.; Riplinger, C.
     The ORCA quantum chemistry program package
     J. Chem. Phys. 2020 152(22), 224108
     doi.org/10.1063/5.0004608
  4. Neese, F.
     Software update: The ORCA program system—Version 5.0
     WIRES Comput. Molec. Sci. 2022 12(1), e1606
     doi.org/10.1002/wcms.1606

List of optional additional citations

  1. Neese, F.
     Approximate second-order SCF convergence for spin unrestricted wavefunctions
     Chem. Phys. Lett. 2000 325(1-3), 93-98
     doi.org/10.1016/s0009-2614(00)00662-x

Timings for individual modules:

Sum of individual times          ...        1.102 sec (=   0.018 min)
Geometry relaxation              ...        0.011 sec (=   0.000 min)   1.0 %
XTB module                       ...        1.091 sec (=   0.018 min)  99.0 %
                             ****ORCA TERMINATED NORMALLY****
TOTAL RUN TIME: 0 days 0 hours 0 minutes 2 seconds 28 msec
