
                                 *****************
                                 * O   R   C   A *
                                 *****************

                                            #,                                       
                                            ###                                      
                                            ####                                     
                                            #####                                    
                                            ######                                   
                                           ########,                                 
                                     ,,################,,,,,                         
                               ,,#################################,,                 
                          ,,##########################################,,             
                       ,#########################################, ''#####,          
                    ,#############################################,,   '####,        
                  ,##################################################,,,,####,       
                ,###########''''           ''''###############################       
              ,#####''   ,,,,##########,,,,          '''####'''          '####       
            ,##' ,,,,###########################,,,                        '##       
           ' ,,###''''                  '''############,,,                           
         ,,##''                                '''############,,,,        ,,,,,,###''
      ,#''                                            '''#######################'''  
     '                                                          ''''####''''         
             ,#######,   #######,   ,#######,      ##                                
            ,#'     '#,  ##    ##  ,#'     '#,    #''#        ,####,    ,#,          
            ##       ##  ##   ,#'  ##            #'  '#       #'       ,# #          
            ##       ##  #######   ##           ,######,      #####,      #          
            '#,     ,#'  ##    ##  '#,     ,#' ,#      #,     #,   #      #          
             '#######'   ##     ##  '#######'  #'      '#     '####' #    #          



                #########################################################
                #                        -***-                          #
                #          Department of theory and spectroscopy        #
                #                                                       #
                #                      Frank Neese                      #
                #                                                       #
                #     Directorship, Architecture, Infrastructure        #
                #                    SHARK, DRIVERS                     #
                #        Core code/Algorithms in most modules           #
                #                                                       #
                #        Max Planck Institute fuer Kohlenforschung      #
                #                Kaiser Wilhelm Platz 1                 #
                #                 D-45470 Muelheim/Ruhr                 #
                #                      Germany                          #
                #                                                       #
                #                  All rights reserved                  #
                #                        -***-                          #
                #########################################################


                         Program Version 6.1.0  -  RELEASE   -
                                (GIT: $679e74b$)
                          ($2025-06-10 18:02:51 +0200$)


 With contributions from (in alphabetic order):
[Max-Planck-Institut fuer Kohlenforschung]                               
  Daniel Aravena         : Magnetic Suceptibility                        
  Michael Atanasov       : Ab Initio Ligand Field Theory (pilot matlab implementation)
  Alexander A. Auer      : GIAO ZORA, VPT2 properties, NMR spectrum      
  Ute Becker             : All parallelization in ORCA, NUMFREQ, NUMCALC 
  Giovanni Bistoni       : ED, misc. LED, open-shell LED, HFLD           
  Dmytro Bykov           : pre 5.0 version of the SCF Hessian            
  Marcos Casanova-Páez   : Triplet and SCS-CIS(D). UHF-(DLPNO)-IP/EA/STEOM-CCSD. UHF-CVS-IP/STEOM-CCSD   
  Vijay G. Chilkuri      : MRCI spin determinant printing, contributions to CSF-ICE 
  Pauline Colinet        : FMM embedding                                 
  Dipayan Datta          : RHF DLPNO-CCSD density                        
  Achintya Kumar Dutta   : EOM-CC, STEOM-CC                              
  Nicolas Foglia         : Exact transition moments, OPA infrastructure, MCD improvements    
  Dmitry Ganyushin       : Spin-Orbit,Spin-Spin,Magnetic field MRCI      
  Miquel Garcia-Rates    : C-PCM and meta-GGA Hessian, CCSD/C-PCM, Gaussian charge scheme 
  Tiago L. C. Gouveia    : GS-ROHF, GS-ROCIS                             
  Yang Guo               : DLPNO-NEVPT2, F12-NEVPT2, CIM, IAO-localization        
  Andreas Hansen         : Spin unrestricted coupled pair/coupled cluster methods 
  Ingolf Harden          : AUTO-CI MPn and infrastructure                
  Benjamin Helmich-Paris : MC-RPA, TRAH-(SCF,CASSCF), AVAS, COSX integrals, SCF dyn. polar., MC-PDFT, srDFT 
  Lee Huntington         : MR-EOM, pCC                                   
  Robert Izsak           : Overlap fitted RIJCOSX, COSX-SCS-MP3, EOM     
  Riya Kayal             : Wick's Theorem for AUTO-CI, AUTO-CI UHF-CCSDT 
  Emily Kempfer          : AUTO-CI RHF CISDT and CCSDT, approximate NEVPT4
  Christian Kollmar      : KDIIS, OOCD, Brueckner-CCSD(T), CCSD density, CASPT2, CASPT2-K, improved NEVPT2 
  Axel Koslowski         : Symmetry handling                             
  Simone Kossmann        : meta-GGA functionals, TD-DFT gradient, OOMP2, (MP2 Hessian; deprecated post 5.0) 
  Lucas Lang             : DCDCAS, Hyperfine gauge corrections, ICE-SOC+SSC
  Marvin Lechner         : AUTO-CI (C++ implementation), FIC-MRCC        
  Spencer Leger          : CASSCF response                               
  Dagmar Lenk            : GEPOL surface, SMD, ORCA-2-JSON               
  Dimitrios Liakos       : Extrapolation schemes; Compound Job, Property file
  Dimitrios Manganas     : Further ROCIS development; embedding schemes. LFT, Crystal Embedding 
  Dimitrios Pantazis     : SARC Basis sets                               
  Anastasios Papadopoulos: AUTO-CI, single reference methods and gradients 
  Taras Petrenko         : pre 6.0 DFT Hessian and TD-DFT gradient,  ECA, NRVS 
  Petra Pikulova         : Analytic Raman intensities                    
  Peter Pinski           : DLPNO-MP2, DLPNO-MP2 Gradient                 
  Shashank Vittal Rao    : ES-AILFT, MagRelax                            
  Christoph Reimann      : Effective Core Potentials                     
  Marius Retegan         : Local ZFS, SOC                                
  Christoph Riplinger    : Optimizer, TS searches, QM/MM, DLPNO-CCSD(T), (RO)-DLPNO pert. Triples 
  Michael Roemelt        : Original ROCIS implementation, recursive CI coupling coefficients
  Masaaki Saitow         : Open-shell DLPNO-CCSD energy and density      
  Barbara Sandhoefer     : DKH picture change effects                    
  Yorick L. A. Schmerwitz: GMF and freeze-and-release deltaSCF, NEB S-IDPP initial path                    
  Kantharuban Sivalingam : CASSCF convergence/infrastructure, NEVPT2, NEVPT3, NEVPT4(SD), FIC-MRCI and CEPA variants
  Bernardo de Souza      : ESD, SOC TD-DFT                               
  Georgi L. Stoychev     : AutoAux, RI-MP2 NMR, DLPNO-MP2 response, X2C  
  Van Anh Tran           : RI-MP2 g-tensors                              
  Willem Van den Heuvel  : Paramagnetic NMR                              
  Zikuan Wang            : NOTCH, Electric field optimization            
  Frank Wennmohs         : Technical directorship and infrastructure     
  Hang Xu                : AUTO-CI-Response properties                   
                                                                         
[FACCTs GmbH]                                                            
  Markus Bursch, Nicolas Foglia, Miquel Garcia-Rates, Ingolf Harden, Hagen Neugebauer, Anastasios Papadopoulos, 
  Christoph Riplinger, Bernardo de Souza, Georgi L. Stoychev                                                    
                                                                 
  APM, various basis sets, CI-OPT, improved COSX, DLPNO-Multilevel,           
  DOCKER, DRACO, updates on ESD, Fragmentator, GOAT, IRC, LR-CPCM, L-BFGS, MBIS, meta-GGA TD-DFT gradient, ML-optimized integration grids, 
  MM, NACMEs, nearIR, NEB, NEB-TS, NL-DFT gradient (VV10), 2- and 3-layer-ONIOM, interface openCOSMO-RS, QMMM,   
  Crystal-QMMM, RESP, rigid body optimization, SF, symmetry and pop. for TD-DFT, various functionals, SOLVATOR                                   
                                                                         
[Other institutions]                                                     
  V. Asgeirsson          : NEB                                           
  Christoph Bannwarth    : sTDA-DFT, sTD-DFT, PBEh-3c, B97-3c, D3        
  Giovanni Bistoni       : ETS/NOCV, ADLD/ADEX, COVALED                  
  Martin Brehm           : Molecular dynamics                            
  Ronald Cardenas        : ETS/NOCV                                      
  Martina Colucci        : COVALED                                       
  Sebastian Ehlert       : rSCAN, r2SCAN, r2SCAN-3c, D4, dhf basis sets  
  Marvin Friede          : D4 for Fr, Ra, Ac-Lr                          
  Lars Goerigk           : TD-DFT with DH, B97 family of functionals     
  Stefan Grimme          : VdW corrections, initial TS optimization, DFT functionals, gCP, sTDA/sTD-DF 
  Waldemar Hujo          : DFT-NL                                        
  H. Jonsson             : NEB                                           
  Holger Kruse           : gCP                                           
  Marcel Mueller         : wB97X-3c, vDZP basis set                      
  Hagen Neugebauer       : wr2SCAN, Native XTB                           
  Gianluca Regni         : ADLD/ADEX                                     
  Tobias Risthaus        : pre 6.0 range-separated hybrid DFT and stability analysis
  Lukas Wittmann         : regularized MP2, r2SCAN double-hybrids, wr2SCAN        
                                                                         
We gratefully acknowledge several colleagues who have allowed us to      
interface, adapt or use parts of their codes:                            
  Ed Valeev, F. Pavosevic, A. Kumar             : LibInt (2-el integral package), F12 methods 
  Garnet Chan, S. Sharma, J. Yang, R. Olivares  : DMRG                   
  Ulf Ekstrom                                   : XCFun DFT Library      
  Mihaly Kallay                                 : mrcc  (arbitrary order and MRCC methods)
  Frank Weinhold                                : gennbo (NPA and NBO analysis)           
  Simon Mueller                                 : openCOSMO-RS                            
  Christopher J. Cramer and Donald G. Truhlar   : smd solvation model                     
  S Lehtola, MJT Oliveira, MAL Marques          : LibXC Library                           
  Liviu Ungur et al                             : ANISO software                          


 Your calculation uses the libint2 library for the computation of 2-el integrals
 For citations please refer to: http://libint.valeyev.net

 Your ORCA version has been built with support for libXC version: 7.0.0
 For citations please refer to: https://libxc.gitlab.io

 This ORCA versions uses:
   CBLAS   interface :  Fast vector & matrix operations
   LAPACKE interface :  Fast linear algebra routines
   SCALAPACK package :  Parallel linear algebra routines
   Shared memory     :  Shared parallel matrices
   BLAS/LAPACK       :  OpenBLAS 0.3.29  USE64BITINT DYNAMIC_ARCH NO_AFFINITY SkylakeX SINGLE_THREADED
        Core in use  :  SkylakeX
   Copyright (c) 2011-2014, The OpenBLAS Project


  ***********************************
  * Starting time: Mon Mar 16 14:16:55 2026
  * Host name:     midway3-login4.rcc.local
  * Process ID:    81294
  * Working dir.:  /home/rzhu16/evans-polanyi-principle-validation/runs/sn2_cl_br/geo_opt_reactant_product
  ***********************************

Your calculation utilizes the semiempirical GFN2-xTB method
Please cite in your paper:
Bannwarth, C.; Ehlert S.; Grimme, S. J. Chem. Theory Comput. 2019, 15, 1652.
   

================================================================================

================================================================================
                                        WARNINGS
                       Please study these warnings very carefully!
================================================================================


WARNING: Analytical Hessian for XTB is limited in the analysis of the data.
       : If you want to obtain extensive IR and deltaG analysis, please use ! XTB NumFreq. 


WARNING: Geometry Optimization
  ===> : Switching off AutoStart
         For restart on a previous wavefunction, please use MOREAD

WARNING: Found dipole moment calculation with XTB calculation
  ===> : Switching off dipole moment calculation


WARNING: Found frequency calculation in combination with XTB calculation
  ===> : Need to redirect dipole moment calculation to properties.out


================================================================================
                                       INPUT FILE
================================================================================
NAME = reactant_optfreq.inp
|  1> ! XTB2 Opt Freq PAL8
|  2> 
|  3> %geom
|  4>   MaxIter 500
|  5> end
|  6> 
|  7> * xyz -1 1
|  8>   C       0.000366     -0.000167     -0.330534
|  9>   H      -0.000015      1.027390      0.006724
| 10>   H       0.889450     -0.513531      0.006624
| 11>   H      -0.889794     -0.513712      0.006735
| 12>   Cl     -0.000001      0.000001      2.470006
| 13>   Br     -0.000006      0.000001     -2.276260
| 14> *
| 15> 
| 16>                          ****END OF INPUT****
================================================================================

                       *****************************
                       * Geometry Optimization Run *
                       *****************************

Geometry optimization settings:
Update method            Update   .... BFGS
Choice of coordinates    CoordSys .... (2022) Redundant Internals
Initial Hessian          InHess   .... Almloef's Model
Max. no of cycles        MaxIter  .... 500

Convergence Tolerances:
Energy Change            TolE     ....  5.0000e-06 Eh
Max. Gradient            TolMAXG  ....  3.0000e-04 Eh/bohr
RMS Gradient             TolRMSG  ....  1.0000e-04 Eh/bohr
Max. Displacement        TolMAXD  ....  4.0000e-03 bohr
RMS Displacement         TolRMSD  ....  2.0000e-03 bohr
Strict Convergence                .... False

------------------------------------------------------------------------------
                        ORCA OPTIMIZATION COORDINATE SETUP
------------------------------------------------------------------------------

The optimization will be done in redundant internal coordinates (2022)
Making redundant internal coordinates   ...  (2022 redundants) done
Evaluating the initial hessian          ...  (Almloef) done
Evaluating the coordinates              ...  done
Calculating the B-matrix                .... done
Calculating the G-matrix                .... done
The number of degrees of freedom        ....   17

    -----------------------------------------------------------------
                    Redundant Internal Coordinates


    -----------------------------------------------------------------
         Definition                    Initial Value    Approx d2E/dq
    -----------------------------------------------------------------
      1. B(H   1,C   0)                  1.0815         0.371538   
      2. B(H   2,C   0)                  1.0806         0.372757   
      3. B(H   3,C   0)                  1.0816         0.371382   
      4. B(Cl  4,H   1)                  2.6689         0.010000   
      5. B(Cl  4,H   2)                  2.6689         0.010000   
      6. B(Cl  4,H   3)                  2.6690         0.010000   
      7. B(Cl  4,C   0)                  2.8005         0.010000   
      8. B(Br  5,C   0)                  1.9457         0.272651   
      9. A(H   1,C   0,H   3)          110.7072         0.293697   
     10. A(H   2,C   0,H   3)          110.7496         0.293849   
     11. A(H   1,C   0,Br  5)          108.1656         0.328436   
     12. A(H   2,C   0,Br  5)          108.1924         0.328613   
     13. A(H   3,C   0,Br  5)          108.1621         0.328413   
     14. A(H   1,C   0,Cl  4)           71.8260         0.193648   
     15. A(H   2,C   0,Cl  4)           71.8278         0.193725   
     16. A(H   3,C   0,Cl  4)           71.8261         0.193638   
     17. A(H   1,C   0,H   2)          110.7551         0.293869   
    -----------------------------------------------------------------

Number of atoms                         .... 6
Number of degrees of freedom            .... 17


         *************************************************************
         *                GEOMETRY OPTIMIZATION CYCLE   1            *
         *************************************************************
---------------------------------
CARTESIAN COORDINATES (ANGSTROEM)
---------------------------------
  C     0.000366   -0.000167   -0.330534
  H    -0.000015    1.027390    0.006724
  H     0.889450   -0.513531    0.006624
  H    -0.889794   -0.513712    0.006735
  Cl   -0.000001    0.000001    2.470006
  Br   -0.000006    0.000001   -2.276260

----------------------------
CARTESIAN COORDINATES (A.U.)
----------------------------
  NO LB    ZA    FRAG    MASS        X           Y           Z
   0 C   6.0000    0    12.011    0.000692   -0.000316   -0.624619
   1 H   1.0000    0     1.008   -0.000028    1.941486    0.012707
   2 H   1.0000    0     1.008    1.680817   -0.970433    0.012518
   3 H   1.0000    0     1.008   -1.681467   -0.970775    0.012727
   4 Cl 17.0000    0    35.453   -0.000002    0.000002    4.667635
   5 Br 35.0000    0    79.900   -0.000011    0.000002   -4.301508

      -----------------------------------------------------------      
     |                   =====================                   |     
     |                           x T B                           |     
     |                   =====================                   |     
     |                         S. Grimme                         |     
     |          Mulliken Center for Theoretical Chemistry        |     
     |                    University of Bonn                     |     
      -----------------------------------------------------------      

   * xtb version 6.7.1 (edcfbbe) compiled by 'albert@albert-system' on 2024-07-22

   xtb is free software: you can redistribute it and/or modify it under
   the terms of the GNU Lesser General Public License as published by
   the Free Software Foundation, either version 3 of the License, or
   (at your option) any later version.
   
   xtb is distributed in the hope that it will be useful,
   but WITHOUT ANY WARRANTY; without even the implied warranty of
   MERCHANTABILITY or FITNESS FOR A PARTICULAR PURPOSE.  See the
   GNU Lesser General Public License for more details.
   
   Cite this work as:
   * C. Bannwarth, E. Caldeweyher, S. Ehlert, A. Hansen, P. Pracht,
     J. Seibert, S. Spicher, S. Grimme, WIREs Comput. Mol. Sci., 2020, 11,
     e01493. DOI: 10.1002/wcms.1493
   
   for GFN2-xTB:
   * C. Bannwarth, S. Ehlert and S. Grimme., J. Chem. Theory Comput., 2019,
     15, 1652-1671. DOI: 10.1021/acs.jctc.8b01176
   for GFN1-xTB:
   * S. Grimme, C. Bannwarth, P. Shushkov, J. Chem. Theory Comput., 2017,
     13, 1989-2009. DOI: 10.1021/acs.jctc.7b00118
   for GFN0-xTB:
   * P. Pracht, E. Caldeweyher, S. Ehlert, S. Grimme, ChemRxiv, 2019, preprint.
     DOI: 10.26434/chemrxiv.8326202.v1
   for GFN-FF:
   * S. Spicher and S. Grimme, Angew. Chem. Int. Ed., 2020, 59, 15665-15673.
     DOI: 10.1002/anie.202004239
   
   for ALPB and GBSA implicit solvation:
   * S. Ehlert, M. Stahn, S. Spicher, S. Grimme, J. Chem. Theory Comput.,
     2021, 17, 4250-4261. DOI: 10.1021/acs.jctc.1c00471
   
   for ddCOSMO and CPCM-X implicit solvation:
   * M. Stahn, S. Ehlert, S. Grimme, J. Phys. Chem. A,
     2023, XX, XXXX-XXXX. DOI: 10.1021/acs.jpca.3c04382
   
   for DFT-D4:
   * E. Caldeweyher, C. Bannwarth and S. Grimme, J. Chem. Phys., 2017,
     147, 034112. DOI: 10.1063/1.4993215
   * E. Caldeweyher, S. Ehlert, A. Hansen, H. Neugebauer, S. Spicher,
     C. Bannwarth and S. Grimme, J. Chem. Phys., 2019, 150, 154122.
     DOI: 10.1063/1.5090222
   * E. Caldeweyher, J.-M. Mewes, S. Ehlert and S. Grimme, Phys. Chem. Chem. Phys.
     2020, 22, 8499-8512. DOI: 10.1039/D0CP00502A
   
   for sTDA-xTB:
   * S. Grimme and C. Bannwarth, J. Chem. Phys., 2016, 145, 054103.
     DOI: 10.1063/1.4959605
   
   in the mass-spec context:
   * V. Asgeirsson, C. Bauer and S. Grimme, Chem. Sci., 2017, 8, 4879.
     DOI: 10.1039/c7sc00601b
   * J. Koopman and S. Grimme, ACS Omega 2019, 4, 12, 15120-15133.
     DOI: 10.1021/acsomega.9b02011
   
   for metadynamics refer to:
   * S. Grimme, J. Chem. Theory Comput., 2019, 155, 2847-2862
     DOI: 10.1021/acs.jctc.9b00143
   
   for SPH calculations refer to:
   * S. Spicher and S. Grimme, J. Chem. Theory Comput., 2021, 17, 1701-1714
     DOI: 10.1021/acs.jctc.0c01306
   
   for ONIOM refer to:
   * C. Plett, A. Katbashev, S. Ehlert, S. Grimme, M. Bursch,
     Phys. Chem. Chem. Phys., 2023, 25, 17860-17868. DOI: 10.1039/D3CP02178E
   
   for DIPRO refer to:
   * J. Kohn, N. Gildemeister, S. Grimme, D. Fazzi, A. Hansen,
     J. Chem. Phys., 2023, just accepted.
   
   for PTB refer to:
   * S. Grimme, M. Mueller, A. Hansen, J. Chem. Phys., 2023, 158, 124111.
     DOI: 10.1063/5.0137838
   
   with help from (in alphabetical order)
   P. Atkinson, C. Bannwarth, F. Bohle, G. Brandenburg, E. Caldeweyher
   M. Checinski, S. Dohm, S. Ehlert, S. Ehrlich, I. Gerasimov, C. Hölzer
   A. Katbashev, J. Kohn, J. Koopman, C. Lavigne, S. Lehtola, F. März, M. Müller,
   F. Musil, H. Neugebauer, J. Pisarek, C. Plett, P. Pracht, F. Pultar,
   J. Seibert, P. Shushkov, S. Spicher, M. Stahn, M. Steiner, T. Strunk,
   J. Stückrath, T. Rose, and J. Unsleber
   
 * started run on 2026/03/16 at 14:16:55.676     
   ID    Z sym.   atoms
    1    6 C      1
    2    1 H      2-4
    3   17 Cl     5
    4   35 Br     6

           -------------------------------------------------
          |                Calculation Setup                |
           -------------------------------------------------

          program call               : /software/orca-6.1.0-el8-x86_64/bin/otool_xtb reactant_optfreq_XTB.xyz --grad -c -1 -u 0 -P 8 --namespace reactant_optfreq --input reactant_optfreq_XTB.input.tmp --acc 0.200000
          hostname                   : midway3-login4.rcc.local
          calculation namespace      : reactant_optfreq
          coordinate file            : reactant_optfreq_XTB.xyz
          omp threads                :                     8


molecular fragmentation (1/2 indicates fragments):
111121
# atoms in fragment 1/2:     5     1
 fragment masses (1/2) :       94.94       35.45
CMA distance (Bohr)    :   8.367
constraining FC (au)   :  0.0500

           -------------------------------------------------
          |                 G F N 2 - x T B                 |
           -------------------------------------------------

        Reference                      10.1021/acs.jctc.8b01176
      * Hamiltonian:
        H0-scaling (s, p, d)           1.850000    2.230000    2.230000
        zeta-weighting                 0.500000
      * Dispersion:
        s8                             2.700000
        a1                             0.520000
        a2                             5.000000
        s9                             5.000000
      * Repulsion:
        kExp                           1.500000    1.000000
        rExp                           1.000000
      * Coulomb:
        alpha                          2.000000
        third order                    shell-resolved
        anisotropic                    true
        a3                             3.000000
        a5                             4.000000
        cn-shift                       1.200000
        cn-exp                         4.000000
        max-rad                        5.000000


          ...................................................
          :                      SETUP                      :
          :.................................................:
          :  # basis functions                  27          :
          :  # atomic orbitals                  25          :
          :  # shells                           11          :
          :  # electrons                        22          :
          :  max. iterations                   250          :
          :  Hamiltonian                  GFN2-xTB          :
          :  restarted?                      false          :
          :  GBSA solvation                  false          :
          :  PC potential                    false          :
          :  electronic temp.          300.0000000     K    :
          :  accuracy                    0.2000000          :
          :  -> integral cutoff          0.3198970E+02      :
          :  -> integral neglect         0.2000000E-08      :
          :  -> SCF convergence          0.2000000E-06 Eh   :
          :  -> wf. convergence          0.2000000E-04 e    :
          :  Broyden damping             0.4000000          :
          :  net charge                         -1          :
          :  unpaired electrons                  0          :
          ...................................................

 iter      E             dE          RMSdq      gap      omega  full diag
   1    -12.5693244 -0.125693E+02  0.744E+00    6.09       0.0  T
   2    -12.6044292 -0.351048E-01  0.469E+00    4.93       1.0  T
   3    -12.6082529 -0.382371E-02  0.211E+00    3.64       1.0  T
   4    -12.6108531 -0.260014E-02  0.136E+00    3.44       1.0  T
   5    -12.6119272 -0.107409E-02  0.678E-01    3.27       1.0  T
   6    -12.6124445 -0.517383E-03  0.249E-01    3.12       1.0  T
   7    -12.6125050 -0.605093E-04  0.321E-02    3.22       1.3  T
   8    -12.6125059 -0.861233E-06  0.156E-02    3.21       2.6  T
   9    -12.6125063 -0.342581E-06  0.914E-03    3.21       4.5  T
  10    -12.6125064 -0.112823E-06  0.125E-03    3.21      32.5  T
  11    -12.6125064 -0.165413E-08  0.714E-04    3.21      57.2  T
  12    -12.6125064 -0.131307E-08  0.142E-04    3.21     286.9  T
  13    -12.6125064 -0.301767E-10  0.111E-05    3.21    3694.0  T

   *** convergence criteria satisfied after 13 iterations ***

         #    Occupation            Energy/Eh            Energy/eV
      -------------------------------------------------------------
         1        2.0000           -0.8013156             -21.8049
       ...           ...                  ...                  ...
         5        2.0000           -0.3686745             -10.0321
         6        2.0000           -0.3567831              -9.7086
         7        2.0000           -0.2857655              -7.7761
         8        2.0000           -0.2857562              -7.7758
         9        2.0000           -0.2008893              -5.4665
        10        2.0000           -0.2001383              -5.4460
        11        2.0000           -0.2001380              -5.4460 (HOMO)
        12                         -0.0821758              -2.2361 (LUMO)
        13                          0.1637919               4.4570
        14                          0.1638380               4.4583
        15                          0.1817178               4.9448
        16                          0.1817245               4.9450
       ...                                ...                  ...
        25                          0.5155985              14.0302
      -------------------------------------------------------------
                  HL-Gap            0.1179622 Eh            3.2099 eV
             Fermi-level           -0.1411569 Eh           -3.8411 eV

 SCC (total)                   0 d,  0 h,  0 min,  0.155 sec
 SCC setup                      ...        0 min,  0.000 sec (  0.131%)
 Dispersion                     ...        0 min,  0.000 sec (  0.041%)
 classical contributions        ...        0 min,  0.000 sec (  0.018%)
 integral evaluation            ...        0 min,  0.079 sec ( 50.707%)
 iterations                     ...        0 min,  0.002 sec (  1.342%)
 molecular gradient             ...        0 min,  0.074 sec ( 47.602%)
 printout                       ...        0 min,  0.000 sec (  0.146%)

         :::::::::::::::::::::::::::::::::::::::::::::::::::::
         ::                     SUMMARY                     ::
         :::::::::::::::::::::::::::::::::::::::::::::::::::::
         :: total energy             -12.553488618090 Eh    ::
         :: gradient norm              0.002049606056 Eh/a0 ::
         :: HOMO-LUMO gap              3.209915573557 eV    ::
         ::.................................................::
         :: SCC energy               -12.612506971690 Eh    ::
         :: -> isotropic ES            0.149685924605 Eh    ::
         :: -> anisotropic ES         -0.009920294467 Eh    ::
         :: -> anisotropic XC         -0.010658603145 Eh    ::
         :: -> dispersion             -0.002858193326 Eh    ::
         :: repulsion energy           0.059018353600 Eh    ::
         :: add. restraining           0.000000000000 Eh    ::
         :: total charge              -1.000000000000 e     ::
         :::::::::::::::::::::::::::::::::::::::::::::::::::::


Property printout bound to 'properties.out'

           -------------------------------------------------
          | TOTAL ENERGY              -12.553488618090 Eh   |
          | GRADIENT NORM               0.002049606056 Eh/α |
          | HOMO-LUMO GAP               3.209915573557 eV   |
           -------------------------------------------------

------------------------------------------------------------------------
 * finished run on 2026/03/16 at 14:16:55.853     
------------------------------------------------------------------------
 total:
 * wall-time:     0 d,  0 h,  0 min,  0.176 sec
 *  cpu-time:     0 d,  0 h,  0 min,  0.313 sec
 * ratio c/w:     1.779 speedup
 SCF:
 * wall-time:     0 d,  0 h,  0 min,  0.156 sec
 *  cpu-time:     0 d,  0 h,  0 min,  0.242 sec
 * ratio c/w:     1.552 speedup


-------------------------   --------------------
FINAL SINGLE POINT ENERGY       -12.553488618090
-------------------------   --------------------


-------------
DIPOLE MOMENT
-------------
                                X             Y             Z
Total Dipole Moment    :      0.00000      -0.00000      -2.03300
                        -----------------------------------------
Magnitude (a.u.)       :      2.03300
Magnitude (Debye)      :      5.16748


------------------
CARTESIAN GRADIENT
------------------

   1   C   :    0.000546901   -0.000244191    0.000319415
   2   H   :   -0.000021558    0.000219289    0.000422212
   3   H   :   -0.000254362    0.000143959    0.000264800
   4   H   :   -0.000255960   -0.000125783    0.000442314
   5   Cl  :   -0.000001646    0.000000747   -0.001732127
   6   Br  :   -0.000013375    0.000005980    0.000283386

Difference to translation invariance:
           :   -0.0000000000   -0.0000000000   -0.0000000000

Difference to rotation invariance:
           :   -0.0000000232   -0.0000000223    0.0000000000

Norm of the Cartesian gradient     ...    0.0020496061
RMS gradient                       ...    0.0004830968
MAX gradient                       ...    0.0017321275
------------------------------------------------------------------------------
                         ORCA GEOMETRY RELAXATION STEP
------------------------------------------------------------------------------

Reading the OPT-File                    .... done
Getting information on internals        .... done
Copying old internal coords+grads       .... done
Making the new internal coordinates     .... (2022 redundants) done
Validating the new internal coordinates .... (2022 redundants) done
Calculating the B-matrix                .... done
Calculating the G,G- and P matrices     .... done
Transforming gradient to internals      .... done
Projecting the internal gradient        .... done
Number of atoms                         ....   6
Number of internal coordinates          ....  17
Current Energy                          ....   -12.553488618 Eh
Current gradient norm                   ....     0.002049606 Eh/bohr
Maximum allowed component of the step   ....  0.300
Current trust radius                    ....  0.300
Evaluating the initial hessian          ....  (Almloef) done
Projecting the Hessian                  .... done
Forming the augmented Hessian           .... done
Diagonalizing the augmented Hessian     .... done
Last element of RFO vector              ....  0.995875068
Lowest eigenvalues of augmented Hessian:
 -0.000085151  0.010083670  0.045626871  0.045670552  0.196263684
Length of the computed step             ....  0.091110872
The final length of the internal step   ....  0.091110872
Converting the step to Cartesian space:
 Initial RMS(Int)=    0.0220976323
Transforming coordinates:
 Iter   0:  RMS(Cart)=    0.0105065608 RMS(Int)=    0.0221106594
done
Storing new coordinates                 .... done

                                .--------------------.
          ----------------------|Geometry convergence|-------------------------
          Item                value                   Tolerance       Converged
          ---------------------------------------------------------------------
          RMS gradient        0.0002792792            0.0001000000      NO
          MAX gradient        0.0005861778            0.0003000000      NO
          RMS step            0.0220976323            0.0020000000      NO
          MAX step            0.0487965897            0.0040000000      NO
          -------------------------------------------------------------------------
          ........................................................
          Max(Bonds)      0.0258      Max(Angles)    0.02
          Max(Dihed)        0.00      Max(Improp)    0.00
          ---------------------------------------------------------------------

The optimization has not yet converged - more geometry cycles are needed


    ---------------------------------------------------------------------------
                         Redundant Internal Coordinates
                            (Angstroem and degrees)

        Definition                    Value    dE/dq     Step     New-Value
    ----------------------------------------------------------------------------
     1. B(H   1,C   0)                1.0815  0.000372 -0.0005    1.0810   
     2. B(H   2,C   0)                1.0806 -0.000163  0.0002    1.0808   
     3. B(H   3,C   0)                1.0816  0.000440 -0.0006    1.0810   
     4. B(Cl  4,H   1)                2.6689 -0.000413  0.0235    2.6924   
     5. B(Cl  4,H   2)                2.6689 -0.000417  0.0235    2.6924   
     6. B(Cl  4,H   3)                2.6690 -0.000412  0.0235    2.6925   
     7. B(Cl  4,C   0)                2.8005 -0.000586  0.0258    2.8264   
     8. B(Br  5,C   0)                1.9457 -0.000283  0.0005    1.9463   
     9. A(H   1,C   0,H   3)          110.71  0.000020   -0.01    110.70   
    10. A(H   2,C   0,H   3)          110.75  0.000064   -0.02    110.73   
    11. A(H   1,C   0,Br  5)          108.17 -0.000069    0.02    108.18   
    12. A(H   2,C   0,Br  5)          108.19 -0.000018    0.01    108.20   
    13. A(H   3,C   0,Br  5)          108.16 -0.000075    0.02    108.18   
    14. A(H   1,C   0,Cl  4)           71.83  0.000049   -0.02     71.81   
    15. A(H   2,C   0,Cl  4)           71.83  0.000067   -0.02     71.81   
    16. A(H   3,C   0,Cl  4)           71.83  0.000046   -0.02     71.81   
    17. A(H   1,C   0,H   2)          110.76  0.000070   -0.02    110.74   
    ----------------------------------------------------------------------------

Geometry step timings:
Preparation and reading OPT file:      0.000 s ( 2.662 %)
Internal coordinates            :      0.000 s ( 5.595 %)
B/P matrices and projection     :      0.000 s (11.950 %)
Hessian update/contruction      :      0.001 s (33.026 %)
Making the step                 :      0.000 s (11.787 %)
Converting the step to Cartesian:      0.000 s ( 4.889 %)
Storing new data                :      0.000 s ( 6.681 %)
Checking convergence            :      0.000 s ( 4.617 %)
Final printing                  :      0.000 s (18.523 %)
Total time                      :      0.002 s

Time for energy+gradient        :      0.188 s
Time for complete geometry iter :      0.192 s

         *************************************************************
         *                GEOMETRY OPTIMIZATION CYCLE   2            *
         *************************************************************
---------------------------------
CARTESIAN COORDINATES (ANGSTROEM)
---------------------------------
  C     0.000174   -0.000081   -0.334846
  H    -0.000126    1.026864    0.002562
  H     0.889375   -0.513502    0.002645
  H    -0.889339   -0.513335    0.002550
  Cl   -0.000013    0.000006    2.491506
  Br   -0.000071    0.000030   -2.281121

----------------------------
CARTESIAN COORDINATES (A.U.)
----------------------------
  NO LB    ZA    FRAG    MASS        X           Y           Z
   0 C   6.0000    0    12.011    0.000329   -0.000154   -0.632767
   1 H   1.0000    0     1.008   -0.000238    1.940492    0.004842
   2 H   1.0000    0     1.008    1.680676   -0.970378    0.004998
   3 H   1.0000    0     1.008   -1.680606   -0.970063    0.004818
   4 Cl 17.0000    0    35.453   -0.000025    0.000012    4.708263
   5 Br 35.0000    0    79.900   -0.000134    0.000056   -4.310695

      -----------------------------------------------------------      
     |                   =====================                   |     
     |                           x T B                           |     
     |                   =====================                   |     
     |                         S. Grimme                         |     
     |          Mulliken Center for Theoretical Chemistry        |     
     |                    University of Bonn                     |     
      -----------------------------------------------------------      

   * xtb version 6.7.1 (edcfbbe) compiled by 'albert@albert-system' on 2024-07-22

   xtb is free software: you can redistribute it and/or modify it under
   the terms of the GNU Lesser General Public License as published by
   the Free Software Foundation, either version 3 of the License, or
   (at your option) any later version.
   
   xtb is distributed in the hope that it will be useful,
   but WITHOUT ANY WARRANTY; without even the implied warranty of
   MERCHANTABILITY or FITNESS FOR A PARTICULAR PURPOSE.  See the
   GNU Lesser General Public License for more details.
   
   Cite this work as:
   * C. Bannwarth, E. Caldeweyher, S. Ehlert, A. Hansen, P. Pracht,
     J. Seibert, S. Spicher, S. Grimme, WIREs Comput. Mol. Sci., 2020, 11,
     e01493. DOI: 10.1002/wcms.1493
   
   for GFN2-xTB:
   * C. Bannwarth, S. Ehlert and S. Grimme., J. Chem. Theory Comput., 2019,
     15, 1652-1671. DOI: 10.1021/acs.jctc.8b01176
   for GFN1-xTB:
   * S. Grimme, C. Bannwarth, P. Shushkov, J. Chem. Theory Comput., 2017,
     13, 1989-2009. DOI: 10.1021/acs.jctc.7b00118
   for GFN0-xTB:
   * P. Pracht, E. Caldeweyher, S. Ehlert, S. Grimme, ChemRxiv, 2019, preprint.
     DOI: 10.26434/chemrxiv.8326202.v1
   for GFN-FF:
   * S. Spicher and S. Grimme, Angew. Chem. Int. Ed., 2020, 59, 15665-15673.
     DOI: 10.1002/anie.202004239
   
   for ALPB and GBSA implicit solvation:
   * S. Ehlert, M. Stahn, S. Spicher, S. Grimme, J. Chem. Theory Comput.,
     2021, 17, 4250-4261. DOI: 10.1021/acs.jctc.1c00471
   
   for ddCOSMO and CPCM-X implicit solvation:
   * M. Stahn, S. Ehlert, S. Grimme, J. Phys. Chem. A,
     2023, XX, XXXX-XXXX. DOI: 10.1021/acs.jpca.3c04382
   
   for DFT-D4:
   * E. Caldeweyher, C. Bannwarth and S. Grimme, J. Chem. Phys., 2017,
     147, 034112. DOI: 10.1063/1.4993215
   * E. Caldeweyher, S. Ehlert, A. Hansen, H. Neugebauer, S. Spicher,
     C. Bannwarth and S. Grimme, J. Chem. Phys., 2019, 150, 154122.
     DOI: 10.1063/1.5090222
   * E. Caldeweyher, J.-M. Mewes, S. Ehlert and S. Grimme, Phys. Chem. Chem. Phys.
     2020, 22, 8499-8512. DOI: 10.1039/D0CP00502A
   
   for sTDA-xTB:
   * S. Grimme and C. Bannwarth, J. Chem. Phys., 2016, 145, 054103.
     DOI: 10.1063/1.4959605
   
   in the mass-spec context:
   * V. Asgeirsson, C. Bauer and S. Grimme, Chem. Sci., 2017, 8, 4879.
     DOI: 10.1039/c7sc00601b
   * J. Koopman and S. Grimme, ACS Omega 2019, 4, 12, 15120-15133.
     DOI: 10.1021/acsomega.9b02011
   
   for metadynamics refer to:
   * S. Grimme, J. Chem. Theory Comput., 2019, 155, 2847-2862
     DOI: 10.1021/acs.jctc.9b00143
   
   for SPH calculations refer to:
   * S. Spicher and S. Grimme, J. Chem. Theory Comput., 2021, 17, 1701-1714
     DOI: 10.1021/acs.jctc.0c01306
   
   for ONIOM refer to:
   * C. Plett, A. Katbashev, S. Ehlert, S. Grimme, M. Bursch,
     Phys. Chem. Chem. Phys., 2023, 25, 17860-17868. DOI: 10.1039/D3CP02178E
   
   for DIPRO refer to:
   * J. Kohn, N. Gildemeister, S. Grimme, D. Fazzi, A. Hansen,
     J. Chem. Phys., 2023, just accepted.
   
   for PTB refer to:
   * S. Grimme, M. Mueller, A. Hansen, J. Chem. Phys., 2023, 158, 124111.
     DOI: 10.1063/5.0137838
   
   with help from (in alphabetical order)
   P. Atkinson, C. Bannwarth, F. Bohle, G. Brandenburg, E. Caldeweyher
   M. Checinski, S. Dohm, S. Ehlert, S. Ehrlich, I. Gerasimov, C. Hölzer
   A. Katbashev, J. Kohn, J. Koopman, C. Lavigne, S. Lehtola, F. März, M. Müller,
   F. Musil, H. Neugebauer, J. Pisarek, C. Plett, P. Pracht, F. Pultar,
   J. Seibert, P. Shushkov, S. Spicher, M. Stahn, M. Steiner, T. Strunk,
   J. Stückrath, T. Rose, and J. Unsleber
   
 * started run on 2026/03/16 at 14:16:55.869     
   ID    Z sym.   atoms
    1    6 C      1
    2    1 H      2-4
    3   17 Cl     5
    4   35 Br     6

           -------------------------------------------------
          |                Calculation Setup                |
           -------------------------------------------------

          program call               : /software/orca-6.1.0-el8-x86_64/bin/otool_xtb reactant_optfreq_XTB.xyz --grad -c -1 -u 0 -P 8 --namespace reactant_optfreq --input reactant_optfreq_XTB.input.tmp --acc 0.200000
          hostname                   : midway3-login4.rcc.local
          calculation namespace      : reactant_optfreq
          coordinate file            : reactant_optfreq_XTB.xyz
          omp threads                :                     8


molecular fragmentation (1/2 indicates fragments):
111121
# atoms in fragment 1/2:     5     1
 fragment masses (1/2) :       94.94       35.45
CMA distance (Bohr)    :   8.416
constraining FC (au)   :  0.0500

           -------------------------------------------------
          |                 G F N 2 - x T B                 |
           -------------------------------------------------

        Reference                      10.1021/acs.jctc.8b01176
      * Hamiltonian:
        H0-scaling (s, p, d)           1.850000    2.230000    2.230000
        zeta-weighting                 0.500000
      * Dispersion:
        s8                             2.700000
        a1                             0.520000
        a2                             5.000000
        s9                             5.000000
      * Repulsion:
        kExp                           1.500000    1.000000
        rExp                           1.000000
      * Coulomb:
        alpha                          2.000000
        third order                    shell-resolved
        anisotropic                    true
        a3                             3.000000
        a5                             4.000000
        cn-shift                       1.200000
        cn-exp                         4.000000
        max-rad                        5.000000

q/qsh data taken from xtbrestart
CAMM data taken from xtbrestart

          ...................................................
          :                      SETUP                      :
          :.................................................:
          :  # basis functions                  27          :
          :  # atomic orbitals                  25          :
          :  # shells                           11          :
          :  # electrons                        22          :
          :  max. iterations                   250          :
          :  Hamiltonian                  GFN2-xTB          :
          :  restarted?                       true          :
          :  GBSA solvation                  false          :
          :  PC potential                    false          :
          :  electronic temp.          300.0000000     K    :
          :  accuracy                    0.2000000          :
          :  -> integral cutoff          0.3198970E+02      :
          :  -> integral neglect         0.2000000E-08      :
          :  -> SCF convergence          0.2000000E-06 Eh   :
          :  -> wf. convergence          0.2000000E-04 e    :
          :  Broyden damping             0.4000000          :
          :  net charge                         -1          :
          :  unpaired electrons                  0          :
          ...................................................

 iter      E             dE          RMSdq      gap      omega  full diag
   1    -12.6126770 -0.126127E+02  0.524E-02    3.17       0.0  T
   2    -12.6126795 -0.245977E-05  0.280E-02    3.16       1.5  T
   3    -12.6126798 -0.352848E-06  0.166E-02    3.16       2.5  T
   4    -12.6126799 -0.998520E-07  0.786E-03    3.15       5.2  T
   5    -12.6126800 -0.428548E-07  0.479E-03    3.15       8.5  T
   6    -12.6126800 -0.241613E-07  0.116E-03    3.15      35.2  T
   7    -12.6126800 -0.455486E-09  0.256E-04    3.15     159.2  T
   8    -12.6126800 -0.436771E-10  0.171E-04    3.15     238.6  T
   9    -12.6126800 -0.591509E-10  0.412E-05    3.15     991.4  T

   *** convergence criteria satisfied after 9 iterations ***

         #    Occupation            Energy/Eh            Energy/eV
      -------------------------------------------------------------
         1        2.0000           -0.8004441             -21.7812
       ...           ...                  ...                  ...
         5        2.0000           -0.3697382             -10.0611
         6        2.0000           -0.3578785              -9.7384
         7        2.0000           -0.2867869              -7.8039
         8        2.0000           -0.2867802              -7.8037
         9        2.0000           -0.2004036              -5.4533
        10        2.0000           -0.1995473              -5.4300
        11        2.0000           -0.1995471              -5.4300 (HOMO)
        12                         -0.0836583              -2.2765 (LUMO)
        13                          0.1627482               4.4286
        14                          0.1627638               4.4290
        15                          0.1805810               4.9139
        16                          0.1805881               4.9141
       ...                                ...                  ...
        25                          0.5136748              13.9778
      -------------------------------------------------------------
                  HL-Gap            0.1158888 Eh            3.1535 eV
             Fermi-level           -0.1416027 Eh           -3.8532 eV

 SCC (total)                   0 d,  0 h,  0 min,  0.171 sec
 SCC setup                      ...        0 min,  0.000 sec (  0.118%)
 Dispersion                     ...        0 min,  0.000 sec (  0.030%)
 classical contributions        ...        0 min,  0.000 sec (  0.016%)
 integral evaluation            ...        0 min,  0.166 sec ( 96.764%)
 iterations                     ...        0 min,  0.004 sec (  2.052%)
 molecular gradient             ...        0 min,  0.002 sec (  0.882%)
 printout                       ...        0 min,  0.000 sec (  0.125%)

         :::::::::::::::::::::::::::::::::::::::::::::::::::::
         ::                     SUMMARY                     ::
         :::::::::::::::::::::::::::::::::::::::::::::::::::::
         :: total energy             -12.553551803385 Eh    ::
         :: gradient norm              0.001278153518 Eh/a0 ::
         :: HOMO-LUMO gap              3.153494465690 eV    ::
         ::.................................................::
         :: SCC energy               -12.612680632862 Eh    ::
         :: -> isotropic ES            0.150105949448 Eh    ::
         :: -> anisotropic ES         -0.009760239522 Eh    ::
         :: -> anisotropic XC         -0.010484778542 Eh    ::
         :: -> dispersion             -0.002844334002 Eh    ::
         :: repulsion energy           0.059128829477 Eh    ::
         :: add. restraining           0.000000000000 Eh    ::
         :: total charge              -1.000000000000 e     ::
         :::::::::::::::::::::::::::::::::::::::::::::::::::::


Property printout bound to 'properties.out'

           -------------------------------------------------
          | TOTAL ENERGY              -12.553551803385 Eh   |
          | GRADIENT NORM               0.001278153518 Eh/α |
          | HOMO-LUMO GAP               3.153494465690 eV   |
           -------------------------------------------------

------------------------------------------------------------------------
 * finished run on 2026/03/16 at 14:16:56.061     
------------------------------------------------------------------------
 total:
 * wall-time:     0 d,  0 h,  0 min,  0.192 sec
 *  cpu-time:     0 d,  0 h,  0 min,  0.384 sec
 * ratio c/w:     1.999 speedup
 SCF:
 * wall-time:     0 d,  0 h,  0 min,  0.172 sec
 *  cpu-time:     0 d,  0 h,  0 min,  0.295 sec
 * ratio c/w:     1.719 speedup


-------------------------   --------------------
FINAL SINGLE POINT ENERGY       -12.553551803390
-------------------------   --------------------


-------------
DIPOLE MOMENT
-------------
                                X             Y             Z
Total Dipole Moment    :      0.00000      -0.00000      -2.09800
                        -----------------------------------------
Magnitude (a.u.)       :      2.09800
Magnitude (Debye)      :      5.33269


------------------
CARTESIAN GRADIENT
------------------

   1   C   :    0.000118924   -0.000053011    0.000694322
   2   H   :   -0.000031337   -0.000163084    0.000193669
   3   H   :   -0.000195771    0.000108864    0.000180003
   4   H   :    0.000120623    0.000101662    0.000195430
   5   Cl  :   -0.000000386    0.000000182   -0.000882314
   6   Br  :   -0.000012054    0.000005387   -0.000381110

Difference to translation invariance:
           :    0.0000000000    0.0000000000    0.0000000000

Difference to rotation invariance:
           :    0.0000000011    0.0000000025   -0.0000000000

Norm of the Cartesian gradient     ...    0.0012781535
RMS gradient                       ...    0.0003012637
MAX gradient                       ...    0.0008823144
------------------------------------------------------------------------------
                         ORCA GEOMETRY RELAXATION STEP
------------------------------------------------------------------------------

Reading the OPT-File                    .... done
Getting information on internals        .... done
Copying old internal coords+grads       .... done
Making the new internal coordinates     .... (2022 redundants) done
Validating the new internal coordinates .... (2022 redundants) done
Calculating the B-matrix                .... done
Calculating the G,G- and P matrices     .... done
Transforming gradient to internals      .... done
Projecting the internal gradient        .... done
Number of atoms                         ....   6
Number of internal coordinates          ....  17
Current Energy                          ....   -12.553551803 Eh
Current gradient norm                   ....     0.001278154 Eh/bohr
Maximum allowed component of the step   ....  0.300
Current trust radius                    ....  0.300
Updating the Hessian (BFGS)             .... done
Forming the augmented Hessian           .... done
Diagonalizing the augmented Hessian     .... done
Last element of RFO vector              ....  0.995328288
Lowest eigenvalues of augmented Hessian:
 -0.000046524  0.004882685  0.045626871  0.045670559  0.196825515
Length of the computed step             ....  0.097001591
The final length of the internal step   ....  0.097001591
Converting the step to Cartesian space:
 Initial RMS(Int)=    0.0235263415
Transforming coordinates:
 Iter   0:  RMS(Cart)=    0.0109262119 RMS(Int)=    0.0235390124
done
Storing new coordinates                 .... done
The predicted energy change is          ....    -0.000023481
Previously predicted energy change      ....    -0.000042929
Actually observed energy change         ....    -0.000063185
Ratio of predicted to observed change   ....     1.471865485
New trust radius                        ....     0.300000000

                                .--------------------.
          ----------------------|Geometry convergence|-------------------------
          Item                value                   Tolerance       Converged
          ---------------------------------------------------------------------
          Energy change      -0.0000631853            0.0000050000      NO
          RMS gradient        0.0001531835            0.0001000000      NO
          MAX gradient        0.0003811115            0.0003000000      NO
          RMS step            0.0235263415            0.0020000000      NO
          MAX step            0.0513346438            0.0040000000      NO
          -------------------------------------------------------------------------
          ........................................................
          Max(Bonds)      0.0272      Max(Angles)    0.02
          Max(Dihed)        0.00      Max(Improp)    0.00
          ---------------------------------------------------------------------

The optimization has not yet converged - more geometry cycles are needed


    ---------------------------------------------------------------------------
                         Redundant Internal Coordinates
                            (Angstroem and degrees)

        Definition                    Value    dE/dq     Step     New-Value
    ----------------------------------------------------------------------------
     1. B(H   1,C   0)                1.0810 -0.000077  0.0002    1.0811   
     2. B(H   2,C   0)                1.0808 -0.000139  0.0004    1.0812   
     3. B(H   3,C   0)                1.0810 -0.000069  0.0002    1.0811   
     4. B(Cl  4,H   1)                2.6924 -0.000233  0.0251    2.7176   
     5. B(Cl  4,H   2)                2.6924 -0.000233  0.0251    2.7175   
     6. B(Cl  4,H   3)                2.6925 -0.000233  0.0251    2.7176   
     7. B(Cl  4,C   0)                2.8264 -0.000237  0.0272    2.8535   
     8. B(Br  5,C   0)                1.9463  0.000381 -0.0014    1.9449   
     9. A(H   1,C   0,H   3)          110.70 -0.000049    0.02    110.72   
    10. A(H   2,C   0,H   3)          110.73  0.000016   -0.01    110.72   
    11. A(H   1,C   0,Br  5)          108.18 -0.000010    0.00    108.19   
    12. A(H   2,C   0,Br  5)          108.20  0.000035   -0.01    108.19   
    13. A(H   3,C   0,Br  5)          108.18 -0.000016    0.01    108.19   
    14. A(H   1,C   0,Cl  4)           71.81 -0.000004    0.00     71.81   
    15. A(H   2,C   0,Cl  4)           71.81 -0.000002    0.00     71.81   
    16. A(H   3,C   0,Cl  4)           71.81 -0.000004    0.00     71.81   
    17. A(H   1,C   0,H   2)          110.74  0.000024   -0.01    110.73   
    ----------------------------------------------------------------------------

Geometry step timings:
Preparation and reading OPT file:      0.000 s ( 3.040 %)
Internal coordinates            :      0.000 s ( 5.120 %)
B/P matrices and projection     :      0.000 s (12.640 %)
Hessian update/contruction      :      0.000 s (27.760 %)
Making the step                 :      0.000 s ( 8.160 %)
Converting the step to Cartesian:      0.000 s ( 2.720 %)
Storing new data                :      0.000 s ( 6.720 %)
Checking convergence            :      0.000 s ( 7.680 %)
Final printing                  :      0.000 s (26.000 %)
Total time                      :      0.001 s

Time for energy+gradient        :      0.203 s
Time for complete geometry iter :      0.206 s

         *************************************************************
         *                GEOMETRY OPTIMIZATION CYCLE   3            *
         *************************************************************
---------------------------------
CARTESIAN COORDINATES (ANGSTROEM)
---------------------------------
  C     0.000004   -0.000005   -0.339640
  H    -0.000072    1.027105   -0.002158
  H     0.889572   -0.513608   -0.002097
  H    -0.889525   -0.513498   -0.002167
  Cl    0.000021   -0.000009    2.513856
  Br    0.000001   -0.000003   -2.284499

----------------------------
CARTESIAN COORDINATES (A.U.)
----------------------------
  NO LB    ZA    FRAG    MASS        X           Y           Z
   0 C   6.0000    0    12.011    0.000007   -0.000010   -0.641827
   1 H   1.0000    0     1.008   -0.000136    1.940948   -0.004077
   2 H   1.0000    0     1.008    1.681047   -0.970579   -0.003963
   3 H   1.0000    0     1.008   -1.680959   -0.970370   -0.004095
   4 Cl 17.0000    0    35.453    0.000039   -0.000018    4.750499
   5 Br 35.0000    0    79.900    0.000002   -0.000005   -4.317077

      -----------------------------------------------------------      
     |                   =====================                   |     
     |                           x T B                           |     
     |                   =====================                   |     
     |                         S. Grimme                         |     
     |          Mulliken Center for Theoretical Chemistry        |     
     |                    University of Bonn                     |     
      -----------------------------------------------------------      

   * xtb version 6.7.1 (edcfbbe) compiled by 'albert@albert-system' on 2024-07-22

   xtb is free software: you can redistribute it and/or modify it under
   the terms of the GNU Lesser General Public License as published by
   the Free Software Foundation, either version 3 of the License, or
   (at your option) any later version.
   
   xtb is distributed in the hope that it will be useful,
   but WITHOUT ANY WARRANTY; without even the implied warranty of
   MERCHANTABILITY or FITNESS FOR A PARTICULAR PURPOSE.  See the
   GNU Lesser General Public License for more details.
   
   Cite this work as:
   * C. Bannwarth, E. Caldeweyher, S. Ehlert, A. Hansen, P. Pracht,
     J. Seibert, S. Spicher, S. Grimme, WIREs Comput. Mol. Sci., 2020, 11,
     e01493. DOI: 10.1002/wcms.1493
   
   for GFN2-xTB:
   * C. Bannwarth, S. Ehlert and S. Grimme., J. Chem. Theory Comput., 2019,
     15, 1652-1671. DOI: 10.1021/acs.jctc.8b01176
   for GFN1-xTB:
   * S. Grimme, C. Bannwarth, P. Shushkov, J. Chem. Theory Comput., 2017,
     13, 1989-2009. DOI: 10.1021/acs.jctc.7b00118
   for GFN0-xTB:
   * P. Pracht, E. Caldeweyher, S. Ehlert, S. Grimme, ChemRxiv, 2019, preprint.
     DOI: 10.26434/chemrxiv.8326202.v1
   for GFN-FF:
   * S. Spicher and S. Grimme, Angew. Chem. Int. Ed., 2020, 59, 15665-15673.
     DOI: 10.1002/anie.202004239
   
   for ALPB and GBSA implicit solvation:
   * S. Ehlert, M. Stahn, S. Spicher, S. Grimme, J. Chem. Theory Comput.,
     2021, 17, 4250-4261. DOI: 10.1021/acs.jctc.1c00471
   
   for ddCOSMO and CPCM-X implicit solvation:
   * M. Stahn, S. Ehlert, S. Grimme, J. Phys. Chem. A,
     2023, XX, XXXX-XXXX. DOI: 10.1021/acs.jpca.3c04382
   
   for DFT-D4:
   * E. Caldeweyher, C. Bannwarth and S. Grimme, J. Chem. Phys., 2017,
     147, 034112. DOI: 10.1063/1.4993215
   * E. Caldeweyher, S. Ehlert, A. Hansen, H. Neugebauer, S. Spicher,
     C. Bannwarth and S. Grimme, J. Chem. Phys., 2019, 150, 154122.
     DOI: 10.1063/1.5090222
   * E. Caldeweyher, J.-M. Mewes, S. Ehlert and S. Grimme, Phys. Chem. Chem. Phys.
     2020, 22, 8499-8512. DOI: 10.1039/D0CP00502A
   
   for sTDA-xTB:
   * S. Grimme and C. Bannwarth, J. Chem. Phys., 2016, 145, 054103.
     DOI: 10.1063/1.4959605
   
   in the mass-spec context:
   * V. Asgeirsson, C. Bauer and S. Grimme, Chem. Sci., 2017, 8, 4879.
     DOI: 10.1039/c7sc00601b
   * J. Koopman and S. Grimme, ACS Omega 2019, 4, 12, 15120-15133.
     DOI: 10.1021/acsomega.9b02011
   
   for metadynamics refer to:
   * S. Grimme, J. Chem. Theory Comput., 2019, 155, 2847-2862
     DOI: 10.1021/acs.jctc.9b00143
   
   for SPH calculations refer to:
   * S. Spicher and S. Grimme, J. Chem. Theory Comput., 2021, 17, 1701-1714
     DOI: 10.1021/acs.jctc.0c01306
   
   for ONIOM refer to:
   * C. Plett, A. Katbashev, S. Ehlert, S. Grimme, M. Bursch,
     Phys. Chem. Chem. Phys., 2023, 25, 17860-17868. DOI: 10.1039/D3CP02178E
   
   for DIPRO refer to:
   * J. Kohn, N. Gildemeister, S. Grimme, D. Fazzi, A. Hansen,
     J. Chem. Phys., 2023, just accepted.
   
   for PTB refer to:
   * S. Grimme, M. Mueller, A. Hansen, J. Chem. Phys., 2023, 158, 124111.
     DOI: 10.1063/5.0137838
   
   with help from (in alphabetical order)
   P. Atkinson, C. Bannwarth, F. Bohle, G. Brandenburg, E. Caldeweyher
   M. Checinski, S. Dohm, S. Ehlert, S. Ehrlich, I. Gerasimov, C. Hölzer
   A. Katbashev, J. Kohn, J. Koopman, C. Lavigne, S. Lehtola, F. März, M. Müller,
   F. Musil, H. Neugebauer, J. Pisarek, C. Plett, P. Pracht, F. Pultar,
   J. Seibert, P. Shushkov, S. Spicher, M. Stahn, M. Steiner, T. Strunk,
   J. Stückrath, T. Rose, and J. Unsleber
   
 * started run on 2026/03/16 at 14:16:56.073     
   ID    Z sym.   atoms
    1    6 C      1
    2    1 H      2-4
    3   17 Cl     5
    4   35 Br     6

           -------------------------------------------------
          |                Calculation Setup                |
           -------------------------------------------------

          program call               : /software/orca-6.1.0-el8-x86_64/bin/otool_xtb reactant_optfreq_XTB.xyz --grad -c -1 -u 0 -P 8 --namespace reactant_optfreq --input reactant_optfreq_XTB.input.tmp --acc 0.200000
          hostname                   : midway3-login4.rcc.local
          calculation namespace      : reactant_optfreq
          coordinate file            : reactant_optfreq_XTB.xyz
          omp threads                :                     8


molecular fragmentation (1/2 indicates fragments):
111121
# atoms in fragment 1/2:     5     1
 fragment masses (1/2) :       94.94       35.45
CMA distance (Bohr)    :   8.465
constraining FC (au)   :  0.0500

           -------------------------------------------------
          |                 G F N 2 - x T B                 |
           -------------------------------------------------

        Reference                      10.1021/acs.jctc.8b01176
      * Hamiltonian:
        H0-scaling (s, p, d)           1.850000    2.230000    2.230000
        zeta-weighting                 0.500000
      * Dispersion:
        s8                             2.700000
        a1                             0.520000
        a2                             5.000000
        s9                             5.000000
      * Repulsion:
        kExp                           1.500000    1.000000
        rExp                           1.000000
      * Coulomb:
        alpha                          2.000000
        third order                    shell-resolved
        anisotropic                    true
        a3                             3.000000
        a5                             4.000000
        cn-shift                       1.200000
        cn-exp                         4.000000
        max-rad                        5.000000

q/qsh data taken from xtbrestart
CAMM data taken from xtbrestart

          ...................................................
          :                      SETUP                      :
          :.................................................:
          :  # basis functions                  27          :
          :  # atomic orbitals                  25          :
          :  # shells                           11          :
          :  # electrons                        22          :
          :  max. iterations                   250          :
          :  Hamiltonian                  GFN2-xTB          :
          :  restarted?                       true          :
          :  GBSA solvation                  false          :
          :  PC potential                    false          :
          :  electronic temp.          300.0000000     K    :
          :  accuracy                    0.2000000          :
          :  -> integral cutoff          0.3198970E+02      :
          :  -> integral neglect         0.2000000E-08      :
          :  -> SCF convergence          0.2000000E-06 Eh   :
          :  -> wf. convergence          0.2000000E-04 e    :
          :  Broyden damping             0.4000000          :
          :  net charge                         -1          :
          :  unpaired electrons                  0          :
          ...................................................

 iter      E             dE          RMSdq      gap      omega  full diag
   1    -12.6126525 -0.126127E+02  0.548E-02    3.13       0.0  T
   2    -12.6126551 -0.255926E-05  0.232E-02    3.12       1.8  T
   3    -12.6126554 -0.331109E-06  0.131E-02    3.11       3.1  T
   4    -12.6126555 -0.466415E-07  0.640E-03    3.11       6.4  T
   5    -12.6126555 -0.241940E-07  0.232E-03    3.11      17.6  T
   6    -12.6126555 -0.707176E-08  0.899E-04    3.11      45.4  T
   7    -12.6126555 -0.484111E-09  0.112E-04    3.11     364.6  T
   8    -12.6126555 -0.757083E-11  0.258E-05    3.11    1579.5  T

   *** convergence criteria satisfied after 8 iterations ***

         #    Occupation            Energy/Eh            Energy/eV
      -------------------------------------------------------------
         1        2.0000           -0.7995178             -21.7560
       ...           ...                  ...                  ...
         5        2.0000           -0.3709234             -10.0933
         6        2.0000           -0.3591548              -9.7731
         7        2.0000           -0.2879007              -7.8342
         8        2.0000           -0.2878994              -7.8341
         9        2.0000           -0.1998553              -5.4383
        10        2.0000           -0.1989196              -5.4129
        11        2.0000           -0.1989196              -5.4129 (HOMO)
        12                         -0.0847616              -2.3065 (LUMO)
        13                          0.1614910               4.3944
        14                          0.1614918               4.3944
        15                          0.1794191               4.8822
        16                          0.1794221               4.8823
       ...                                ...                  ...
        25                          0.5139945              13.9865
      -------------------------------------------------------------
                  HL-Gap            0.1141579 Eh            3.1064 eV
             Fermi-level           -0.1418406 Eh           -3.8597 eV

 SCC (total)                   0 d,  0 h,  0 min,  0.067 sec
 SCC setup                      ...        0 min,  0.000 sec (  0.332%)
 Dispersion                     ...        0 min,  0.000 sec (  0.064%)
 classical contributions        ...        0 min,  0.000 sec (  0.077%)
 integral evaluation            ...        0 min,  0.062 sec ( 92.356%)
 iterations                     ...        0 min,  0.003 sec (  4.862%)
 molecular gradient             ...        0 min,  0.001 sec (  1.925%)
 printout                       ...        0 min,  0.000 sec (  0.342%)

         :::::::::::::::::::::::::::::::::::::::::::::::::::::
         ::                     SUMMARY                     ::
         :::::::::::::::::::::::::::::::::::::::::::::::::::::
         :: total energy             -12.553578613131 Eh    ::
         :: gradient norm              0.000774150096 Eh/a0 ::
         :: HOMO-LUMO gap              3.106394774176 eV    ::
         ::.................................................::
         :: SCC energy               -12.612656168423 Eh    ::
         :: -> isotropic ES            0.150575154159 Eh    ::
         :: -> anisotropic ES         -0.009643805080 Eh    ::
         :: -> anisotropic XC         -0.010443859563 Eh    ::
         :: -> dispersion             -0.002831156012 Eh    ::
         :: repulsion energy           0.059077555292 Eh    ::
         :: add. restraining           0.000000000000 Eh    ::
         :: total charge              -1.000000000000 e     ::
         :::::::::::::::::::::::::::::::::::::::::::::::::::::


Property printout bound to 'properties.out'

           -------------------------------------------------
          | TOTAL ENERGY              -12.553578613131 Eh   |
          | GRADIENT NORM               0.000774150096 Eh/α |
          | HOMO-LUMO GAP               3.106394774176 eV   |
           -------------------------------------------------

------------------------------------------------------------------------
 * finished run on 2026/03/16 at 14:16:56.157     
------------------------------------------------------------------------
 total:
 * wall-time:     0 d,  0 h,  0 min,  0.083 sec
 *  cpu-time:     0 d,  0 h,  0 min,  0.196 sec
 * ratio c/w:     2.360 speedup
 SCF:
 * wall-time:     0 d,  0 h,  0 min,  0.068 sec
 *  cpu-time:     0 d,  0 h,  0 min,  0.128 sec
 * ratio c/w:     1.898 speedup


-------------------------   --------------------
FINAL SINGLE POINT ENERGY       -12.553578613130
-------------------------   --------------------


-------------
DIPOLE MOMENT
-------------
                                X             Y             Z
Total Dipole Moment    :     -0.00000       0.00000      -2.16500
                        -----------------------------------------
Magnitude (a.u.)       :      2.16500
Magnitude (Debye)      :      5.50299


------------------
CARTESIAN GRADIENT
------------------

   1   C   :   -0.000041329    0.000018444    0.000573769
   2   H   :   -0.000011010   -0.000078615    0.000008110
   3   H   :   -0.000015910    0.000007730    0.000026972
   4   H   :    0.000069981    0.000051661    0.000005675
   5   Cl  :    0.000000218   -0.000000090   -0.000128074
   6   Br  :   -0.000001951    0.000000871   -0.000486452

Difference to translation invariance:
           :    0.0000000000   -0.0000000000   -0.0000000000

Difference to rotation invariance:
           :    0.0000000051    0.0000000080   -0.0000000000

Norm of the Cartesian gradient     ...    0.0007741501
RMS gradient                       ...    0.0001824689
MAX gradient                       ...    0.0005737691
------------------------------------------------------------------------------
                         ORCA GEOMETRY RELAXATION STEP
------------------------------------------------------------------------------

Reading the OPT-File                    .... done
Getting information on internals        .... done
Copying old internal coords+grads       .... done
Making the new internal coordinates     .... (2022 redundants) done
Validating the new internal coordinates .... (2022 redundants) done
Calculating the B-matrix                .... done
Calculating the G,G- and P matrices     .... done
Transforming gradient to internals      .... done
Projecting the internal gradient        .... done
Number of atoms                         ....   6
Number of internal coordinates          ....  17
Current Energy                          ....   -12.553578613 Eh
Current gradient norm                   ....     0.000774150 Eh/bohr
Maximum allowed component of the step   ....  0.300
Current trust radius                    ....  0.300
Updating the Hessian (BFGS)             .... done
Forming the augmented Hessian           .... done
Diagonalizing the augmented Hessian     .... done
Last element of RFO vector              ....  0.999788704
Lowest eigenvalues of augmented Hessian:
 -0.000002580  0.004091923  0.045626872  0.045670561  0.196837226
Length of the computed step             ....  0.020560317
The final length of the internal step   ....  0.020560317
Converting the step to Cartesian space:
 Initial RMS(Int)=    0.0049866093
Transforming coordinates:
 Iter   0:  RMS(Cart)=    0.0022684630 RMS(Int)=    0.0049871311
done
Storing new coordinates                 .... done
The predicted energy change is          ....    -0.000001291
Previously predicted energy change      ....    -0.000023481
Actually observed energy change         ....    -0.000026810
Ratio of predicted to observed change   ....     1.141766828
New trust radius                        ....     0.450000000

                                .--------------------.
          ----------------------|Geometry convergence|-------------------------
          Item                value                   Tolerance       Converged
          ---------------------------------------------------------------------
          Energy change      -0.0000268097            0.0000050000      NO
          RMS gradient        0.0001219125            0.0001000000      NO
          MAX gradient        0.0004864519            0.0003000000      NO
          RMS step            0.0049866093            0.0020000000      NO
          MAX step            0.0108204883            0.0040000000      NO
          -------------------------------------------------------------------------
          ........................................................
          Max(Bonds)      0.0057      Max(Angles)    0.00
          Max(Dihed)        0.00      Max(Improp)    0.00
          ---------------------------------------------------------------------

The optimization has not yet converged - more geometry cycles are needed


    ---------------------------------------------------------------------------
                         Redundant Internal Coordinates
                            (Angstroem and degrees)

        Definition                    Value    dE/dq     Step     New-Value
    ----------------------------------------------------------------------------
     1. B(H   1,C   0)                1.0811 -0.000070  0.0001    1.0813   
     2. B(H   2,C   0)                1.0812 -0.000006  0.0001    1.0813   
     3. B(H   3,C   0)                1.0811 -0.000078  0.0001    1.0813   
     4. B(Cl  4,H   1)                2.7176 -0.000034  0.0053    2.7229   
     5. B(Cl  4,H   2)                2.7176 -0.000033  0.0053    2.7228   
     6. B(Cl  4,H   3)                2.7176 -0.000034  0.0053    2.7229   
     7. B(Cl  4,C   0)                2.8535 -0.000035  0.0057    2.8592   
     8. B(Br  5,C   0)                1.9449  0.000486 -0.0013    1.9436   
     9. A(H   1,C   0,H   3)          110.72 -0.000015    0.00    110.72   
    10. A(H   2,C   0,H   3)          110.72  0.000008   -0.00    110.72   
    11. A(H   1,C   0,Br  5)          108.19 -0.000003    0.00    108.19   
    12. A(H   2,C   0,Br  5)          108.19  0.000004   -0.00    108.19   
    13. A(H   3,C   0,Br  5)          108.19 -0.000004    0.00    108.19   
    14. A(H   1,C   0,Cl  4)           71.81  0.000002   -0.00     71.81   
    15. A(H   2,C   0,Cl  4)           71.81 -0.000000   -0.00     71.81   
    16. A(H   3,C   0,Cl  4)           71.81  0.000002   -0.00     71.81   
    17. A(H   1,C   0,H   2)          110.73  0.000011   -0.00    110.72   
    ----------------------------------------------------------------------------

Geometry step timings:
Preparation and reading OPT file:      0.000 s ( 3.272 %)
Internal coordinates            :      0.000 s ( 4.054 %)
B/P matrices and projection     :      0.000 s (12.945 %)
Hessian update/contruction      :      0.000 s (25.605 %)
Making the step                 :      0.000 s (11.380 %)
Converting the step to Cartesian:      0.000 s ( 3.201 %)
Storing new data                :      0.000 s ( 7.397 %)
Checking convergence            :      0.000 s ( 9.388 %)
Final printing                  :      0.000 s (22.760 %)
Total time                      :      0.001 s

Time for energy+gradient        :      0.093 s
Time for complete geometry iter :      0.096 s

         *************************************************************
         *                GEOMETRY OPTIMIZATION CYCLE   4            *
         *************************************************************
---------------------------------
CARTESIAN COORDINATES (ANGSTROEM)
---------------------------------
  C    -0.000018    0.000004   -0.340828
  H    -0.000024    1.027223   -0.003287
  H     0.889601   -0.513618   -0.003266
  H    -0.889616   -0.513599   -0.003290
  Cl    0.000028   -0.000013    2.518392
  Br    0.000030   -0.000016   -2.284427

----------------------------
CARTESIAN COORDINATES (A.U.)
----------------------------
  NO LB    ZA    FRAG    MASS        X           Y           Z
   0 C   6.0000    0    12.011   -0.000034    0.000008   -0.644071
   1 H   1.0000    0     1.008   -0.000046    1.941170   -0.006211
   2 H   1.0000    0     1.008    1.681102   -0.970598   -0.006171
   3 H   1.0000    0     1.008   -1.681130   -0.970561   -0.006218
   4 Cl 17.0000    0    35.453    0.000052   -0.000024    4.759071
   5 Br 35.0000    0    79.900    0.000056   -0.000030   -4.316941

      -----------------------------------------------------------      
     |                   =====================                   |     
     |                           x T B                           |     
     |                   =====================                   |     
     |                         S. Grimme                         |     
     |          Mulliken Center for Theoretical Chemistry        |     
     |                    University of Bonn                     |     
      -----------------------------------------------------------      

   * xtb version 6.7.1 (edcfbbe) compiled by 'albert@albert-system' on 2024-07-22

   xtb is free software: you can redistribute it and/or modify it under
   the terms of the GNU Lesser General Public License as published by
   the Free Software Foundation, either version 3 of the License, or
   (at your option) any later version.
   
[...]
        25                          0.5159874              14.0407
      -------------------------------------------------------------
                  HL-Gap            0.1140528 Eh            3.1035 eV
             Fermi-level           -0.1417242 Eh           -3.8565 eV

 SCC (total)                   0 d,  0 h,  0 min,  0.078 sec
 SCC setup                      ...        0 min,  0.000 sec (  0.267%)
 Dispersion                     ...        0 min,  0.000 sec (  0.072%)
 classical contributions        ...        0 min,  0.000 sec (  0.044%)
 integral evaluation            ...        0 min,  0.074 sec ( 95.133%)
 iterations                     ...        0 min,  0.002 sec (  2.157%)
 molecular gradient             ...        0 min,  0.002 sec (  1.988%)
 printout                       ...        0 min,  0.000 sec (  0.311%)

         :::::::::::::::::::::::::::::::::::::::::::::::::::::
         ::                     SUMMARY                     ::
         :::::::::::::::::::::::::::::::::::::::::::::::::::::
         :: total energy             -12.553580430140 Eh    ::
         :: gradient norm              0.000265506059 Eh/a0 ::
         :: HOMO-LUMO gap              3.103535309379 eV    ::
         ::.................................................::
         :: SCC energy               -12.612669276401 Eh    ::
         :: -> isotropic ES            0.150719424832 Eh    ::
         :: -> anisotropic ES         -0.009652256353 Eh    ::
         :: -> anisotropic XC         -0.010546366818 Eh    ::
         :: -> dispersion             -0.002828968986 Eh    ::
         :: repulsion energy           0.059088846261 Eh    ::
         :: add. restraining           0.000000000000 Eh    ::
         :: total charge              -1.000000000000 e     ::
         :::::::::::::::::::::::::::::::::::::::::::::::::::::

           ------------------------------------------------- 
          |                Numerical Hessian                |
           ------------------------------------------------- 
step length          :   0.00500
SCC accuracy         :   0.30000
Hessian scale factor :   1.00000
frozen atoms in %    :   0.00000    0
RMS gradient         :   0.00027
estimated CPU  time      0.00 min
estimated wall time      0.00 min

writing file <hessian>.

 projected vibrational frequencies (cm⁻¹)
eigval :       -0.00    -0.00    -0.00    -0.00     0.00     0.00
eigval :       87.35    87.46   117.68   524.42   952.06   952.07
eigval :     1295.18  1437.34  1437.43  3083.30  3099.71  3099.72

Property printout bound to 'properties.out'
Molecule has the following symmetry elements: (C3) 3*(sigma) 
It seems to be the C3v point group

           -------------------------------------------------
          | TOTAL ENERGY              -12.553580430140 Eh   |
          | TOTAL ENTHALPY            -12.510418298646 Eh   |
          | TOTAL FREE ENERGY         -12.546043264689 Eh   |
          | GRADIENT NORM               0.000265497901 Eh/α |
          | HOMO-LUMO GAP               3.103535406653 eV   |
           -------------------------------------------------

------------------------------------------------------------------------
 * finished run on 2026/03/16 at 14:16:56.654     
------------------------------------------------------------------------
 total:
 * wall-time:     0 d,  0 h,  0 min,  0.190 sec
 *  cpu-time:     0 d,  0 h,  0 min,  0.370 sec
 * ratio c/w:     1.946 speedup
 SCF:
 * wall-time:     0 d,  0 h,  0 min,  0.078 sec
 *  cpu-time:     0 d,  0 h,  0 min,  0.152 sec
 * ratio c/w:     1.954 speedup
 analytical hessian:
 * wall-time:     0 d,  0 h,  0 min,  0.098 sec
 *  cpu-time:     0 d,  0 h,  0 min,  0.150 sec
 * ratio c/w:     1.535 speedup


-------------------------   --------------------
FINAL SINGLE POINT ENERGY       -12.553580430140
-------------------------   --------------------


-------------
DIPOLE MOMENT
-------------
                                X             Y             Z
Total Dipole Moment    :     -0.00000       0.00000      -2.18100
                        -----------------------------------------
Magnitude (a.u.)       :      2.18100
Magnitude (Debye)      :      5.54366


-----------------------
VIBRATIONAL FREQUENCIES
-----------------------

Scaling factor for frequencies =  1.000000000  (already applied!)

     0:       0.00 cm**-1
     1:       0.00 cm**-1
     2:       0.00 cm**-1
     3:       0.00 cm**-1
     4:       0.00 cm**-1
     5:       0.00 cm**-1
     6:      87.35 cm**-1
     7:      87.46 cm**-1
     8:     117.68 cm**-1
     9:     524.42 cm**-1
    10:     952.03 cm**-1
    11:     952.04 cm**-1
    12:    1295.14 cm**-1
    13:    1437.30 cm**-1
    14:    1437.39 cm**-1
    15:    3083.21 cm**-1
    16:    3099.63 cm**-1
    17:    3099.64 cm**-1


------------
NORMAL MODES
------------

These modes are the Cartesian displacements weighted by the diagonal matrix
M(i,i)=1/sqrt(m[i]) where m[i] is the mass of the displaced atom
Thus, these vectors are normalized but *not* orthogonal

                  0          1          2          3          4          5    
      0       0.000000   0.000000   0.000000   0.000000   0.000000   0.000000
      1       0.000000   0.000000   0.000000   0.000000   0.000000   0.000000
      2       0.000000   0.000000   0.000000   0.000000   0.000000   0.000000
      3       0.000000   0.000000   0.000000   0.000000   0.000000   0.000000
      4       0.000000   0.000000   0.000000   0.000000   0.000000   0.000000
      5       0.000000   0.000000   0.000000   0.000000   0.000000   0.000000
      6       0.000000   0.000000   0.000000   0.000000   0.000000   0.000000
      7       0.000000   0.000000   0.000000   0.000000   0.000000   0.000000
      8       0.000000   0.000000   0.000000   0.000000   0.000000   0.000000
      9       0.000000   0.000000   0.000000   0.000000   0.000000   0.000000
     10       0.000000   0.000000   0.000000   0.000000   0.000000   0.000000
     11       0.000000   0.000000   0.000000   0.000000   0.000000   0.000000
     12       0.000000   0.000000   0.000000   0.000000   0.000000   0.000000
     13       0.000000   0.000000   0.000000   0.000000   0.000000   0.000000
     14       0.000000   0.000000   0.000000   0.000000   0.000000   0.000000
     15       0.000000   0.000000   0.000000   0.000000   0.000000   0.000000
     16       0.000000   0.000000   0.000000   0.000000   0.000000   0.000000
     17       0.000000   0.000000   0.000000   0.000000   0.000000   0.000000
                  6          7          8          9         10         11    
      0      -0.414808  -0.000512  -0.000064  -0.000014  -0.027640   0.106935
      1       0.000512  -0.414826  -0.000732   0.000069  -0.106934  -0.027642
      2      -0.000013  -0.000015   0.298859   0.638009   0.000010   0.000009
      3      -0.488912  -0.000523  -0.000074  -0.000007   0.062574  -0.242062
      4       0.000614  -0.497303   0.007871   0.044841   0.152074   0.039316
      5      -0.000313   0.244997   0.252251   0.437595  -0.731770  -0.189156
      6      -0.495211   0.002956   0.007517   0.038735   0.084125  -0.164485
      7       0.004184  -0.491069  -0.005209  -0.022407   0.229657   0.017804
      8       0.212337  -0.122276   0.251644   0.437549   0.202080   0.728317
      9      -0.495200  -0.004259  -0.007666  -0.038751   0.006109  -0.184661
     10      -0.002971  -0.490936  -0.005209  -0.022408   0.209537   0.095728
     11      -0.212060  -0.122797   0.251591   0.437581   0.529711  -0.539185
     12       0.079048   0.000098   0.000012  -0.000000  -0.000000   0.000001
     13      -0.000098   0.079051   0.000138  -0.000009  -0.000002  -0.000001
     14       0.000013   0.000149  -0.794564  -0.001401   0.000001  -0.000000
     15       0.045944   0.000057   0.000007   0.000002   0.002227  -0.008617
     16      -0.000057   0.045945   0.000081  -0.000007   0.008617   0.002227
     17      -0.000003  -0.000063   0.298104  -0.111848  -0.000002  -0.000001
                 12         13         14         15         16         17    
      0      -0.000003  -0.003794   0.070158   0.000019  -0.065385   0.064112
      1       0.000005   0.070142   0.003794  -0.000088   0.064113   0.065388
      2       0.096532  -0.000011   0.000000   0.038290   0.000032   0.000021
      3       0.000018   0.040298  -0.745014   0.000006  -0.029286   0.028702
      4       0.186662   0.125276   0.006786  -0.552716  -0.540680  -0.551260
      5      -0.543488  -0.301187  -0.016293  -0.162734  -0.177285  -0.180758
      6       0.161645  -0.371922  -0.112658  -0.479693   0.651825  -0.147008
      7      -0.093350  -0.507004  -0.405391   0.276985  -0.364545   0.130716
      8      -0.543491   0.164709  -0.252667  -0.163141   0.244905  -0.063172
      9      -0.161630   0.381896  -0.071888   0.479465   0.159958  -0.648952
     10      -0.093362  -0.547770   0.348333   0.276847   0.137951  -0.361984
     11      -0.543472   0.136486   0.268936  -0.163050  -0.068030   0.243658
     12      -0.000000  -0.000010   0.000188   0.000000   0.000045  -0.000044
     13      -0.000000   0.000189   0.000010  -0.000001  -0.000044  -0.000045
     14       0.002113  -0.000001   0.000000   0.000220   0.000000   0.000000
     15       0.000000  -0.000059   0.001097   0.000000  -0.000063   0.000061
     16      -0.000000   0.001099   0.000059  -0.000000   0.000061   0.000063
     17       0.005120   0.000002   0.000000   0.000315   0.000000   0.000000


The first frequency considered to be a vibration is 6
The total number of vibrations considered is 12


--------------------------
THERMOCHEMISTRY AT 298.15K
--------------------------

Temperature         ...   298.15 K
Pressure            ...     1.00 atm
Total Mass          ...   130.39 AMU
Quasi RRHO          ...     True
Cut-Off Frequency   ...     1.00 cm^-1

Throughout the following assumptions are being made:
  (1) The electronic state is orbitally nondegenerate
  (2) There are no thermally accessible electronically excited states
  (3) Hindered rotations indicated by low frequency modes are not
      treated as such but are treated as vibrations and this may
      cause some error
  (4) All equations used are the standard statistical mechanics
      equations for an ideal gas
  (5) All vibrations are strictly harmonic

freq.      87.35  E(vib)   ...       0.48 
freq.      87.46  E(vib)   ...       0.48 
freq.     117.68  E(vib)   ...       0.44 
freq.     524.42  E(vib)   ...       0.13 
freq.     952.03  E(vib)   ...       0.03 
freq.     952.04  E(vib)   ...       0.03 
freq.    1295.14  E(vib)   ...       0.01 
freq.    1437.30  E(vib)   ...       0.00 
freq.    1437.39  E(vib)   ...       0.00 
freq.    3083.21  E(vib)   ...       0.00 
freq.    3099.63  E(vib)   ...       0.00 
freq.    3099.64  E(vib)   ...       0.00 

------------
INNER ENERGY
------------

The inner energy is: U= E(el) + E(ZPE) + E(vib) + E(rot) + E(trans)
    E(el)   - is the total energy from the electronic structure calculation
              = E(kin-el) + E(nuc-el) + E(el-el) + E(nuc-nuc)
    E(ZPE)  - the the zero temperature vibrational energy from the frequency calculation
    E(vib)  - the the finite temperature correction to E(ZPE) due to population
              of excited vibrational states
    E(rot)  - is the rotational thermal energy
    E(trans)- is the translational thermal energy

Summary of contributions to the inner energy U:
Electronic energy                ...    -12.55358043 Eh
Zero point energy                ...      0.03684543 Eh      23.12 kcal/mol
Thermal vibrational correction   ...      0.00253891 Eh       1.59 kcal/mol
Thermal rotational correction    ...      0.00141627 Eh       0.89 kcal/mol
Thermal translational correction ...      0.00141627 Eh       0.89 kcal/mol
-----------------------------------------------------------------------
Total thermal energy                    -12.51136355 Eh


Summary of corrections to the electronic energy:
(perhaps to be used in another calculation)
Total thermal correction                  0.00537145 Eh       3.37 kcal/mol
Non-thermal (ZPE) correction              0.03684543 Eh      23.12 kcal/mol
-----------------------------------------------------------------------
Total correction                          0.04221688 Eh      26.49 kcal/mol


--------
ENTHALPY
--------

The enthalpy is H = U + kB*T
                kB is Boltzmann's constant
Total thermal energy              ...    -12.51136355 Eh 
Thermal Enthalpy correction       ...      0.00094421 Eh       0.59 kcal/mol
-----------------------------------------------------------------------
Total Enthalpy                    ...    -12.51041934 Eh


WARNING (ORCA/SYM): The number of Z matrix atoms does not agree with
the number of centers in the basis set. The point group will therefore
be determined without considering basis set information.


Note: Rotational entropy computed according to Herzberg 
Infrared and Raman Spectra, Chapter V,1, Van Nostrand Reinhold, 1945 
Point Group:  C3v, Symmetry Number:   3  
Rotational constants in cm-1:     5.283089     0.029460     0.029460 

Vibrational entropy computed according to the QRRHO of S. Grimme
Chem.Eur.J. 2012 18 9955 using a reference frequency of 100.0 cm-1


-------
ENTROPY
-------

The entropy contributions are T*S = T*(S(el)+S(vib)+S(rot)+S(trans))
     S(el)   - electronic entropy
     S(vib)  - vibrational entropy
     S(rot)  - rotational entropy
     S(trans)- translational entropy
The entropies will be listed as multiplied by the temperature to get
units of energy

Electronic entropy                ...      0.00000000 Eh      0.00 kcal/mol
Vibrational entropy               ...      0.00493475 Eh      3.10 kcal/mol
Rotational entropy                ...      0.01101571 Eh      6.91 kcal/mol
Translational entropy             ...      0.01924704 Eh     12.08 kcal/mol
-----------------------------------------------------------------------
Final entropy term                ...      0.03519750 Eh     22.09 kcal/mol

In case the symmetry of your molecule has not been determined correctly
or in case you have a reason to use a different symmetry number we print 
out the resulting rotational entropy values for sn=1,12:

 non-linear molecules -----------------------------------
|  sn= 1 | S(rot)=       0.01205300 Eh      7.56 kcal/mol|
|  sn= 2 | S(rot)=       0.01139854 Eh      7.15 kcal/mol|
|  sn= 3 | S(rot)=       0.01101571 Eh      6.91 kcal/mol|
|  sn= 4 | S(rot)=       0.01074409 Eh      6.74 kcal/mol|
|  sn= 5 | S(rot)=       0.01053340 Eh      6.61 kcal/mol|
|  sn= 6 | S(rot)=       0.01036126 Eh      6.50 kcal/mol|
|  sn= 7 | S(rot)=       0.01021571 Eh      6.41 kcal/mol|
|  sn= 8 | S(rot)=       0.01008963 Eh      6.33 kcal/mol|
|  sn= 9 | S(rot)=       0.00997842 Eh      6.26 kcal/mol|
|  sn=10 | S(rot)=       0.00987894 Eh      6.20 kcal/mol|
|  sn=11 | S(rot)=       0.00978895 Eh      6.14 kcal/mol|
|  sn=12 | S(rot)=       0.00970680 Eh      6.09 kcal/mol|
 linear molecules ---------------------------------------
|  Dinfh | S(rot)=       0.00865380 Eh      5.43 kcal/mol|
|  Cinfv | S(rot)=       0.00930825 Eh      5.84 kcal/mol|
 --------------------------------------------------------


-------------------
GIBBS FREE ENERGY
-------------------

The Gibbs free energy is G = H - T*S

Total enthalpy                    ...    -12.51041934 Eh 
Total entropy correction          ...     -0.03519750 Eh    -22.09 kcal/mol
-----------------------------------------------------------------------
Final Gibbs free energy         ...    -12.54561684 Eh

For completeness - the Gibbs free energy minus the electronic energy
G-E(el)                           ...      0.00796359 Eh      5.00 kcal/mol


--------------------------------
SUGGESTED CITATIONS FOR THIS RUN
--------------------------------

Below you find a list of papers that are relevant to this ORCA run
We neither can nor want to force you to cite these papers, but we appreciate if you do
You receive ORCA, which is the product of decades of hard work by many enthusiastic individuals, for free
The only thing we kindly ask in return is that you cite our papers,
We deeply appreciate it, if you show your appreciation for ORCA by not just citing the generic ORCA reference.

Please note that relegating all ORCA citations to the supporting information does *not* help us.
SI sections are not indexed - citations you put there will not count into any citation statistics
But we need these citations in order to attract the funding resources that allow us to do what we are doing

Therefore, if you are a happy ORCA user, please consider citing a few of the papers listed below in the main body of your paper

In addition to the list printed below, the program has created the file reactant_optfreq.bibtex that contains the list in bibtex format
You can import this file easily into all common literature databanks and citation aid programs


List of essential papers. We consider these as the minimum necessary citations

  1. Bannwarth, C.; Ehlert, S.; Grimme, S.
     GFN2-xTB—An Accurate and Broadly Parametrized Self-Consistent Tight-Binding Quantum Chemical Method with Multipole Electrostatics and Density-Dependent Dispersion Contributions
     J. Chem. Theory Comput. 2019 15(3), 1652-1671
     doi.org/10.1021/acs.jctc.8b01176
  2. Neese, F.
     Software update: the ORCA program system, version 6.0
     WIRES Comput. Molec. Sci. 2025 15(1), e70019
     doi.org/10.1002/wcms.7019

List of papers to cite with high priority. The work reported in these papers was absolutely
necessary for this run to complete.
Our perspective: the developers of density functionals and basis sets usually get cited in chemistry papers
Good! But without the algorithms to do something with them, the functionals or basis sets would not do anything.
Hence, in our opinion, the algorithm design and method developments papers are equally worthy of getting cited

  1. Bykov, D.; Petrenko, T.; Izsak, R.; Kossmann, S.; Becker, U.; Valeev, E.; Neese, F.
     Efficient implementation of the analytic second derivatives of Hartree-Fock and hybrid DFT energies: a detailed analysis of different approximations
     Molec. Phys. 2015 113 , 1961-1977
     doi.org/10.1080/00268976.2015.1025114
  2. Bannwarth, C.; Caldeweyher, E.; Ehlert, S.; Hansen, A.; Pracht, P.; Seibert, J.; Spicher, S.; Grimme, S.
     Extended tight-binding quantum chemistry methods
     WIRES Comput. Molec. Sci. 2020 11(2), e1493
     doi.org/10.1002/wcms.1493

List of suggested additional citations. These are papers that are important in the 'surrounding' of 
of this run, or papers that preceded the highly important papers. If you like your results we are grateful for a citation.

  1. Neese, F.
     The ORCA program system
     WIRES Comput. Molec. Sci. 2012 2(1), 73-78
     doi.org/10.1002/wcms.81
  2. Neese, F.
     Software update: the ORCA program system, version 4.0
     WIRES Comput. Molec. Sci. 2018 8(1), 1-6
     doi.org/10.1002/wcms.1327
  3. Neese, F.; Wennmohs, F.; Becker, U.; Riplinger, C.
     The ORCA quantum chemistry program package
     J. Chem. Phys. 2020 152(22), 224108
     doi.org/10.1063/5.0004608
  4. Neese, F.
     Software update: The ORCA program system—Version 5.0
     WIRES Comput. Molec. Sci. 2022 12(1), e1606
     doi.org/10.1002/wcms.1606

List of optional additional citations

  1. Neese, F.
     Approximate second-order SCF convergence for spin unrestricted wavefunctions
     Chem. Phys. Lett. 2000 325(1-3), 93-98
     doi.org/10.1016/s0009-2614(00)00662-x

Timings for individual modules:

Sum of individual times          ...        0.990 sec (=   0.017 min)
Geometry relaxation              ...        0.011 sec (=   0.000 min)   1.2 %
XTB module                       ...        0.979 sec (=   0.016 min)  98.8 %
                             ****ORCA TERMINATED NORMALLY****
TOTAL RUN TIME: 0 days 0 hours 0 minutes 1 seconds 622 msec
