
                                 *****************
                                 * O   R   C   A *
                                 *****************

                                            #,                                       
                                            ###                                      
                                            ####                                     
                                            #####                                    
                                            ######                                   
                                           ########,                                 
                                     ,,################,,,,,                         
                               ,,#################################,,                 
                          ,,##########################################,,             
                       ,#########################################, ''#####,          
                    ,#############################################,,   '####,        
                  ,##################################################,,,,####,       
                ,###########''''           ''''###############################       
              ,#####''   ,,,,##########,,,,          '''####'''          '####       
            ,##' ,,,,###########################,,,                        '##       
           ' ,,###''''                  '''############,,,                           
         ,,##''                                '''############,,,,        ,,,,,,###''
      ,#''                                            '''#######################'''  
     '                                                          ''''####''''         
             ,#######,   #######,   ,#######,      ##                                
            ,#'     '#,  ##    ##  ,#'     '#,    #''#        ,####,    ,#,          
            ##       ##  ##   ,#'  ##            #'  '#       #'       ,# #          
            ##       ##  #######   ##           ,######,      #####,      #          
            '#,     ,#'  ##    ##  '#,     ,#' ,#      #,     #,   #      #          
             '#######'   ##     ##  '#######'  #'      '#     '####' #    #          



                #########################################################
                #                        -***-                          #
                #          Department of theory and spectroscopy        #
                #                                                       #
                #                      Frank Neese                      #
                #                                                       #
                #     Directorship, Architecture, Infrastructure        #
                #                    SHARK, DRIVERS                     #
                #        Core code/Algorithms in most modules           #
                #                                                       #
                #        Max Planck Institute fuer Kohlenforschung      #
                #                Kaiser Wilhelm Platz 1                 #
                #                 D-45470 Muelheim/Ruhr                 #
                #                      Germany                          #
                #                                                       #
                #                  All rights reserved                  #
                #                        -***-                          #
                #########################################################


                         Program Version 6.1.0  -  RELEASE   -
                                (GIT: $679e74b$)
                          ($2025-06-10 18:02:51 +0200$)


 With contributions from (in alphabetic order):
[Max-Planck-Institut fuer Kohlenforschung]                               
  Daniel Aravena         : Magnetic Suceptibility                        
  Michael Atanasov       : Ab Initio Ligand Field Theory (pilot matlab implementation)
  Alexander A. Auer      : GIAO ZORA, VPT2 properties, NMR spectrum      
  Ute Becker             : All parallelization in ORCA, NUMFREQ, NUMCALC 
  Giovanni Bistoni       : ED, misc. LED, open-shell LED, HFLD           
  Dmytro Bykov           : pre 5.0 version of the SCF Hessian            
  Marcos Casanova-Páez   : Triplet and SCS-CIS(D). UHF-(DLPNO)-IP/EA/STEOM-CCSD. UHF-CVS-IP/STEOM-CCSD   
  Vijay G. Chilkuri      : MRCI spin determinant printing, contributions to CSF-ICE 
  Pauline Colinet        : FMM embedding                                 
  Dipayan Datta          : RHF DLPNO-CCSD density                        
  Achintya Kumar Dutta   : EOM-CC, STEOM-CC                              
  Nicolas Foglia         : Exact transition moments, OPA infrastructure, MCD improvements    
  Dmitry Ganyushin       : Spin-Orbit,Spin-Spin,Magnetic field MRCI      
  Miquel Garcia-Rates    : C-PCM and meta-GGA Hessian, CCSD/C-PCM, Gaussian charge scheme 
  Tiago L. C. Gouveia    : GS-ROHF, GS-ROCIS                             
  Yang Guo               : DLPNO-NEVPT2, F12-NEVPT2, CIM, IAO-localization        
  Andreas Hansen         : Spin unrestricted coupled pair/coupled cluster methods 
  Ingolf Harden          : AUTO-CI MPn and infrastructure                
  Benjamin Helmich-Paris : MC-RPA, TRAH-(SCF,CASSCF), AVAS, COSX integrals, SCF dyn. polar., MC-PDFT, srDFT 
  Lee Huntington         : MR-EOM, pCC                                   
  Robert Izsak           : Overlap fitted RIJCOSX, COSX-SCS-MP3, EOM     
  Riya Kayal             : Wick's Theorem for AUTO-CI, AUTO-CI UHF-CCSDT 
  Emily Kempfer          : AUTO-CI RHF CISDT and CCSDT, approximate NEVPT4
  Christian Kollmar      : KDIIS, OOCD, Brueckner-CCSD(T), CCSD density, CASPT2, CASPT2-K, improved NEVPT2 
  Axel Koslowski         : Symmetry handling                             
  Simone Kossmann        : meta-GGA functionals, TD-DFT gradient, OOMP2, (MP2 Hessian; deprecated post 5.0) 
  Lucas Lang             : DCDCAS, Hyperfine gauge corrections, ICE-SOC+SSC
  Marvin Lechner         : AUTO-CI (C++ implementation), FIC-MRCC        
  Spencer Leger          : CASSCF response                               
  Dagmar Lenk            : GEPOL surface, SMD, ORCA-2-JSON               
  Dimitrios Liakos       : Extrapolation schemes; Compound Job, Property file
  Dimitrios Manganas     : Further ROCIS development; embedding schemes. LFT, Crystal Embedding 
  Dimitrios Pantazis     : SARC Basis sets                               
  Anastasios Papadopoulos: AUTO-CI, single reference methods and gradients 
  Taras Petrenko         : pre 6.0 DFT Hessian and TD-DFT gradient,  ECA, NRVS 
  Petra Pikulova         : Analytic Raman intensities                    
  Peter Pinski           : DLPNO-MP2, DLPNO-MP2 Gradient                 
  Shashank Vittal Rao    : ES-AILFT, MagRelax                            
  Christoph Reimann      : Effective Core Potentials                     
  Marius Retegan         : Local ZFS, SOC                                
  Christoph Riplinger    : Optimizer, TS searches, QM/MM, DLPNO-CCSD(T), (RO)-DLPNO pert. Triples 
  Michael Roemelt        : Original ROCIS implementation, recursive CI coupling coefficients
  Masaaki Saitow         : Open-shell DLPNO-CCSD energy and density      
  Barbara Sandhoefer     : DKH picture change effects                    
  Yorick L. A. Schmerwitz: GMF and freeze-and-release deltaSCF, NEB S-IDPP initial path                    
  Kantharuban Sivalingam : CASSCF convergence/infrastructure, NEVPT2, NEVPT3, NEVPT4(SD), FIC-MRCI and CEPA variants
  Bernardo de Souza      : ESD, SOC TD-DFT                               
  Georgi L. Stoychev     : AutoAux, RI-MP2 NMR, DLPNO-MP2 response, X2C  
  Van Anh Tran           : RI-MP2 g-tensors                              
  Willem Van den Heuvel  : Paramagnetic NMR                              
  Zikuan Wang            : NOTCH, Electric field optimization            
  Frank Wennmohs         : Technical directorship and infrastructure     
  Hang Xu                : AUTO-CI-Response properties                   
                                                                         
[FACCTs GmbH]                                                            
  Markus Bursch, Nicolas Foglia, Miquel Garcia-Rates, Ingolf Harden, Hagen Neugebauer, Anastasios Papadopoulos, 
  Christoph Riplinger, Bernardo de Souza, Georgi L. Stoychev                                                    
                                                                 
  APM, various basis sets, CI-OPT, improved COSX, DLPNO-Multilevel,           
  DOCKER, DRACO, updates on ESD, Fragmentator, GOAT, IRC, LR-CPCM, L-BFGS, MBIS, meta-GGA TD-DFT gradient, ML-optimized integration grids, 
  MM, NACMEs, nearIR, NEB, NEB-TS, NL-DFT gradient (VV10), 2- and 3-layer-ONIOM, interface openCOSMO-RS, QMMM,   
  Crystal-QMMM, RESP, rigid body optimization, SF, symmetry and pop. for TD-DFT, various functionals, SOLVATOR                                   
                                                                         
[Other institutions]                                                     
  V. Asgeirsson          : NEB                                           
  Christoph Bannwarth    : sTDA-DFT, sTD-DFT, PBEh-3c, B97-3c, D3        
  Giovanni Bistoni       : ETS/NOCV, ADLD/ADEX, COVALED                  
  Martin Brehm           : Molecular dynamics                            
  Ronald Cardenas        : ETS/NOCV                                      
  Martina Colucci        : COVALED                                       
  Sebastian Ehlert       : rSCAN, r2SCAN, r2SCAN-3c, D4, dhf basis sets  
  Marvin Friede          : D4 for Fr, Ra, Ac-Lr                          
  Lars Goerigk           : TD-DFT with DH, B97 family of functionals     
  Stefan Grimme          : VdW corrections, initial TS optimization, DFT functionals, gCP, sTDA/sTD-DF 
  Waldemar Hujo          : DFT-NL                                        
  H. Jonsson             : NEB                                           
  Holger Kruse           : gCP                                           
  Marcel Mueller         : wB97X-3c, vDZP basis set                      
  Hagen Neugebauer       : wr2SCAN, Native XTB                           
  Gianluca Regni         : ADLD/ADEX                                     
  Tobias Risthaus        : pre 6.0 range-separated hybrid DFT and stability analysis
  Lukas Wittmann         : regularized MP2, r2SCAN double-hybrids, wr2SCAN        
                                                                         
We gratefully acknowledge several colleagues who have allowed us to      
interface, adapt or use parts of their codes:                            
  Ed Valeev, F. Pavosevic, A. Kumar             : LibInt (2-el integral package), F12 methods 
  Garnet Chan, S. Sharma, J. Yang, R. Olivares  : DMRG                   
  Ulf Ekstrom                                   : XCFun DFT Library      
  Mihaly Kallay                                 : mrcc  (arbitrary order and MRCC methods)
  Frank Weinhold                                : gennbo (NPA and NBO analysis)           
  Simon Mueller                                 : openCOSMO-RS                            
  Christopher J. Cramer and Donald G. Truhlar   : smd solvation model                     
  S Lehtola, MJT Oliveira, MAL Marques          : LibXC Library                           
  Liviu Ungur et al                             : ANISO software                          


 Your calculation uses the libint2 library for the computation of 2-el integrals
 For citations please refer to: http://libint.valeyev.net

 Your ORCA version has been built with support for libXC version: 7.0.0
 For citations please refer to: https://libxc.gitlab.io

 This ORCA versions uses:
   CBLAS   interface :  Fast vector & matrix operations
   LAPACKE interface :  Fast linear algebra routines
   SCALAPACK package :  Parallel linear algebra routines
   Shared memory     :  Shared parallel matrices
   BLAS/LAPACK       :  OpenBLAS 0.3.29  USE64BITINT DYNAMIC_ARCH NO_AFFINITY SkylakeX SINGLE_THREADED
        Core in use  :  SkylakeX
   Copyright (c) 2011-2014, The OpenBLAS Project


  ***********************************
  * Starting time: Thu Mar 12 12:46:07 2026
  * Host name:     midway3-login4.rcc.local
  * Process ID:    2784745
  * Working dir.:  /home/rzhu16/orca_TS_search/sn2_cl_f/TS_search
  ***********************************

Your calculation utilizes the semiempirical GFN2-xTB method
Please cite in your paper:
Bannwarth, C.; Ehlert S.; Grimme, S. J. Chem. Theory Comput. 2019, 15, 1652.
   

================================================================================

================================================================================
                                        WARNINGS
                       Please study these warnings very carefully!
================================================================================


WARNING: Analytical Hessian for XTB is limited in the analysis of the data.
       : If you want to obtain extensive IR and deltaG analysis, please use ! XTB NumFreq. 


WARNING: Geometry Optimization
  ===> : Switching off AutoStart
         For restart on a previous wavefunction, please use MOREAD

WARNING: Found dipole moment calculation with XTB calculation
  ===> : Switching off dipole moment calculation


WARNING: Found frequency calculation in combination with XTB calculation
  ===> : Need to redirect dipole moment calculation to properties.out


================================================================================
                                       INPUT FILE
================================================================================
NAME = sn2_cl_f.inp
|  1> ! XTB2 OptTS Freq PAL8
|  2> 
|  3> %geom
|  4>   Calc_Hess true
|  5>   Recalc_Hess 5
|  6>   MaxIter 100
|  7> end
|  8> 
|  9> * xyz -1 1
| 10> C    0.000000   0.000000  -0.092640
| 11> H    0.000000   1.085000   0.000000
| 12> H    0.939638  -0.542500   0.000000
| 13> H   -0.939638  -0.542500   0.000000
| 14> Cl   0.000000   0.000000   2.043360
| 15> F    0.000000   0.000000  -1.997040
| 16> *
| 17> 
| 18>                          ****END OF INPUT****
================================================================================

                       *****************************
                       * Geometry Optimization Run *
                       *****************************

Geometry optimization settings:
Update method            Update   .... Bofill
Choice of coordinates    CoordSys .... (2022) Redundant Internals
Initial Hessian          InHess   .... Almloef's Model
Max. no of cycles        MaxIter  .... 100

Convergence Tolerances:
Energy Change            TolE     ....  5.0000e-06 Eh
Max. Gradient            TolMAXG  ....  3.0000e-04 Eh/bohr
RMS Gradient             TolRMSG  ....  1.0000e-04 Eh/bohr
Max. Displacement        TolMAXD  ....  4.0000e-03 bohr
RMS Displacement         TolRMSD  ....  2.0000e-03 bohr
Strict Convergence                .... False

------------------------------------------------------------------------------
                        ORCA OPTIMIZATION COORDINATE SETUP
------------------------------------------------------------------------------

The optimization will be done in redundant internal coordinates (2022)
Making redundant internal coordinates   ...  (2022 redundants) done
Following TS mode number                ...     0
Evaluating the initial hessian          ...  (Is done on the fly) done
Evaluating the coordinates              ...  done
Calculating the B-matrix                .... done
Calculating the G-matrix                .... done
The number of degrees of freedom        ....   14

    -----------------------------------------------------------------
                    Redundant Internal Coordinates


    -----------------------------------------------------------------
         Definition                    Initial Value    d2E/dq (diagonal element)
    -----------------------------------------------------------------
      1. B(H   1,C   0)                  1.0889         0.000000   
      2. B(H   2,C   0)                  1.0889         0.000000   
      3. B(H   3,C   0)                  1.0889         0.000000   
      4. B(Cl  4,C   0)                  2.1360         0.000000   
      5. B(F   5,C   0)                  1.9044         0.000000   
      6. A(H   1,C   0,H   3)          119.2843         0.000000   
      7. A(H   2,C   0,H   3)          119.2844         0.000000   
      8. A(H   1,C   0,Cl  4)           85.1198         0.000000   
      9. A(H   2,C   0,Cl  4)           85.1198         0.000000   
     10. A(H   3,C   0,Cl  4)           85.1198         0.000000   
     11. A(H   1,C   0,F   5)           94.8802         0.000000   
     12. A(H   2,C   0,F   5)           94.8802         0.000000   
     13. A(H   3,C   0,F   5)           94.8802         0.000000   
     14. A(H   1,C   0,H   2)          119.2843         0.000000   
    -----------------------------------------------------------------

Number of atoms                         .... 6
Number of degrees of freedom            .... 14


         *************************************************************
         *                GEOMETRY OPTIMIZATION CYCLE   1            *
         *************************************************************
---------------------------------
CARTESIAN COORDINATES (ANGSTROEM)
---------------------------------
  C     0.000000    0.000000   -0.092640
  H     0.000000    1.085000    0.000000
  H     0.939638   -0.542500    0.000000
  H    -0.939638   -0.542500    0.000000
  Cl    0.000000    0.000000    2.043360
  F     0.000000    0.000000   -1.997040

----------------------------
CARTESIAN COORDINATES (A.U.)
----------------------------
  NO LB    ZA    FRAG    MASS        X           Y           Z
   0 C   6.0000    0    12.011    0.000000    0.000000   -0.175064
   1 H   1.0000    0     1.008    0.000000    2.050353    0.000000
   2 H   1.0000    0     1.008    1.775658   -1.025176    0.000000
   3 H   1.0000    0     1.008   -1.775658   -1.025176    0.000000
   4 Cl 17.0000    0    35.453    0.000000    0.000000    3.861391
   5 F   9.0000    0    18.998    0.000000    0.000000   -3.773859

      -----------------------------------------------------------      
     |                   =====================                   |     
     |                           x T B                           |     
     |                   =====================                   |     
     |                         S. Grimme                         |     
     |          Mulliken Center for Theoretical Chemistry        |     
     |                    University of Bonn                     |     
      -----------------------------------------------------------      

   * xtb version 6.7.1 (edcfbbe) compiled by 'albert@albert-system' on 2024-07-22

   xtb is free software: you can redistribute it and/or modify it under
   the terms of the GNU Lesser General Public License as published by
   the Free Software Foundation, either version 3 of the License, or
   (at your option) any later version.
   
   xtb is distributed in the hope that it will be useful,
   but WITHOUT ANY WARRANTY; without even the implied warranty of
   MERCHANTABILITY or FITNESS FOR A PARTICULAR PURPOSE.  See the
   GNU Lesser General Public License for more details.
   
   Cite this work as:
   * C. Bannwarth, E. Caldeweyher, S. Ehlert, A. Hansen, P. Pracht,
     J. Seibert, S. Spicher, S. Grimme, WIREs Comput. Mol. Sci., 2020, 11,
     e01493. DOI: 10.1002/wcms.1493
   
   for GFN2-xTB:
   * C. Bannwarth, S. Ehlert and S. Grimme., J. Chem. Theory Comput., 2019,
     15, 1652-1671. DOI: 10.1021/acs.jctc.8b01176
   for GFN1-xTB:
   * S. Grimme, C. Bannwarth, P. Shushkov, J. Chem. Theory Comput., 2017,
     13, 1989-2009. DOI: 10.1021/acs.jctc.7b00118
   for GFN0-xTB:
   * P. Pracht, E. Caldeweyher, S. Ehlert, S. Grimme, ChemRxiv, 2019, preprint.
     DOI: 10.26434/chemrxiv.8326202.v1
   for GFN-FF:
   * S. Spicher and S. Grimme, Angew. Chem. Int. Ed., 2020, 59, 15665-15673.
     DOI: 10.1002/anie.202004239
   
   for ALPB and GBSA implicit solvation:
   * S. Ehlert, M. Stahn, S. Spicher, S. Grimme, J. Chem. Theory Comput.,
     2021, 17, 4250-4261. DOI: 10.1021/acs.jctc.1c00471
   
   for ddCOSMO and CPCM-X implicit solvation:
   * M. Stahn, S. Ehlert, S. Grimme, J. Phys. Chem. A,
     2023, XX, XXXX-XXXX. DOI: 10.1021/acs.jpca.3c04382
   
   for DFT-D4:
   * E. Caldeweyher, C. Bannwarth and S. Grimme, J. Chem. Phys., 2017,
     147, 034112. DOI: 10.1063/1.4993215
   * E. Caldeweyher, S. Ehlert, A. Hansen, H. Neugebauer, S. Spicher,
     C. Bannwarth and S. Grimme, J. Chem. Phys., 2019, 150, 154122.
     DOI: 10.1063/1.5090222
   * E. Caldeweyher, J.-M. Mewes, S. Ehlert and S. Grimme, Phys. Chem. Chem. Phys.
     2020, 22, 8499-8512. DOI: 10.1039/D0CP00502A
   
   for sTDA-xTB:
   * S. Grimme and C. Bannwarth, J. Chem. Phys., 2016, 145, 054103.
     DOI: 10.1063/1.4959605
   
   in the mass-spec context:
   * V. Asgeirsson, C. Bauer and S. Grimme, Chem. Sci., 2017, 8, 4879.
     DOI: 10.1039/c7sc00601b
   * J. Koopman and S. Grimme, ACS Omega 2019, 4, 12, 15120-15133.
     DOI: 10.1021/acsomega.9b02011
   
   for metadynamics refer to:
   * S. Grimme, J. Chem. Theory Comput., 2019, 155, 2847-2862
     DOI: 10.1021/acs.jctc.9b00143
   
   for SPH calculations refer to:
   * S. Spicher and S. Grimme, J. Chem. Theory Comput., 2021, 17, 1701-1714
     DOI: 10.1021/acs.jctc.0c01306
   
   for ONIOM refer to:
   * C. Plett, A. Katbashev, S. Ehlert, S. Grimme, M. Bursch,
     Phys. Chem. Chem. Phys., 2023, 25, 17860-17868. DOI: 10.1039/D3CP02178E
   
   for DIPRO refer to:
   * J. Kohn, N. Gildemeister, S. Grimme, D. Fazzi, A. Hansen,
     J. Chem. Phys., 2023, just accepted.
   
   for PTB refer to:
   * S. Grimme, M. Mueller, A. Hansen, J. Chem. Phys., 2023, 158, 124111.
     DOI: 10.1063/5.0137838
   
   with help from (in alphabetical order)
   P. Atkinson, C. Bannwarth, F. Bohle, G. Brandenburg, E. Caldeweyher
   M. Checinski, S. Dohm, S. Ehlert, S. Ehrlich, I. Gerasimov, C. Hölzer
   A. Katbashev, J. Kohn, J. Koopman, C. Lavigne, S. Lehtola, F. März, M. Müller,
   F. Musil, H. Neugebauer, J. Pisarek, C. Plett, P. Pracht, F. Pultar,
   J. Seibert, P. Shushkov, S. Spicher, M. Stahn, M. Steiner, T. Strunk,
   J. Stückrath, T. Rose, and J. Unsleber
   
 * started run on 2026/03/12 at 12:46:07.867     
   ID    Z sym.   atoms
    1    6 C      1
    2    1 H      2-4
    3   17 Cl     5
    4    9 F      6

           -------------------------------------------------
          |                Calculation Setup                |
           -------------------------------------------------

          program call               : /software/orca-6.1.0-el8-x86_64/bin/otool_xtb sn2_cl_f_XTB.xyz --grad -c -1 -u 0 -P 8 --namespace sn2_cl_f --input sn2_cl_f_XTB.input.tmp --acc 0.200000
          hostname                   : midway3-login4.rcc.local
          calculation namespace      : sn2_cl_f
          coordinate file            : sn2_cl_f_XTB.xyz
          omp threads                :                     8


molecular fragmentation (1/2 indicates fragments):
111112
# atoms in fragment 1/2:     5     1
 fragment masses (1/2) :       50.49       19.00
CMA distance (Bohr)    :   6.444
constraining FC (au)   :  0.0500

           -------------------------------------------------
          |                 G F N 2 - x T B                 |
           -------------------------------------------------

        Reference                      10.1021/acs.jctc.8b01176
      * Hamiltonian:
        H0-scaling (s, p, d)           1.850000    2.230000    2.230000
        zeta-weighting                 0.500000
      * Dispersion:
        s8                             2.700000
        a1                             0.520000
        a2                             5.000000
        s9                             5.000000
      * Repulsion:
        kExp                           1.500000    1.000000
        rExp                           1.000000
      * Coulomb:
        alpha                          2.000000
        third order                    shell-resolved
        anisotropic                    true
        a3                             3.000000
        a5                             4.000000
        cn-shift                       1.200000
        cn-exp                         4.000000
        max-rad                        5.000000


          ...................................................
          :                      SETUP                      :
          :.................................................:
          :  # basis functions                  21          :
          :  # atomic orbitals                  20          :
          :  # shells                           10          :
          :  # electrons                        22          :
          :  max. iterations                   250          :
          :  Hamiltonian                  GFN2-xTB          :
          :  restarted?                      false          :
          :  GBSA solvation                  false          :
          :  PC potential                    false          :
          :  electronic temp.          300.0000000     K    :
          :  accuracy                    0.2000000          :
          :  -> integral cutoff          0.3198970E+02      :
          :  -> integral neglect         0.2000000E-08      :
          :  -> SCF convergence          0.2000000E-06 Eh   :
          :  -> wf. convergence          0.2000000E-04 e    :
          :  Broyden damping             0.4000000          :
          :  net charge                         -1          :
          :  unpaired electrons                  0          :
          ...................................................

 iter      E             dE          RMSdq      gap      omega  full diag
   1    -13.1003174 -0.131003E+02  0.687E+00    5.61       0.0  T
   2    -13.1838077 -0.834903E-01  0.278E+00    3.51       1.0  T
   3    -13.1966127 -0.128051E-01  0.193E+00    4.52       1.0  T
   4    -13.1995537 -0.294096E-02  0.355E-01    4.19       1.0  T
   5    -13.1998453 -0.291582E-03  0.180E-01    4.26       1.0  T
   6    -13.1998557 -0.104456E-04  0.145E-01    4.22       1.0  T
   7    -13.1999168 -0.610788E-04  0.583E-02    4.23       1.0  T
   8    -13.1999252 -0.838929E-05  0.119E-02    4.22       3.4  T
   9    -13.1999257 -0.537248E-06  0.390E-03    4.22      10.5  T
  10    -13.1999258 -0.278570E-07  0.134E-03    4.22      30.5  T
  11    -13.1999258 -0.609745E-08  0.362E-04    4.22     112.8  T
  12    -13.1999258 -0.359204E-09  0.177E-05    4.22    2306.0  T
  13    -13.1999258 -0.943245E-12  0.387E-06    4.22   10543.0  T

   *** convergence criteria satisfied after 13 iterations ***

         #    Occupation            Energy/Eh            Energy/eV
      -------------------------------------------------------------
         1        2.0000           -0.8514783             -23.1699
       ...           ...                  ...                  ...
         5        2.0000           -0.3273636              -8.9080
         6        2.0000           -0.2750872              -7.4855
         7        2.0000           -0.2261526              -6.1539
         8        2.0000           -0.2261526              -6.1539
         9        2.0000           -0.2034424              -5.5359
        10        2.0000           -0.2034424              -5.5359
        11        2.0000           -0.2005603              -5.4575 (HOMO)
        12                         -0.0454106              -1.2357 (LUMO)
        13                          0.2280969               6.2068
        14                          0.2532751               6.8920
        15                          0.2532751               6.8920
        16                          0.2540684               6.9136
       ...                                ...                  ...
        20                          0.4084140              11.1135
      -------------------------------------------------------------
                  HL-Gap            0.1551498 Eh            4.2218 eV
             Fermi-level           -0.1229854 Eh           -3.3466 eV

 SCC (total)                   0 d,  0 h,  0 min,  0.068 sec
 SCC setup                      ...        0 min,  0.000 sec (  0.297%)
 Dispersion                     ...        0 min,  0.000 sec (  0.119%)
 classical contributions        ...        0 min,  0.000 sec (  0.069%)
 integral evaluation            ...        0 min,  0.065 sec ( 94.938%)
 iterations                     ...        0 min,  0.002 sec (  3.341%)
 molecular gradient             ...        0 min,  0.001 sec (  0.953%)
 printout                       ...        0 min,  0.000 sec (  0.250%)

         :::::::::::::::::::::::::::::::::::::::::::::::::::::
         ::                     SUMMARY                     ::
         :::::::::::::::::::::::::::::::::::::::::::::::::::::
         :: total energy             -13.148785343961 Eh    ::
         :: gradient norm              0.046229275140 Eh/a0 ::
         :: HOMO-LUMO gap              4.221840292795 eV    ::
         ::.................................................::
         :: SCC energy               -13.199925829420 Eh    ::
         :: -> isotropic ES            0.172570897993 Eh    ::
         :: -> anisotropic ES          0.000118955180 Eh    ::
         :: -> anisotropic XC          0.002445065263 Eh    ::
         :: -> dispersion             -0.002062389103 Eh    ::
         :: repulsion energy           0.051140485459 Eh    ::
         :: add. restraining           0.000000000000 Eh    ::
         :: total charge              -1.000000000000 e     ::
         :::::::::::::::::::::::::::::::::::::::::::::::::::::


Property printout bound to 'properties.out'

           -------------------------------------------------
          | TOTAL ENERGY              -13.148785343961 Eh   |
          | GRADIENT NORM               0.046229275140 Eh/α |
          | HOMO-LUMO GAP               4.221840292795 eV   |
           -------------------------------------------------

------------------------------------------------------------------------
 * finished run on 2026/03/12 at 12:46:07.962     
------------------------------------------------------------------------
 total:
 * wall-time:     0 d,  0 h,  0 min,  0.095 sec
 *  cpu-time:     0 d,  0 h,  0 min,  0.470 sec
 * ratio c/w:     4.944 speedup
 SCF:
 * wall-time:     0 d,  0 h,  0 min,  0.069 sec
 *  cpu-time:     0 d,  0 h,  0 min,  0.405 sec
 * ratio c/w:     5.910 speedup


-------------------------   --------------------
FINAL SINGLE POINT ENERGY       -13.148785343960
-------------------------   --------------------


-------------
DIPOLE MOMENT
-------------
                                X             Y             Z
Total Dipole Moment    :      0.00000       0.00000      -0.42600
                        -----------------------------------------
Magnitude (a.u.)       :      0.42600
Magnitude (Debye)      :      1.08281


------------------
CARTESIAN GRADIENT
------------------

   1   C   :   -0.000000000    0.000000175    0.010943353
   2   H   :    0.000000000    0.011710292    0.012261535
   3   H   :    0.010141627   -0.005855232    0.012261547
   4   H   :   -0.010141627   -0.005855232    0.012261547
   5   Cl  :    0.000000000   -0.000000001   -0.026689672
   6   F   :    0.000000000   -0.000000002   -0.021038308

Difference to translation invariance:
           :    0.0000000000   -0.0000000000   -0.0000000000

Difference to rotation invariance:
           :    0.0000000041    0.0000000000   -0.0000000000

Norm of the Cartesian gradient     ...    0.0462292751
RMS gradient                       ...    0.0108963446
MAX gradient                       ...    0.0266896719
      -----------------------------------------------------------      
     |                   =====================                   |     
     |                           x T B                           |     
     |                   =====================                   |     
     |                         S. Grimme                         |     
     |          Mulliken Center for Theoretical Chemistry        |     
     |                    University of Bonn                     |     
      -----------------------------------------------------------      

   * xtb version 6.7.1 (edcfbbe) compiled by 'albert@albert-system' on 2024-07-22

   xtb is free software: you can redistribute it and/or modify it under
   the terms of the GNU Lesser General Public License as published by
   the Free Software Foundation, either version 3 of the License, or
   (at your option) any later version.
   
   xtb is distributed in the hope that it will be useful,
   but WITHOUT ANY WARRANTY; without even the implied warranty of
   MERCHANTABILITY or FITNESS FOR A PARTICULAR PURPOSE.  See the
   GNU Lesser General Public License for more details.
   
   Cite this work as:
   * C. Bannwarth, E. Caldeweyher, S. Ehlert, A. Hansen, P. Pracht,
     J. Seibert, S. Spicher, S. Grimme, WIREs Comput. Mol. Sci., 2020, 11,
     e01493. DOI: 10.1002/wcms.1493
   
   for GFN2-xTB:
   * C. Bannwarth, S. Ehlert and S. Grimme., J. Chem. Theory Comput., 2019,
     15, 1652-1671. DOI: 10.1021/acs.jctc.8b01176
   for GFN1-xTB:
   * S. Grimme, C. Bannwarth, P. Shushkov, J. Chem. Theory Comput., 2017,
     13, 1989-2009. DOI: 10.1021/acs.jctc.7b00118
   for GFN0-xTB:
   * P. Pracht, E. Caldeweyher, S. Ehlert, S. Grimme, ChemRxiv, 2019, preprint.
     DOI: 10.26434/chemrxiv.8326202.v1
   for GFN-FF:
   * S. Spicher and S. Grimme, Angew. Chem. Int. Ed., 2020, 59, 15665-15673.
     DOI: 10.1002/anie.202004239
   
   for ALPB and GBSA implicit solvation:
   * S. Ehlert, M. Stahn, S. Spicher, S. Grimme, J. Chem. Theory Comput.,
     2021, 17, 4250-4261. DOI: 10.1021/acs.jctc.1c00471
   
   for ddCOSMO and CPCM-X implicit solvation:
   * M. Stahn, S. Ehlert, S. Grimme, J. Phys. Chem. A,
     2023, XX, XXXX-XXXX. DOI: 10.1021/acs.jpca.3c04382
   
   for DFT-D4:
   * E. Caldeweyher, C. Bannwarth and S. Grimme, J. Chem. Phys., 2017,
     147, 034112. DOI: 10.1063/1.4993215
   * E. Caldeweyher, S. Ehlert, A. Hansen, H. Neugebauer, S. Spicher,
     C. Bannwarth and S. Grimme, J. Chem. Phys., 2019, 150, 154122.
     DOI: 10.1063/1.5090222
   * E. Caldeweyher, J.-M. Mewes, S. Ehlert and S. Grimme, Phys. Chem. Chem. Phys.
     2020, 22, 8499-8512. DOI: 10.1039/D0CP00502A
   
   for sTDA-xTB:
   * S. Grimme and C. Bannwarth, J. Chem. Phys., 2016, 145, 054103.
     DOI: 10.1063/1.4959605
   
   in the mass-spec context:
   * V. Asgeirsson, C. Bauer and S. Grimme, Chem. Sci., 2017, 8, 4879.
     DOI: 10.1039/c7sc00601b
   * J. Koopman and S. Grimme, ACS Omega 2019, 4, 12, 15120-15133.
     DOI: 10.1021/acsomega.9b02011
   
   for metadynamics refer to:
   * S. Grimme, J. Chem. Theory Comput., 2019, 155, 2847-2862
     DOI: 10.1021/acs.jctc.9b00143
   
   for SPH calculations refer to:
   * S. Spicher and S. Grimme, J. Chem. Theory Comput., 2021, 17, 1701-1714
     DOI: 10.1021/acs.jctc.0c01306
   
   for ONIOM refer to:
   * C. Plett, A. Katbashev, S. Ehlert, S. Grimme, M. Bursch,
     Phys. Chem. Chem. Phys., 2023, 25, 17860-17868. DOI: 10.1039/D3CP02178E
   
   for DIPRO refer to:
   * J. Kohn, N. Gildemeister, S. Grimme, D. Fazzi, A. Hansen,
     J. Chem. Phys., 2023, just accepted.
   
   for PTB refer to:
   * S. Grimme, M. Mueller, A. Hansen, J. Chem. Phys., 2023, 158, 124111.
     DOI: 10.1063/5.0137838
   
   with help from (in alphabetical order)
   P. Atkinson, C. Bannwarth, F. Bohle, G. Brandenburg, E. Caldeweyher
   M. Checinski, S. Dohm, S. Ehlert, S. Ehrlich, I. Gerasimov, C. Hölzer
   A. Katbashev, J. Kohn, J. Koopman, C. Lavigne, S. Lehtola, F. März, M. Müller,
   F. Musil, H. Neugebauer, J. Pisarek, C. Plett, P. Pracht, F. Pultar,
   J. Seibert, P. Shushkov, S. Spicher, M. Stahn, M. Steiner, T. Strunk,
   J. Stückrath, T. Rose, and J. Unsleber
   
 * started run on 2026/03/12 at 12:46:07.971     
   ID    Z sym.   atoms
    1    6 C      1
    2    1 H      2-4
    3   17 Cl     5
    4    9 F      6

           -------------------------------------------------
          |                Calculation Setup                |
           -------------------------------------------------

          program call               : /software/orca-6.1.0-el8-x86_64/bin/otool_xtb sn2_cl_f_XTB.xyz --hess -c -1 -u 0 -P 8 --namespace sn2_cl_f --input sn2_cl_f_XTB.input.tmp --acc 0.200000
          hostname                   : midway3-login4.rcc.local
          calculation namespace      : sn2_cl_f
          coordinate file            : sn2_cl_f_XTB.xyz
          omp threads                :                     8


molecular fragmentation (1/2 indicates fragments):
111112
# atoms in fragment 1/2:     5     1
 fragment masses (1/2) :       50.49       19.00
CMA distance (Bohr)    :   6.444
constraining FC (au)   :  0.0500

           -------------------------------------------------
          |                 G F N 2 - x T B                 |
           -------------------------------------------------

        Reference                      10.1021/acs.jctc.8b01176
      * Hamiltonian:
        H0-scaling (s, p, d)           1.850000    2.230000    2.230000
        zeta-weighting                 0.500000
      * Dispersion:
        s8                             2.700000
        a1                             0.520000
        a2                             5.000000
        s9                             5.000000
      * Repulsion:
        kExp                           1.500000    1.000000
        rExp                           1.000000
      * Coulomb:
        alpha                          2.000000
        third order                    shell-resolved
        anisotropic                    true
        a3                             3.000000
        a5                             4.000000
        cn-shift                       1.200000
        cn-exp                         4.000000
        max-rad                        5.000000

q/qsh data taken from xtbrestart
CAMM data taken from xtbrestart

          ...................................................
          :                      SETUP                      :
          :.................................................:
          :  # basis functions                  21          :
          :  # atomic orbitals                  20          :
          :  # shells                           10          :
          :  # electrons                        22          :
          :  max. iterations                   250          :
          :  Hamiltonian                  GFN2-xTB          :
          :  restarted?                       true          :
          :  GBSA solvation                  false          :
          :  PC potential                    false          :
          :  electronic temp.          300.0000000     K    :
          :  accuracy                    0.2000000          :
          :  -> integral cutoff          0.3198970E+02      :
          :  -> integral neglect         0.2000000E-08      :
          :  -> SCF convergence          0.2000000E-06 Eh   :
          :  -> wf. convergence          0.2000000E-04 e    :
          :  Broyden damping             0.4000000          :
          :  net charge                         -1          :
          :  unpaired electrons                  0          :
          ...................................................

 iter      E             dE          RMSdq      gap      omega  full diag
   1    -13.1999258 -0.131999E+02  0.250E-07    4.22       0.0  T
   2    -13.1999258 -0.355271E-14  0.882E-08    4.22  100000.0  T
   3    -13.1999258 -0.177636E-14  0.573E-08    4.22  100000.0  T

   *** convergence criteria satisfied after 3 iterations ***

         #    Occupation            Energy/Eh            Energy/eV
      -------------------------------------------------------------
         1        2.0000           -0.8514783             -23.1699
       ...           ...                  ...                  ...
         5        2.0000           -0.3273635              -8.9080
         6        2.0000           -0.2750872              -7.4855
         7        2.0000           -0.2261526              -6.1539
         8        2.0000           -0.2261526              -6.1539
         9        2.0000           -0.2034424              -5.5359
        10        2.0000           -0.2034424              -5.5359
        11        2.0000           -0.2005603              -5.4575 (HOMO)
        12                         -0.0454105              -1.2357 (LUMO)
        13                          0.2280969               6.2068
        14                          0.2532751               6.8920
        15                          0.2532751               6.8920
        16                          0.2540684               6.9136
       ...                                ...                  ...
        20                          0.4084140              11.1135
      -------------------------------------------------------------
                  HL-Gap            0.1551498 Eh            4.2218 eV
             Fermi-level           -0.1229854 Eh           -3.3466 eV

 SCC (total)                   0 d,  0 h,  0 min,  0.105 sec
 SCC setup                      ...        0 min,  0.000 sec (  0.168%)
 Dispersion                     ...        0 min,  0.000 sec (  0.051%)
 classical contributions        ...        0 min,  0.000 sec (  0.028%)
 integral evaluation            ...        0 min,  0.103 sec ( 98.456%)
 iterations                     ...        0 min,  0.001 sec (  0.771%)
 molecular gradient             ...        0 min,  0.000 sec (  0.381%)
 printout                       ...        0 min,  0.000 sec (  0.128%)

         :::::::::::::::::::::::::::::::::::::::::::::::::::::
         ::                     SUMMARY                     ::
         :::::::::::::::::::::::::::::::::::::::::::::::::::::
         :: total energy             -13.148785343961 Eh    ::
         :: gradient norm              0.046229269649 Eh/a0 ::
         :: HOMO-LUMO gap              4.221841213899 eV    ::
         ::.................................................::
         :: SCC energy               -13.199925829420 Eh    ::
         :: -> isotropic ES            0.172570923839 Eh    ::
         :: -> anisotropic ES          0.000118952570 Eh    ::
         :: -> anisotropic XC          0.002445057819 Eh    ::
         :: -> dispersion             -0.002062389290 Eh    ::
         :: repulsion energy           0.051140485459 Eh    ::
         :: add. restraining           0.000000000000 Eh    ::
         :: total charge              -1.000000000000 e     ::
         :::::::::::::::::::::::::::::::::::::::::::::::::::::

           ------------------------------------------------- 
          |                Numerical Hessian                |
           ------------------------------------------------- 
step length          :   0.00500
SCC accuracy         :   0.30000
Hessian scale factor :   1.00000
frozen atoms in %    :   0.00000    0
RMS gradient         :   0.04623 !! INCOMPLETELY OPTIMIZED GEOMETRY !!
estimated CPU  time      0.00 min
estimated wall time      0.00 min

writing file <hessian>.

 projected vibrational frequencies (cm⁻¹)
eigval :       -0.00    -0.00    -0.00     0.00     0.00     0.00
eigval :     -255.96   270.50   270.51   306.40  1135.53  1135.53
eigval :     1172.01  1362.93  1363.11  2903.23  2985.82  2985.91

Property printout bound to 'properties.out'
Molecule has the following symmetry elements: (C3) 3*(sigma) 
It seems to be the C3v point group
imag cut-off (cm-1) :    5.00
 found            1  significant imaginary frequency
 writing imag mode distorted coords to xtbhess.xyz
 for further optimization.

           -------------------------------------------------
          | TOTAL ENERGY              -13.148785343961 Eh   |
          | TOTAL ENTHALPY            -13.107396706720 Eh   |
          | TOTAL FREE ENERGY         -13.138127610858 Eh   |
          | GRADIENT NORM               0.046229269835 Eh/α |
          | HOMO-LUMO GAP               4.221841208524 eV   |
           -------------------------------------------------
########################################################################
[WARNING] Runtime exception occurred
-1- hessian_numhess: Hessian on incompletely optimized geometry!
########################################################################

------------------------------------------------------------------------
 * finished run on 2026/03/12 at 12:46:08.165     
------------------------------------------------------------------------
 total:
 * wall-time:     0 d,  0 h,  0 min,  0.194 sec
 *  cpu-time:     0 d,  0 h,  0 min,  0.709 sec
 * ratio c/w:     3.658 speedup
 SCF:
 * wall-time:     0 d,  0 h,  0 min,  0.105 sec
 *  cpu-time:     0 d,  0 h,  0 min,  0.523 sec
 * ratio c/w:     4.980 speedup
 analytical hessian:
 * wall-time:     0 d,  0 h,  0 min,  0.060 sec
 *  cpu-time:     0 d,  0 h,  0 min,  0.118 sec
 * ratio c/w:     1.960 speedup


-------------------------   --------------------
FINAL SINGLE POINT ENERGY       -13.148785343960
-------------------------   --------------------


-------------
DIPOLE MOMENT
-------------
                                X             Y             Z
Total Dipole Moment    :     -0.00000      -0.00000      -0.42600
                        -----------------------------------------
Magnitude (a.u.)       :      0.42600
Magnitude (Debye)      :      1.08281


-----------------------
VIBRATIONAL FREQUENCIES
-----------------------

Scaling factor for frequencies =  1.000000000  (already applied!)

     0:       0.00 cm**-1
     1:       0.00 cm**-1
     2:       0.00 cm**-1
     3:       0.00 cm**-1
     4:       0.00 cm**-1
     5:       0.00 cm**-1
     6:    -255.96 cm**-1  ***imaginary mode***
     7:     270.50 cm**-1
     8:     270.51 cm**-1
     9:     306.40 cm**-1
    10:    1135.50 cm**-1
    11:    1135.50 cm**-1
    12:    1171.97 cm**-1
    13:    1362.89 cm**-1
    14:    1363.07 cm**-1
    15:    2903.14 cm**-1
    16:    2985.74 cm**-1
    17:    2985.83 cm**-1


------------
NORMAL MODES
------------

These modes are the Cartesian displacements weighted by the diagonal matrix
M(i,i)=1/sqrt(m[i]) where m[i] is the mass of the displaced atom
Thus, these vectors are normalized but *not* orthogonal

                  0          1          2          3          4          5    
      0       0.000000   0.000000   0.000000   0.000000   0.000000   0.000000
      1       0.000000   0.000000   0.000000   0.000000   0.000000   0.000000
      2       0.000000   0.000000   0.000000   0.000000   0.000000   0.000000
      3       0.000000   0.000000   0.000000   0.000000   0.000000   0.000000
      4       0.000000   0.000000   0.000000   0.000000   0.000000   0.000000
      5       0.000000   0.000000   0.000000   0.000000   0.000000   0.000000
      6       0.000000   0.000000   0.000000   0.000000   0.000000   0.000000
      7       0.000000   0.000000   0.000000   0.000000   0.000000   0.000000
      8       0.000000   0.000000   0.000000   0.000000   0.000000   0.000000
      9       0.000000   0.000000   0.000000   0.000000   0.000000   0.000000
     10       0.000000   0.000000   0.000000   0.000000   0.000000   0.000000
     11       0.000000   0.000000   0.000000   0.000000   0.000000   0.000000
     12       0.000000   0.000000   0.000000   0.000000   0.000000   0.000000
     13       0.000000   0.000000   0.000000   0.000000   0.000000   0.000000
     14       0.000000   0.000000   0.000000   0.000000   0.000000   0.000000
     15       0.000000   0.000000   0.000000   0.000000   0.000000   0.000000
     16       0.000000   0.000000   0.000000   0.000000   0.000000   0.000000
     17       0.000000   0.000000   0.000000   0.000000   0.000000   0.000000
                  6          7          8          9         10         11    
      0      -0.000003  -0.471201   0.001583   0.000002  -0.014751   0.000914
      1      -0.000430  -0.001583  -0.471208  -0.003437  -0.000915  -0.014758
      2      -0.910138   0.000001  -0.000140   0.330122  -0.000001  -0.000017
      3       0.000001  -0.506867   0.001703   0.000001   0.109866  -0.006811
      4      -0.055979  -0.001610  -0.479167   0.029833   0.003035   0.048981
      5      -0.043755  -0.000031  -0.009763  -0.008136  -0.049937  -0.805632
      6      -0.048307  -0.486072  -0.010463   0.028993   0.065844   0.022429
      7       0.026901  -0.013709  -0.499836  -0.019846   0.032230   0.093065
      8      -0.043782  -0.008420   0.004893  -0.007979  -0.672835   0.446262
      9       0.048308  -0.485991   0.013729  -0.028991   0.062575  -0.030387
     10       0.026900   0.010350  -0.499917  -0.019846  -0.020490   0.096335
     11      -0.043781   0.008456   0.004835  -0.007977   0.722798   0.359752
     12       0.000000   0.095915  -0.000322  -0.000000  -0.010221   0.000634
     13       0.000099   0.000322   0.095916   0.000686  -0.000634  -0.010221
     14       0.108040   0.000002   0.000706  -0.528897  -0.000000  -0.000001
     15       0.000001   0.197383  -0.000663  -0.000001   0.015757  -0.000977
     16       0.000202   0.000663   0.197386   0.001415   0.000977   0.015757
     17       0.380761  -0.000004  -0.001227   0.779565  -0.000001  -0.000006
                 12         13         14         15         16         17    
      0       0.000000  -0.000003   0.098995   0.000000  -0.000006   0.097959
      1       0.000031  -0.098981  -0.000003  -0.000036  -0.097969  -0.000006
      2       0.031059  -0.000047  -0.000000   0.009394  -0.000002  -0.000000
      3      -0.000002   0.000024  -0.801084  -0.000000   0.000002   0.039907
      4       0.035118  -0.064196   0.000002  -0.576152   0.809675   0.000045
      5      -0.575867   0.119357   0.000006  -0.033290   0.058133   0.000003
      6       0.030281   0.374858  -0.152068  -0.499163  -0.367596  -0.597171
      7      -0.017677   0.584656  -0.374686   0.288361   0.172401   0.367819
      8      -0.575542  -0.059926  -0.103443  -0.033317  -0.029049  -0.050338
      9      -0.030285  -0.374843  -0.152086   0.499163   0.367664  -0.597133
     10      -0.017677   0.584637   0.374722   0.288361   0.172438  -0.367793
     11      -0.575540  -0.059929   0.103440  -0.033320  -0.029057   0.050339
     12       0.000000   0.000000  -0.001644   0.000000   0.000000  -0.000085
     13      -0.000004   0.001645   0.000000  -0.000002   0.000085  -0.000000
     14       0.026017   0.000029   0.000000  -0.000634   0.000000  -0.000000
     15       0.000000   0.000000  -0.000877  -0.000000   0.000000  -0.000523
     16       0.000001   0.000875   0.000000  -0.000004   0.000523   0.000000
     17       0.023442   0.000001  -0.000000   0.000546  -0.000000   0.000000


The first frequency considered to be a vibration is 7
The total number of vibrations considered is 11


--------------------------
THERMOCHEMISTRY AT 298.15K
--------------------------

Temperature         ...   298.15 K
Pressure            ...     1.00 atm
Total Mass          ...    69.49 AMU
Quasi RRHO          ...     True
Cut-Off Frequency   ...     1.00 cm^-1

Throughout the following assumptions are being made:
  (1) The electronic state is orbitally nondegenerate
  (2) There are no thermally accessible electronically excited states
  (3) Hindered rotations indicated by low frequency modes are not
      treated as such but are treated as vibrations and this may
      cause some error
  (4) All equations used are the standard statistical mechanics
      equations for an ideal gas
  (5) All vibrations are strictly harmonic

freq.     270.50  E(vib)   ...       0.29 
freq.     270.51  E(vib)   ...       0.29 
freq.     306.40  E(vib)   ...       0.26 
freq.    1135.50  E(vib)   ...       0.01 
freq.    1135.50  E(vib)   ...       0.01 
freq.    1171.97  E(vib)   ...       0.01 
freq.    1362.89  E(vib)   ...       0.01 
freq.    1363.07  E(vib)   ...       0.01 
freq.    2903.14  E(vib)   ...       0.00 
freq.    2985.74  E(vib)   ...       0.00 
freq.    2985.83  E(vib)   ...       0.00 

------------
INNER ENERGY
------------

The inner energy is: U= E(el) + E(ZPE) + E(vib) + E(rot) + E(trans)
    E(el)   - is the total energy from the electronic structure calculation
              = E(kin-el) + E(nuc-el) + E(el-el) + E(nuc-nuc)
    E(ZPE)  - the the zero temperature vibrational energy from the frequency calculation
    E(vib)  - the the finite temperature correction to E(ZPE) due to population
              of excited vibrational states
    E(rot)  - is the rotational thermal energy
    E(trans)- is the translational thermal energy

Summary of contributions to the inner energy U:
Electronic energy                ...    -13.14878534 Eh
Zero point energy                ...      0.03620247 Eh      22.72 kcal/mol
Thermal vibrational correction   ...      0.00140840 Eh       0.88 kcal/mol
Thermal rotational correction    ...      0.00141627 Eh       0.89 kcal/mol
Thermal translational correction ...      0.00141627 Eh       0.89 kcal/mol
-----------------------------------------------------------------------
Total thermal energy                    -13.10834193 Eh


Summary of corrections to the electronic energy:
(perhaps to be used in another calculation)
Total thermal correction                  0.00424094 Eh       2.66 kcal/mol
Non-thermal (ZPE) correction              0.03620247 Eh      22.72 kcal/mol
-----------------------------------------------------------------------
Total correction                          0.04044341 Eh      25.38 kcal/mol


--------
ENTHALPY
--------

The enthalpy is H = U + kB*T
                kB is Boltzmann's constant
Total thermal energy              ...    -13.10834193 Eh 
Thermal Enthalpy correction       ...      0.00094421 Eh       0.59 kcal/mol
-----------------------------------------------------------------------
Total Enthalpy                    ...    -13.10739772 Eh


WARNING (ORCA/SYM): The number of Z matrix atoms does not agree with
the number of centers in the basis set. The point group will therefore
be determined without considering basis set information.


Note: Rotational entropy computed according to Herzberg 
Infrared and Raman Spectra, Chapter V,1, Van Nostrand Reinhold, 1945 
Point Group:  C3v, Symmetry Number:   3  
Rotational constants in cm-1:     4.735387     0.080415     0.080415 

Vibrational entropy computed according to the QRRHO of S. Grimme
Chem.Eur.J. 2012 18 9955 using a reference frequency of 100.0 cm-1


-------
ENTROPY
-------

The entropy contributions are T*S = T*(S(el)+S(vib)+S(rot)+S(trans))
     S(el)   - electronic entropy
     S(vib)  - vibrational entropy
     S(rot)  - rotational entropy
     S(trans)- translational entropy
The entropies will be listed as multiplied by the temperature to get
units of energy

Electronic entropy                ...      0.00000000 Eh      0.00 kcal/mol
Vibrational entropy               ...      0.00227029 Eh      1.42 kcal/mol
Rotational entropy                ...      0.01011925 Eh      6.35 kcal/mol
Translational entropy             ...      0.01835566 Eh     11.52 kcal/mol
-----------------------------------------------------------------------
Final entropy term                ...      0.03074519 Eh     19.29 kcal/mol

In case the symmetry of your molecule has not been determined correctly
or in case you have a reason to use a different symmetry number we print 
out the resulting rotational entropy values for sn=1,12:

 non-linear molecules -----------------------------------
|  sn= 1 | S(rot)=       0.01115654 Eh      7.00 kcal/mol|
|  sn= 2 | S(rot)=       0.01050208 Eh      6.59 kcal/mol|
|  sn= 3 | S(rot)=       0.01011925 Eh      6.35 kcal/mol|
|  sn= 4 | S(rot)=       0.00984762 Eh      6.18 kcal/mol|
|  sn= 5 | S(rot)=       0.00963694 Eh      6.05 kcal/mol|
|  sn= 6 | S(rot)=       0.00946479 Eh      5.94 kcal/mol|
|  sn= 7 | S(rot)=       0.00931924 Eh      5.85 kcal/mol|
|  sn= 8 | S(rot)=       0.00919317 Eh      5.77 kcal/mol|
|  sn= 9 | S(rot)=       0.00908196 Eh      5.70 kcal/mol|
|  sn=10 | S(rot)=       0.00898248 Eh      5.64 kcal/mol|
|  sn=11 | S(rot)=       0.00889249 Eh      5.58 kcal/mol|
|  sn=12 | S(rot)=       0.00881033 Eh      5.53 kcal/mol|
 linear molecules ---------------------------------------
|  Dinfh | S(rot)=       0.00770566 Eh      4.84 kcal/mol|
|  Cinfv | S(rot)=       0.00836012 Eh      5.25 kcal/mol|
 --------------------------------------------------------


-------------------
GIBBS FREE ENERGY
-------------------

The Gibbs free energy is G = H - T*S

Total enthalpy                    ...    -13.10739772 Eh 
Total entropy correction          ...     -0.03074519 Eh    -19.29 kcal/mol
-----------------------------------------------------------------------
Final Gibbs free energy         ...    -13.13814291 Eh

For completeness - the Gibbs free energy minus the electronic energy
G-E(el)                           ...      0.01064243 Eh      6.68 kcal/mol

Actual Hessian File stored as sn2_cl_f.001.hess
------------------------------------------------------------------------------
                         ORCA GEOMETRY RELAXATION STEP
------------------------------------------------------------------------------

Reading the OPT-File                    .... done
Getting information on internals        .... done
Copying old internal coords+grads       .... done
Making the new internal coordinates     .... (2022 redundants) done
Validating the new internal coordinates .... (2022 redundants) done
Calculating the B-matrix                .... done
Calculating the G,G- and P matrices     .... done
Transforming gradient to internals      .... done
Projecting the internal gradient        .... done
Number of atoms                         ....   6
Number of internal coordinates          ....  14
Current Energy                          ....   -13.148785344 Eh
Current gradient norm                   ....     0.046229275 Eh/bohr
Maximum allowed component of the step   ....  0.300
Current trust radius                    ....  0.300
Evaluating the initial hessian          ....  (read) 
(Reading Exact Hessian)...  
InHessName: sn2_cl_f.hess	The file <sn2_cl_f.hess> is opened as a .hess file
done
done
Projecting the Hessian                  .... done
Diagonalizing the Hessian               .... done
Dimension of the hessian                ....  14
Lowest eigenvalues of the Hessian:
 -0.008858061  0.075447556  0.087040189  0.087054969  0.100631151
Hessian has   1 negative eigenvalues
Taking P-RFO step
Searching for lambda that maximizes along the lowest mode
TS mode is mode number   0 with eigenvalue  -0.00885806 and components:
   1.   -0.00852718
   2.   -0.00855440
   3.   -0.00855199
   4.   -0.50903633
   5.    0.70065847
   6.    0.05814022
   7.    0.05848858
   8.    0.19994520
   9.    0.19975192
  10.    0.19975127
  11.   -0.19965765
  12.   -0.19989459
  13.   -0.19989615
  14.    0.05814227

Lambda that maximizes along the TS mode:       0.01040684
Searching for lambda that minimizes along all other modes
In cycle   1: lambdaN =  -0.01248835   step =   0.01248835
In cycle   2: lambdaN =  -0.01259380   step =   0.00010545
In cycle   3: lambdaN =  -0.01259381   step =   0.00000001
Lambda that minimizes along all other modes:  -0.01259381
Calculated stepsize too large (   0.7428 >    0.3000). Scaled with    0.4039.
The final length of the internal step   ....       0.3000
Converting the step to Cartesian space:
 Initial RMS(Int)=    0.0801783726
Transforming coordinates:
 Iter   0:  RMS(Cart)=    0.0419670434 RMS(Int)=    0.0792302052
 Iter   5:  RMS(Cart)=    0.0000002954 RMS(Int)=    0.0000003287
done
Storing new coordinates                 .... done

                                .--------------------.
          ----------------------|Geometry convergence|-------------------------
          Item                value                   Tolerance       Converged
          ---------------------------------------------------------------------
          RMS gradient        0.0131116428            0.0001000000      NO
          MAX gradient        0.0266896719            0.0003000000      NO
          RMS step            0.0801783726            0.0020000000      NO
          MAX step            0.1211646933            0.0040000000      NO
          -------------------------------------------------------------------------
          ........................................................
          Max(Bonds)      0.0641      Max(Angles)    5.59
          Max(Dihed)        0.00      Max(Improp)    0.00
          ---------------------------------------------------------------------

The optimization has not yet converged - more geometry cycles are needed


    ---------------------------------------------------------------------------
                         Redundant Internal Coordinates
                            (Angstroem and degrees)

        Definition                    Value    dE/dq     Step     New-Value  comp.(TS mode)
    ----------------------------------------------------------------------------
     1. B(H   1,C   0)                1.0889  0.012711 -0.0105    1.0784   
     2. B(H   2,C   0)                1.0889  0.012711 -0.0105    1.0784   
     3. B(H   3,C   0)                1.0889  0.012711 -0.0105    1.0784   
     4. B(Cl  4,C   0)                2.1360 -0.026690 -0.0641    2.0719          0.51
     5. B(F   5,C   0)                1.9044  0.021038  0.0641    1.9685          0.70
     6. A(H   1,C   0,H   3)          119.28 -0.003229    1.63    120.91   
     7. A(H   2,C   0,H   3)          119.28 -0.003229    1.63    120.92   
     8. A(H   1,C   0,Cl  4)           85.12 -0.011075    5.59     90.71   
     9. A(H   2,C   0,Cl  4)           85.12 -0.011075    5.59     90.71   
    10. A(H   3,C   0,Cl  4)           85.12 -0.011075    5.59     90.71   
    11. A(H   1,C   0,F   5)           94.88  0.011075   -5.58     89.30   
    12. A(H   2,C   0,F   5)           94.88  0.011075   -5.59     89.29   
    13. A(H   3,C   0,F   5)           94.88  0.011075   -5.59     89.29   
    14. A(H   1,C   0,H   2)          119.28 -0.003229    1.63    120.91   
    ----------------------------------------------------------------------------

Geometry step timings:
Preparation and reading OPT file:      0.000 s ( 0.778 %)
Internal coordinates            :      0.000 s ( 0.893 %)
B/P matrices and projection     :      0.000 s ( 2.724 %)
Hessian update/contruction      :      0.004 s (82.628 %)
Making the step                 :      0.000 s ( 3.685 %)
Converting the step to Cartesian:      0.000 s ( 1.053 %)
Storing new data                :      0.000 s ( 1.694 %)
Checking convergence            :      0.000 s ( 1.373 %)
Final printing                  :      0.000 s ( 5.058 %)
Total time                      :      0.004 s

Time for energy+gradient        :      0.105 s
Time for complete geometry iter :      0.323 s

         *************************************************************
         *                GEOMETRY OPTIMIZATION CYCLE   2            *
         *************************************************************
---------------------------------
CARTESIAN COORDINATES (ANGSTROEM)
---------------------------------
  C     0.000000    0.000009   -0.017024
  H     0.000000    1.078326   -0.032868
  H     0.933860   -0.539127   -0.032872
  H    -0.933860   -0.539127   -0.032872
  Cl   -0.000000   -0.000038    2.054858
  F    -0.000001   -0.000042   -1.985542

----------------------------
CARTESIAN COORDINATES (A.U.)
----------------------------
  NO LB    ZA    FRAG    MASS        X           Y           Z
   0 C   6.0000    0    12.011    0.000001    0.000017   -0.032171
   1 H   1.0000    0     1.008    0.000000    2.037741   -0.062112
   2 H   1.0000    0     1.008    1.764740   -1.018803   -0.062119
   3 H   1.0000    0     1.008   -1.764739   -1.018803   -0.062119
   4 Cl 17.0000    0    35.453   -0.000001   -0.000073    3.883119
   5 F   9.0000    0    18.998   -0.000001   -0.000079   -3.752130

      -----------------------------------------------------------      
     |                   =====================                   |     
     |                           x T B                           |     
     |                   =====================                   |     
     |                         S. Grimme                         |     
     |          Mulliken Center for Theoretical Chemistry        |     
     |                    University of Bonn                     |     
      -----------------------------------------------------------      

   * xtb version 6.7.1 (edcfbbe) compiled by 'albert@albert-system' on 2024-07-22

   xtb is free software: you can redistribute it and/or modify it under
   the terms of the GNU Lesser General Public License as published by
   the Free Software Foundation, either version 3 of the License, or
   (at your option) any later version.
   
   xtb is distributed in the hope that it will be useful,
   but WITHOUT ANY WARRANTY; without even the implied warranty of
   MERCHANTABILITY or FITNESS FOR A PARTICULAR PURPOSE.  See the
   GNU Lesser General Public License for more details.
   
   Cite this work as:
   * C. Bannwarth, E. Caldeweyher, S. Ehlert, A. Hansen, P. Pracht,
     J. Seibert, S. Spicher, S. Grimme, WIREs Comput. Mol. Sci., 2020, 11,
     e01493. DOI: 10.1002/wcms.1493
   
   for GFN2-xTB:
   * C. Bannwarth, S. Ehlert and S. Grimme., J. Chem. Theory Comput., 2019,
     15, 1652-1671. DOI: 10.1021/acs.jctc.8b01176
   for GFN1-xTB:
   * S. Grimme, C. Bannwarth, P. Shushkov, J. Chem. Theory Comput., 2017,
     13, 1989-2009. DOI: 10.1021/acs.jctc.7b00118
   for GFN0-xTB:
   * P. Pracht, E. Caldeweyher, S. Ehlert, S. Grimme, ChemRxiv, 2019, preprint.
     DOI: 10.26434/chemrxiv.8326202.v1
   for GFN-FF:
   * S. Spicher and S. Grimme, Angew. Chem. Int. Ed., 2020, 59, 15665-15673.
     DOI: 10.1002/anie.202004239
   
   for ALPB and GBSA implicit solvation:
   * S. Ehlert, M. Stahn, S. Spicher, S. Grimme, J. Chem. Theory Comput.,
     2021, 17, 4250-4261. DOI: 10.1021/acs.jctc.1c00471
   
   for ddCOSMO and CPCM-X implicit solvation:
   * M. Stahn, S. Ehlert, S. Grimme, J. Phys. Chem. A,
     2023, XX, XXXX-XXXX. DOI: 10.1021/acs.jpca.3c04382
   
   for DFT-D4:
   * E. Caldeweyher, C. Bannwarth and S. Grimme, J. Chem. Phys., 2017,
     147, 034112. DOI: 10.1063/1.4993215
   * E. Caldeweyher, S. Ehlert, A. Hansen, H. Neugebauer, S. Spicher,
     C. Bannwarth and S. Grimme, J. Chem. Phys., 2019, 150, 154122.
     DOI: 10.1063/1.5090222
   * E. Caldeweyher, J.-M. Mewes, S. Ehlert and S. Grimme, Phys. Chem. Chem. Phys.
     2020, 22, 8499-8512. DOI: 10.1039/D0CP00502A
   
   for sTDA-xTB:
   * S. Grimme and C. Bannwarth, J. Chem. Phys., 2016, 145, 054103.
     DOI: 10.1063/1.4959605
   
   in the mass-spec context:
   * V. Asgeirsson, C. Bauer and S. Grimme, Chem. Sci., 2017, 8, 4879.
     DOI: 10.1039/c7sc00601b
   * J. Koopman and S. Grimme, ACS Omega 2019, 4, 12, 15120-15133.
     DOI: 10.1021/acsomega.9b02011
   
   for metadynamics refer to:
   * S. Grimme, J. Chem. Theory Comput., 2019, 155, 2847-2862
     DOI: 10.1021/acs.jctc.9b00143
   
   for SPH calculations refer to:
   * S. Spicher and S. Grimme, J. Chem. Theory Comput., 2021, 17, 1701-1714
     DOI: 10.1021/acs.jctc.0c01306
   
   for ONIOM refer to:
   * C. Plett, A. Katbashev, S. Ehlert, S. Grimme, M. Bursch,
     Phys. Chem. Chem. Phys., 2023, 25, 17860-17868. DOI: 10.1039/D3CP02178E
   
   for DIPRO refer to:
   * J. Kohn, N. Gildemeister, S. Grimme, D. Fazzi, A. Hansen,
     J. Chem. Phys., 2023, just accepted.
   
   for PTB refer to:
   * S. Grimme, M. Mueller, A. Hansen, J. Chem. Phys., 2023, 158, 124111.
     DOI: 10.1063/5.0137838
   
   with help from (in alphabetical order)
   P. Atkinson, C. Bannwarth, F. Bohle, G. Brandenburg, E. Caldeweyher
   M. Checinski, S. Dohm, S. Ehlert, S. Ehrlich, I. Gerasimov, C. Hölzer
   A. Katbashev, J. Kohn, J. Koopman, C. Lavigne, S. Lehtola, F. März, M. Müller,
   F. Musil, H. Neugebauer, J. Pisarek, C. Plett, P. Pracht, F. Pultar,
   J. Seibert, P. Shushkov, S. Spicher, M. Stahn, M. Steiner, T. Strunk,
   J. Stückrath, T. Rose, and J. Unsleber
   
 * started run on 2026/03/12 at 12:46:08.190     
   ID    Z sym.   atoms
    1    6 C      1
    2    1 H      2-4
    3   17 Cl     5
    4    9 F      6

           -------------------------------------------------
          |                Calculation Setup                |
           -------------------------------------------------

          program call               : /software/orca-6.1.0-el8-x86_64/bin/otool_xtb sn2_cl_f_XTB.xyz --grad -c -1 -u 0 -P 8 --namespace sn2_cl_f --input sn2_cl_f_XTB.input.tmp --acc 0.200000
          hostname                   : midway3-login4.rcc.local
          calculation namespace      : sn2_cl_f
          coordinate file            : sn2_cl_f_XTB.xyz
          omp threads                :                     8


molecular fragmentation (1/2 indicates fragments):
111112
# atoms in fragment 1/2:     5     1
 fragment masses (1/2) :       50.49       19.00
CMA distance (Bohr)    :   6.468
constraining FC (au)   :  0.0500

           -------------------------------------------------
          |                 G F N 2 - x T B                 |
           -------------------------------------------------

        Reference                      10.1021/acs.jctc.8b01176
      * Hamiltonian:
        H0-scaling (s, p, d)           1.850000    2.230000    2.230000
        zeta-weighting                 0.500000
      * Dispersion:
        s8                             2.700000
        a1                             0.520000
        a2                             5.000000
        s9                             5.000000
      * Repulsion:
        kExp                           1.500000    1.000000
        rExp                           1.000000
      * Coulomb:
        alpha                          2.000000
        third order                    shell-resolved
        anisotropic                    true
        a3                             3.000000
        a5                             4.000000
        cn-shift                       1.200000
        cn-exp                         4.000000
        max-rad                        5.000000

q/qsh data taken from xtbrestart
CAMM data taken from xtbrestart

          ...................................................
          :                      SETUP                      :
          :.................................................:
          :  # basis functions                  21          :
          :  # atomic orbitals                  20          :
          :  # shells                           10          :
          :  # electrons                        22          :
          :  max. iterations                   250          :
          :  Hamiltonian                  GFN2-xTB          :
          :  restarted?                       true          :
          :  GBSA solvation                  false          :
          :  PC potential                    false          :
          :  electronic temp.          300.0000000     K    :
          :  accuracy                    0.2000000          :
          :  -> integral cutoff          0.3198970E+02      :
          :  -> integral neglect         0.2000000E-08      :
          :  -> SCF convergence          0.2000000E-06 Eh   :
          :  -> wf. convergence          0.2000000E-04 e    :
          :  Broyden damping             0.4000000          :
          :  net charge                         -1          :
          :  unpaired electrons                  0          :
          ...................................................

 iter      E             dE          RMSdq      gap      omega  full diag
   1    -13.2031393 -0.132031E+02  0.812E-01    4.26       0.0  T
   2    -13.2055450 -0.240571E-02  0.268E-01    3.88       1.0  T
   3    -13.2055951 -0.500761E-04  0.142E-01    3.87       1.0  T
   4    -13.2055989 -0.384458E-05  0.925E-02    3.84       1.0  T
   5    -13.2056098 -0.109176E-04  0.362E-02    3.85       1.1  T
   6    -13.2056118 -0.195903E-05  0.223E-02    3.84       1.8  T
   7    -13.2056141 -0.231386E-05  0.453E-03    3.85       9.0  T
   8    -13.2056141 -0.136595E-07  0.200E-04    3.85     203.8  T
   9    -13.2056141  0.247139E-09  0.264E-04    3.85     154.9  T
  10    -13.2056141 -0.261085E-09  0.149E-05    3.85    2744.9  T
  11    -13.2056141 -0.637712E-12  0.447E-07    3.85   91419.1  T

   *** convergence criteria satisfied after 11 iterations ***

         #    Occupation            Energy/Eh            Energy/eV
      -------------------------------------------------------------
         1        2.0000           -0.8615620             -23.4443
       ...           ...                  ...                  ...
         5        2.0000           -0.3270400              -8.8992
         6        2.0000           -0.2776425              -7.5550
         7        2.0000           -0.2330398              -6.3413
         8        2.0000           -0.2330398              -6.3413
         9        2.0000           -0.1844437              -5.0190
        10        2.0000           -0.1811995              -4.9307
        11        2.0000           -0.1811995              -4.9307 (HOMO)
        12                         -0.0397870              -1.0827 (LUMO)
        13                          0.2317843               6.3072
        14                          0.2393211               6.5123
        15                          0.2393212               6.5123
        16                          0.2406175               6.5475
       ...                                ...                  ...
        20                          0.4308117              11.7230
      -------------------------------------------------------------
                  HL-Gap            0.1414125 Eh            3.8480 eV
             Fermi-level           -0.1104932 Eh           -3.0067 eV

 SCC (total)                   0 d,  0 h,  0 min,  0.077 sec
 SCC setup                      ...        0 min,  0.000 sec (  0.211%)
 Dispersion                     ...        0 min,  0.000 sec (  0.071%)
 classical contributions        ...        0 min,  0.000 sec (  0.032%)
 integral evaluation            ...        0 min,  0.075 sec ( 97.246%)
 iterations                     ...        0 min,  0.001 sec (  1.776%)
 molecular gradient             ...        0 min,  0.000 sec (  0.489%)
 printout                       ...        0 min,  0.000 sec (  0.148%)

         :::::::::::::::::::::::::::::::::::::::::::::::::::::
         ::                     SUMMARY                     ::
         :::::::::::::::::::::::::::::::::::::::::::::::::::::
         :: total energy             -13.150093233162 Eh    ::
         :: gradient norm              0.031017970998 Eh/a0 ::
         :: HOMO-LUMO gap              3.848030595604 eV    ::
         ::.................................................::
         :: SCC energy               -13.205614183607 Eh    ::
         :: -> isotropic ES            0.181615767210 Eh    ::
         :: -> anisotropic ES         -0.000101176658 Eh    ::
         :: -> anisotropic XC          0.001720122580 Eh    ::
         :: -> dispersion             -0.002077846807 Eh    ::
         :: repulsion energy           0.055520950445 Eh    ::
         :: add. restraining           0.000000000000 Eh    ::
         :: total charge              -1.000000000000 e     ::
         :::::::::::::::::::::::::::::::::::::::::::::::::::::


Property printout bound to 'properties.out'

           -------------------------------------------------
          | TOTAL ENERGY              -13.150093233162 Eh   |
          | GRADIENT NORM               0.031017970998 Eh/α |
          | HOMO-LUMO GAP               3.848030595604 eV   |
           -------------------------------------------------

------------------------------------------------------------------------
 * finished run on 2026/03/12 at 12:46:08.281     
------------------------------------------------------------------------
 total:
 * wall-time:     0 d,  0 h,  0 min,  0.091 sec
 *  cpu-time:     0 d,  0 h,  0 min,  0.435 sec
 * ratio c/w:     4.785 speedup
 SCF:
 * wall-time:     0 d,  0 h,  0 min,  0.077 sec
 *  cpu-time:     0 d,  0 h,  0 min,  0.376 sec
 * ratio c/w:     4.862 speedup


-------------------------   --------------------
FINAL SINGLE POINT ENERGY       -13.150093233160
-------------------------   --------------------


-------------
DIPOLE MOMENT
-------------
                                X             Y             Z
Total Dipole Moment    :      0.00000       0.00000      -0.04800
                        -----------------------------------------
Magnitude (a.u.)       :      0.04800
Magnitude (Debye)      :      0.12201


------------------
CARTESIAN GRADIENT
------------------

   1   C   :    0.000000380   -0.000002035    0.011965265
   2   H   :   -0.000000016    0.006158195    0.006999832
   3   H   :    0.005334313   -0.003076644    0.007000460
   4   H   :   -0.005334619   -0.003076802    0.007000472
   5   Cl  :   -0.000000026   -0.000001004   -0.019202192
   6   F   :   -0.000000032   -0.000001711   -0.013763837

Difference to translation invariance:
           :    0.0000000000   -0.0000000000   -0.0000000000

Difference to rotation invariance:
           :   -0.0000000017    0.0000000001    0.0000000000

Norm of the Cartesian gradient     ...    0.0310179710
RMS gradient                       ...    0.0073110059
MAX gradient                       ...    0.0192021924
------------------------------------------------------------------------------
                         ORCA GEOMETRY RELAXATION STEP
------------------------------------------------------------------------------

Reading the OPT-File                    .... done
Getting information on internals        .... done
Copying old internal coords+grads       .... done
Making the new internal coordinates     .... (2022 redundants) done
Validating the new internal coordinates .... (2022 redundants) done
Calculating the B-matrix                .... done
Calculating the G,G- and P matrices     .... done
Transforming gradient to internals      .... done
Projecting the internal gradient        .... done
Number of atoms                         ....   6
Number of internal coordinates          ....  14
Current Energy                          ....   -13.150093233 Eh
Current gradient norm                   ....     0.031017971 Eh/bohr
Maximum allowed component of the step   ....  0.300
Current trust radius                    ....  0.300
Updating the Hessian (Bofill)           .... done
Diagonalizing the Hessian               .... done
Dimension of the hessian                ....  14
Lowest eigenvalues of the Hessian:
 -0.012850415  0.074205070  0.087040146  0.087054969  0.100631151
Hessian has   1 negative eigenvalues
Taking P-RFO step
Searching for lambda that maximizes along the lowest mode
TS mode is mode number   0 with eigenvalue  -0.01285041 and components:
   1.    0.00567541
   2.    0.00566076
   3.    0.00565995
   4.   -0.50017348
[...]
                  HL-Gap            0.0688814 Eh            1.8744 eV
             Fermi-level           -0.0504663 Eh           -1.3733 eV

 SCC (total)                   0 d,  0 h,  0 min,  0.063 sec
 SCC setup                      ...        0 min,  0.000 sec (  0.271%)
 Dispersion                     ...        0 min,  0.000 sec (  0.087%)
 classical contributions        ...        0 min,  0.000 sec (  0.045%)
 integral evaluation            ...        0 min,  0.061 sec ( 97.420%)
 iterations                     ...        0 min,  0.001 sec (  1.326%)
 molecular gradient             ...        0 min,  0.000 sec (  0.640%)
 printout                       ...        0 min,  0.000 sec (  0.183%)

         :::::::::::::::::::::::::::::::::::::::::::::::::::::
         ::                     SUMMARY                     ::
         :::::::::::::::::::::::::::::::::::::::::::::::::::::
         :: total energy             -13.143097497945 Eh    ::
         :: gradient norm              0.000000119323 Eh/a0 ::
         :: HOMO-LUMO gap              1.874359418162 eV    ::
         ::.................................................::
         :: SCC energy               -13.198866333858 Eh    ::
         :: -> isotropic ES            0.246152450853 Eh    ::
         :: -> anisotropic ES         -0.002388356110 Eh    ::
         :: -> anisotropic XC         -0.000668878442 Eh    ::
         :: -> dispersion             -0.002044329938 Eh    ::
         :: repulsion energy           0.055768835913 Eh    ::
         :: add. restraining           0.000000000000 Eh    ::
         :: total charge              -1.000000000000 e     ::
         :::::::::::::::::::::::::::::::::::::::::::::::::::::

           ------------------------------------------------- 
          |                Numerical Hessian                |
           ------------------------------------------------- 
step length          :   0.00500
SCC accuracy         :   0.30000
Hessian scale factor :   1.00000
frozen atoms in %    :   0.00000    0
RMS gradient         :   0.00000
estimated CPU  time      0.00 min
estimated wall time      0.00 min

writing file <hessian>.

 projected vibrational frequencies (cm⁻¹)
eigval :       -0.00    -0.00    -0.00    -0.00    -0.00     0.00
eigval :     -169.57   151.48   208.30   553.62   811.55   979.89
eigval :     1267.44  1424.07  1435.60  2958.61  3057.84  3066.45

Property printout bound to 'properties.out'
Molecule has the following symmetry elements: (sigma) 
It seems to be the Cs point group
imag cut-off (cm-1) :    5.00
 found            1  significant imaginary frequency
 writing imag mode distorted coords to xtbhess.xyz
 for further optimization.

           -------------------------------------------------
          | TOTAL ENERGY              -13.143097497945 Eh   |
          | TOTAL ENTHALPY            -13.101547074798 Eh   |
          | TOTAL FREE ENERGY         -13.134051811179 Eh   |
          | GRADIENT NORM               0.000000203381 Eh/α |
          | HOMO-LUMO GAP               1.874360690076 eV   |
           -------------------------------------------------

------------------------------------------------------------------------
 * finished run on 2026/03/12 at 12:46:12.489     
------------------------------------------------------------------------
 total:
 * wall-time:     0 d,  0 h,  0 min,  0.089 sec
 *  cpu-time:     0 d,  0 h,  0 min,  0.391 sec
 * ratio c/w:     4.396 speedup
 SCF:
 * wall-time:     0 d,  0 h,  0 min,  0.063 sec
 *  cpu-time:     0 d,  0 h,  0 min,  0.237 sec
 * ratio c/w:     3.748 speedup
 analytical hessian:
 * wall-time:     0 d,  0 h,  0 min,  0.011 sec
 *  cpu-time:     0 d,  0 h,  0 min,  0.087 sec
 * ratio c/w:     7.875 speedup


-------------------------   --------------------
FINAL SINGLE POINT ENERGY       -13.143097497940
-------------------------   --------------------


-------------
DIPOLE MOMENT
-------------
                                X             Y             Z
Total Dipole Moment    :     -0.90400       0.52300       2.19000
                        -----------------------------------------
Magnitude (a.u.)       :      2.42628
Magnitude (Debye)      :      6.16712


-----------------------
VIBRATIONAL FREQUENCIES
-----------------------

Scaling factor for frequencies =  1.000000000  (already applied!)

     0:       0.00 cm**-1
     1:       0.00 cm**-1
     2:       0.00 cm**-1
     3:       0.00 cm**-1
     4:       0.00 cm**-1
     5:       0.00 cm**-1
     6:    -169.57 cm**-1  ***imaginary mode***
     7:     151.48 cm**-1
     8:     208.30 cm**-1
     9:     553.61 cm**-1
    10:     811.53 cm**-1
    11:     979.87 cm**-1
    12:    1267.40 cm**-1
    13:    1424.03 cm**-1
    14:    1435.56 cm**-1
    15:    2958.52 cm**-1
    16:    3057.76 cm**-1
    17:    3066.36 cm**-1


------------
NORMAL MODES
------------

These modes are the Cartesian displacements weighted by the diagonal matrix
M(i,i)=1/sqrt(m[i]) where m[i] is the mass of the displaced atom
Thus, these vectors are normalized but *not* orthogonal

                  0          1          2          3          4          5    
      0       0.000000   0.000000   0.000000   0.000000   0.000000   0.000000
      1       0.000000   0.000000   0.000000   0.000000   0.000000   0.000000
      2       0.000000   0.000000   0.000000   0.000000   0.000000   0.000000
      3       0.000000   0.000000   0.000000   0.000000   0.000000   0.000000
      4       0.000000   0.000000   0.000000   0.000000   0.000000   0.000000
      5       0.000000   0.000000   0.000000   0.000000   0.000000   0.000000
      6       0.000000   0.000000   0.000000   0.000000   0.000000   0.000000
      7       0.000000   0.000000   0.000000   0.000000   0.000000   0.000000
      8       0.000000   0.000000   0.000000   0.000000   0.000000   0.000000
      9       0.000000   0.000000   0.000000   0.000000   0.000000   0.000000
     10       0.000000   0.000000   0.000000   0.000000   0.000000   0.000000
     11       0.000000   0.000000   0.000000   0.000000   0.000000   0.000000
     12       0.000000   0.000000   0.000000   0.000000   0.000000   0.000000
     13       0.000000   0.000000   0.000000   0.000000   0.000000   0.000000
     14       0.000000   0.000000   0.000000   0.000000   0.000000   0.000000
     15       0.000000   0.000000   0.000000   0.000000   0.000000   0.000000
     16       0.000000   0.000000   0.000000   0.000000   0.000000   0.000000
     17       0.000000   0.000000   0.000000   0.000000   0.000000   0.000000
                  6          7          8          9         10         11    
      0      -0.282761  -0.094908   0.058390   0.174969  -0.112844  -0.055962
      1       0.163523  -0.163900  -0.032622  -0.101763   0.065196  -0.096812
      2       0.113432  -0.000196   0.244552   0.624315   0.021541  -0.000038
      3      -0.349727   0.390589   0.052833   0.146719   0.077356   0.240173
      4       0.197105  -0.176904  -0.033133  -0.124483  -0.000505   0.055604
      5       0.273007  -0.209536   0.243466   0.371245  -0.298942   0.630887
      6      -0.481069  -0.354411   0.030359   0.075501   0.315168   0.132142
      7       0.278319  -0.612848  -0.013433  -0.045281  -0.181936   0.228588
      8      -0.272682  -0.000197   0.182286   0.390419   0.811561   0.000033
      9      -0.344993  -0.348576   0.058557   0.178936   0.038960  -0.071873
     10       0.204356   0.250344  -0.031658  -0.062911  -0.066774   0.235676
     11       0.272778   0.209363   0.241418   0.372448  -0.298812  -0.630736
     12       0.065387   0.021405  -0.042979  -0.061149   0.021606   0.010642
     13      -0.037813   0.036964   0.024636   0.035454  -0.012486   0.018409
     14      -0.034215   0.000270   0.333544  -0.231515  -0.008152   0.000008
     15       0.119133   0.036634   0.035768  -0.017790   0.008128  -0.000420
     16      -0.068886   0.063262  -0.021199   0.010521  -0.004696  -0.000731
     17      -0.022355  -0.000360  -0.812451  -0.022841  -0.009751   0.000000
                 12         13         14         15         16         17    
      0       0.002367  -0.034095  -0.066230  -0.053512  -0.053020   0.046162
      1      -0.001393  -0.058843   0.038337   0.030919   0.031651   0.078663
      2      -0.096175  -0.000020   0.002069   0.039986  -0.014771   0.000148
      3      -0.002083   0.296147   0.682229  -0.025932   0.010289   0.058733
      4       0.113519  -0.064565   0.064224   0.062887  -0.700663  -0.682724
      5       0.615239  -0.337139   0.071734   0.003025   0.122646   0.123952
      6       0.223219   0.382528  -0.114942   0.739190   0.028331   0.022272
      7      -0.128828   0.662382   0.065578  -0.427260  -0.015846   0.039069
      8       0.375186  -0.000468  -0.163026  -0.506329  -0.041216   0.000363
      9      -0.099443  -0.203297   0.285451  -0.067328   0.600208  -0.632975
     10      -0.054693   0.223349  -0.623520  -0.008902   0.335357  -0.296886
     11       0.615697   0.336951   0.071267   0.003029   0.120105  -0.126226
     12      -0.005039  -0.001447  -0.001561   0.000227  -0.000270   0.000113
     13       0.002909  -0.002513   0.000905  -0.000130   0.000157   0.000191
     14      -0.011774   0.000022  -0.000558   0.000573  -0.000741   0.000004
     15       0.001451  -0.000967  -0.000458  -0.000864   0.000130  -0.000109
     16      -0.000833  -0.001678   0.000268   0.000501  -0.000080  -0.000186
     17      -0.002441   0.000006   0.000796   0.000195   0.000029  -0.000000


The first frequency considered to be a vibration is 7
The total number of vibrations considered is 11


--------------------------
THERMOCHEMISTRY AT 298.15K
--------------------------

Temperature         ...   298.15 K
Pressure            ...     1.00 atm
Total Mass          ...    69.49 AMU
Quasi RRHO          ...     True
Cut-Off Frequency   ...     1.00 cm^-1

Throughout the following assumptions are being made:
  (1) The electronic state is orbitally nondegenerate
  (2) There are no thermally accessible electronically excited states
  (3) Hindered rotations indicated by low frequency modes are not
      treated as such but are treated as vibrations and this may
      cause some error
  (4) All equations used are the standard statistical mechanics
      equations for an ideal gas
  (5) All vibrations are strictly harmonic

freq.     151.48  E(vib)   ...       0.40 
freq.     208.30  E(vib)   ...       0.34 
freq.     553.61  E(vib)   ...       0.12 
freq.     811.53  E(vib)   ...       0.05 
freq.     979.87  E(vib)   ...       0.02 
freq.    1267.40  E(vib)   ...       0.01 
freq.    1424.03  E(vib)   ...       0.00 
freq.    1435.56  E(vib)   ...       0.00 
freq.    2958.52  E(vib)   ...       0.00 
freq.    3057.76  E(vib)   ...       0.00 
freq.    3066.36  E(vib)   ...       0.00 

------------
INNER ENERGY
------------

The inner energy is: U= E(el) + E(ZPE) + E(vib) + E(rot) + E(trans)
    E(el)   - is the total energy from the electronic structure calculation
              = E(kin-el) + E(nuc-el) + E(el-el) + E(nuc-nuc)
    E(ZPE)  - the the zero temperature vibrational energy from the frequency calculation
    E(vib)  - the the finite temperature correction to E(ZPE) due to population
              of excited vibrational states
    E(rot)  - is the rotational thermal energy
    E(trans)- is the translational thermal energy

Summary of contributions to the inner energy U:
Electronic energy                ...    -13.14309750 Eh
Zero point energy                ...      0.03625571 Eh      22.75 kcal/mol
Thermal vibrational correction   ...      0.00151695 Eh       0.95 kcal/mol
Thermal rotational correction    ...      0.00141627 Eh       0.89 kcal/mol
Thermal translational correction ...      0.00141627 Eh       0.89 kcal/mol
-----------------------------------------------------------------------
Total thermal energy                    -13.10249229 Eh


Summary of corrections to the electronic energy:
(perhaps to be used in another calculation)
Total thermal correction                  0.00434949 Eh       2.73 kcal/mol
Non-thermal (ZPE) correction              0.03625571 Eh      22.75 kcal/mol
-----------------------------------------------------------------------
Total correction                          0.04060520 Eh      25.48 kcal/mol


--------
ENTHALPY
--------

The enthalpy is H = U + kB*T
                kB is Boltzmann's constant
Total thermal energy              ...    -13.10249229 Eh 
Thermal Enthalpy correction       ...      0.00094421 Eh       0.59 kcal/mol
-----------------------------------------------------------------------
Total Enthalpy                    ...    -13.10154808 Eh


WARNING (ORCA/SYM): The number of Z matrix atoms does not agree with
the number of centers in the basis set. The point group will therefore
be determined without considering basis set information.


Note: Rotational entropy computed according to Herzberg 
Infrared and Raman Spectra, Chapter V,1, Van Nostrand Reinhold, 1945 
Point Group:  Cs, Symmetry Number:   1  
Rotational constants in cm-1:     2.778116     0.074069     0.073146 

Vibrational entropy computed according to the QRRHO of S. Grimme
Chem.Eur.J. 2012 18 9955 using a reference frequency of 100.0 cm-1


-------
ENTROPY
-------

The entropy contributions are T*S = T*(S(el)+S(vib)+S(rot)+S(trans))
     S(el)   - electronic entropy
     S(vib)  - vibrational entropy
     S(rot)  - rotational entropy
     S(trans)- translational entropy
The entropies will be listed as multiplied by the temperature to get
units of energy

Electronic entropy                ...      0.00000000 Eh      0.00 kcal/mol
Vibrational entropy               ...      0.00265220 Eh      1.66 kcal/mol
Rotational entropy                ...      0.01149183 Eh      7.21 kcal/mol
Translational entropy             ...      0.01835566 Eh     11.52 kcal/mol
-----------------------------------------------------------------------
Final entropy term                ...      0.03249968 Eh     20.39 kcal/mol

In case the symmetry of your molecule has not been determined correctly
or in case you have a reason to use a different symmetry number we print 
out the resulting rotational entropy values for sn=1,12:

 non-linear molecules -----------------------------------
|  sn= 1 | S(rot)=       0.01149183 Eh      7.21 kcal/mol|
|  sn= 2 | S(rot)=       0.01083738 Eh      6.80 kcal/mol|
|  sn= 3 | S(rot)=       0.01045454 Eh      6.56 kcal/mol|
|  sn= 4 | S(rot)=       0.01018292 Eh      6.39 kcal/mol|
|  sn= 5 | S(rot)=       0.00997223 Eh      6.26 kcal/mol|
|  sn= 6 | S(rot)=       0.00980009 Eh      6.15 kcal/mol|
|  sn= 7 | S(rot)=       0.00965454 Eh      6.06 kcal/mol|
|  sn= 8 | S(rot)=       0.00952846 Eh      5.98 kcal/mol|
|  sn= 9 | S(rot)=       0.00941725 Eh      5.91 kcal/mol|
|  sn=10 | S(rot)=       0.00931778 Eh      5.85 kcal/mol|
|  sn=11 | S(rot)=       0.00922779 Eh      5.79 kcal/mol|
|  sn=12 | S(rot)=       0.00914563 Eh      5.74 kcal/mol|
 linear molecules ---------------------------------------
|  Dinfh | S(rot)=       0.00779512 Eh      4.89 kcal/mol|
|  Cinfv | S(rot)=       0.00844957 Eh      5.30 kcal/mol|
 --------------------------------------------------------


-------------------
GIBBS FREE ENERGY
-------------------

The Gibbs free energy is G = H - T*S

Total enthalpy                    ...    -13.10154808 Eh 
Total entropy correction          ...     -0.03249968 Eh    -20.39 kcal/mol
-----------------------------------------------------------------------
Final Gibbs free energy         ...    -13.13404777 Eh

For completeness - the Gibbs free energy minus the electronic energy
G-E(el)                           ...      0.00904973 Eh      5.68 kcal/mol


--------------------------------
SUGGESTED CITATIONS FOR THIS RUN
--------------------------------

Below you find a list of papers that are relevant to this ORCA run
We neither can nor want to force you to cite these papers, but we appreciate if you do
You receive ORCA, which is the product of decades of hard work by many enthusiastic individuals, for free
The only thing we kindly ask in return is that you cite our papers,
We deeply appreciate it, if you show your appreciation for ORCA by not just citing the generic ORCA reference.

Please note that relegating all ORCA citations to the supporting information does *not* help us.
SI sections are not indexed - citations you put there will not count into any citation statistics
But we need these citations in order to attract the funding resources that allow us to do what we are doing

Therefore, if you are a happy ORCA user, please consider citing a few of the papers listed below in the main body of your paper

In addition to the list printed below, the program has created the file sn2_cl_f.bibtex that contains the list in bibtex format
You can import this file easily into all common literature databanks and citation aid programs


List of essential papers. We consider these as the minimum necessary citations

  1. Bannwarth, C.; Ehlert, S.; Grimme, S.
     GFN2-xTB—An Accurate and Broadly Parametrized Self-Consistent Tight-Binding Quantum Chemical Method with Multipole Electrostatics and Density-Dependent Dispersion Contributions
     J. Chem. Theory Comput. 2019 15(3), 1652-1671
     doi.org/10.1021/acs.jctc.8b01176
  2. Neese, F.
     Software update: the ORCA program system, version 6.0
     WIRES Comput. Molec. Sci. 2025 15(1), e70019
     doi.org/10.1002/wcms.7019

List of papers to cite with high priority. The work reported in these papers was absolutely
necessary for this run to complete.
Our perspective: the developers of density functionals and basis sets usually get cited in chemistry papers
Good! But without the algorithms to do something with them, the functionals or basis sets would not do anything.
Hence, in our opinion, the algorithm design and method developments papers are equally worthy of getting cited

  1. Bykov, D.; Petrenko, T.; Izsak, R.; Kossmann, S.; Becker, U.; Valeev, E.; Neese, F.
     Efficient implementation of the analytic second derivatives of Hartree-Fock and hybrid DFT energies: a detailed analysis of different approximations
     Molec. Phys. 2015 113 , 1961-1977
     doi.org/10.1080/00268976.2015.1025114
  2. Bannwarth, C.; Caldeweyher, E.; Ehlert, S.; Hansen, A.; Pracht, P.; Seibert, J.; Spicher, S.; Grimme, S.
     Extended tight-binding quantum chemistry methods
     WIRES Comput. Molec. Sci. 2020 11(2), e1493
     doi.org/10.1002/wcms.1493

List of suggested additional citations. These are papers that are important in the 'surrounding' of 
of this run, or papers that preceded the highly important papers. If you like your results we are grateful for a citation.

  1. Neese, F.
     The ORCA program system
     WIRES Comput. Molec. Sci. 2012 2(1), 73-78
     doi.org/10.1002/wcms.81
  2. Neese, F.
     Software update: the ORCA program system, version 4.0
     WIRES Comput. Molec. Sci. 2018 8(1), 1-6
     doi.org/10.1002/wcms.1327
  3. Neese, F.; Wennmohs, F.; Becker, U.; Riplinger, C.
     The ORCA quantum chemistry program package
     J. Chem. Phys. 2020 152(22), 224108
     doi.org/10.1063/5.0004608
  4. Neese, F.
     Software update: The ORCA program system—Version 5.0
     WIRES Comput. Molec. Sci. 2022 12(1), e1606
     doi.org/10.1002/wcms.1606

List of optional additional citations

  1. Neese, F.
     Approximate second-order SCF convergence for spin unrestricted wavefunctions
     Chem. Phys. Lett. 2000 325(1-3), 93-98
     doi.org/10.1016/s0009-2614(00)00662-x

Timings for individual modules:

Sum of individual times          ...        4.241 sec (=   0.071 min)
Geometry relaxation              ...        0.064 sec (=   0.001 min)   1.5 %
XTB module                       ...        4.177 sec (=   0.070 min)  98.5 %
                             ****ORCA TERMINATED NORMALLY****
TOTAL RUN TIME: 0 days 0 hours 0 minutes 5 seconds 184 msec
