
                                 *****************
                                 * O   R   C   A *
                                 *****************

                                            #,                                       
                                            ###                                      
                                            ####                                     
                                            #####                                    
                                            ######                                   
                                           ########,                                 
                                     ,,################,,,,,                         
                               ,,#################################,,                 
                          ,,##########################################,,             
                       ,#########################################, ''#####,          
                    ,#############################################,,   '####,        
                  ,##################################################,,,,####,       
                ,###########''''           ''''###############################       
              ,#####''   ,,,,##########,,,,          '''####'''          '####       
            ,##' ,,,,###########################,,,                        '##       
           ' ,,###''''                  '''############,,,                           
         ,,##''                                '''############,,,,        ,,,,,,###''
      ,#''                                            '''#######################'''  
     '                                                          ''''####''''         
             ,#######,   #######,   ,#######,      ##                                
            ,#'     '#,  ##    ##  ,#'     '#,    #''#        ,####,    ,#,          
            ##       ##  ##   ,#'  ##            #'  '#       #'       ,# #          
            ##       ##  #######   ##           ,######,      #####,      #          
            '#,     ,#'  ##    ##  '#,     ,#' ,#      #,     #,   #      #          
             '#######'   ##     ##  '#######'  #'      '#     '####' #    #          



                #########################################################
                #                        -***-                          #
                #          Department of theory and spectroscopy        #
                #                                                       #
                #                      Frank Neese                      #
                #                                                       #
                #     Directorship, Architecture, Infrastructure        #
                #                    SHARK, DRIVERS                     #
                #        Core code/Algorithms in most modules           #
                #                                                       #
                #        Max Planck Institute fuer Kohlenforschung      #
                #                Kaiser Wilhelm Platz 1                 #
                #                 D-45470 Muelheim/Ruhr                 #
                #                      Germany                          #
                #                                                       #
                #                  All rights reserved                  #
                #                        -***-                          #
                #########################################################


                         Program Version 6.1.0  -  RELEASE   -
                                (GIT: $679e74b$)
                          ($2025-06-10 18:02:51 +0200$)


 With contributions from (in alphabetic order):
[Max-Planck-Institut fuer Kohlenforschung]                               
  Daniel Aravena         : Magnetic Suceptibility                        
  Michael Atanasov       : Ab Initio Ligand Field Theory (pilot matlab implementation)
  Alexander A. Auer      : GIAO ZORA, VPT2 properties, NMR spectrum      
  Ute Becker             : All parallelization in ORCA, NUMFREQ, NUMCALC 
  Giovanni Bistoni       : ED, misc. LED, open-shell LED, HFLD           
  Dmytro Bykov           : pre 5.0 version of the SCF Hessian            
  Marcos Casanova-Páez   : Triplet and SCS-CIS(D). UHF-(DLPNO)-IP/EA/STEOM-CCSD. UHF-CVS-IP/STEOM-CCSD   
  Vijay G. Chilkuri      : MRCI spin determinant printing, contributions to CSF-ICE 
  Pauline Colinet        : FMM embedding                                 
  Dipayan Datta          : RHF DLPNO-CCSD density                        
  Achintya Kumar Dutta   : EOM-CC, STEOM-CC                              
  Nicolas Foglia         : Exact transition moments, OPA infrastructure, MCD improvements    
  Dmitry Ganyushin       : Spin-Orbit,Spin-Spin,Magnetic field MRCI      
  Miquel Garcia-Rates    : C-PCM and meta-GGA Hessian, CCSD/C-PCM, Gaussian charge scheme 
  Tiago L. C. Gouveia    : GS-ROHF, GS-ROCIS                             
  Yang Guo               : DLPNO-NEVPT2, F12-NEVPT2, CIM, IAO-localization        
  Andreas Hansen         : Spin unrestricted coupled pair/coupled cluster methods 
  Ingolf Harden          : AUTO-CI MPn and infrastructure                
  Benjamin Helmich-Paris : MC-RPA, TRAH-(SCF,CASSCF), AVAS, COSX integrals, SCF dyn. polar., MC-PDFT, srDFT 
  Lee Huntington         : MR-EOM, pCC                                   
  Robert Izsak           : Overlap fitted RIJCOSX, COSX-SCS-MP3, EOM     
  Riya Kayal             : Wick's Theorem for AUTO-CI, AUTO-CI UHF-CCSDT 
  Emily Kempfer          : AUTO-CI RHF CISDT and CCSDT, approximate NEVPT4
  Christian Kollmar      : KDIIS, OOCD, Brueckner-CCSD(T), CCSD density, CASPT2, CASPT2-K, improved NEVPT2 
  Axel Koslowski         : Symmetry handling                             
  Simone Kossmann        : meta-GGA functionals, TD-DFT gradient, OOMP2, (MP2 Hessian; deprecated post 5.0) 
  Lucas Lang             : DCDCAS, Hyperfine gauge corrections, ICE-SOC+SSC
  Marvin Lechner         : AUTO-CI (C++ implementation), FIC-MRCC        
  Spencer Leger          : CASSCF response                               
  Dagmar Lenk            : GEPOL surface, SMD, ORCA-2-JSON               
  Dimitrios Liakos       : Extrapolation schemes; Compound Job, Property file
  Dimitrios Manganas     : Further ROCIS development; embedding schemes. LFT, Crystal Embedding 
  Dimitrios Pantazis     : SARC Basis sets                               
  Anastasios Papadopoulos: AUTO-CI, single reference methods and gradients 
  Taras Petrenko         : pre 6.0 DFT Hessian and TD-DFT gradient,  ECA, NRVS 
  Petra Pikulova         : Analytic Raman intensities                    
  Peter Pinski           : DLPNO-MP2, DLPNO-MP2 Gradient                 
  Shashank Vittal Rao    : ES-AILFT, MagRelax                            
  Christoph Reimann      : Effective Core Potentials                     
  Marius Retegan         : Local ZFS, SOC                                
  Christoph Riplinger    : Optimizer, TS searches, QM/MM, DLPNO-CCSD(T), (RO)-DLPNO pert. Triples 
  Michael Roemelt        : Original ROCIS implementation, recursive CI coupling coefficients
  Masaaki Saitow         : Open-shell DLPNO-CCSD energy and density      
  Barbara Sandhoefer     : DKH picture change effects                    
  Yorick L. A. Schmerwitz: GMF and freeze-and-release deltaSCF, NEB S-IDPP initial path                    
  Kantharuban Sivalingam : CASSCF convergence/infrastructure, NEVPT2, NEVPT3, NEVPT4(SD), FIC-MRCI and CEPA variants
  Bernardo de Souza      : ESD, SOC TD-DFT                               
  Georgi L. Stoychev     : AutoAux, RI-MP2 NMR, DLPNO-MP2 response, X2C  
  Van Anh Tran           : RI-MP2 g-tensors                              
  Willem Van den Heuvel  : Paramagnetic NMR                              
  Zikuan Wang            : NOTCH, Electric field optimization            
  Frank Wennmohs         : Technical directorship and infrastructure     
  Hang Xu                : AUTO-CI-Response properties                   
                                                                         
[FACCTs GmbH]                                                            
  Markus Bursch, Nicolas Foglia, Miquel Garcia-Rates, Ingolf Harden, Hagen Neugebauer, Anastasios Papadopoulos, 
  Christoph Riplinger, Bernardo de Souza, Georgi L. Stoychev                                                    
                                                                 
  APM, various basis sets, CI-OPT, improved COSX, DLPNO-Multilevel,           
  DOCKER, DRACO, updates on ESD, Fragmentator, GOAT, IRC, LR-CPCM, L-BFGS, MBIS, meta-GGA TD-DFT gradient, ML-optimized integration grids, 
  MM, NACMEs, nearIR, NEB, NEB-TS, NL-DFT gradient (VV10), 2- and 3-layer-ONIOM, interface openCOSMO-RS, QMMM,   
  Crystal-QMMM, RESP, rigid body optimization, SF, symmetry and pop. for TD-DFT, various functionals, SOLVATOR                                   
                                                                         
[Other institutions]                                                     
  V. Asgeirsson          : NEB                                           
  Christoph Bannwarth    : sTDA-DFT, sTD-DFT, PBEh-3c, B97-3c, D3        
  Giovanni Bistoni       : ETS/NOCV, ADLD/ADEX, COVALED                  
  Martin Brehm           : Molecular dynamics                            
  Ronald Cardenas        : ETS/NOCV                                      
  Martina Colucci        : COVALED                                       
  Sebastian Ehlert       : rSCAN, r2SCAN, r2SCAN-3c, D4, dhf basis sets  
  Marvin Friede          : D4 for Fr, Ra, Ac-Lr                          
  Lars Goerigk           : TD-DFT with DH, B97 family of functionals     
  Stefan Grimme          : VdW corrections, initial TS optimization, DFT functionals, gCP, sTDA/sTD-DF 
  Waldemar Hujo          : DFT-NL                                        
  H. Jonsson             : NEB                                           
  Holger Kruse           : gCP                                           
  Marcel Mueller         : wB97X-3c, vDZP basis set                      
  Hagen Neugebauer       : wr2SCAN, Native XTB                           
  Gianluca Regni         : ADLD/ADEX                                     
  Tobias Risthaus        : pre 6.0 range-separated hybrid DFT and stability analysis
  Lukas Wittmann         : regularized MP2, r2SCAN double-hybrids, wr2SCAN        
                                                                         
We gratefully acknowledge several colleagues who have allowed us to      
interface, adapt or use parts of their codes:                            
  Ed Valeev, F. Pavosevic, A. Kumar             : LibInt (2-el integral package), F12 methods 
  Garnet Chan, S. Sharma, J. Yang, R. Olivares  : DMRG                   
  Ulf Ekstrom                                   : XCFun DFT Library      
  Mihaly Kallay                                 : mrcc  (arbitrary order and MRCC methods)
  Frank Weinhold                                : gennbo (NPA and NBO analysis)           
  Simon Mueller                                 : openCOSMO-RS                            
  Christopher J. Cramer and Donald G. Truhlar   : smd solvation model                     
  S Lehtola, MJT Oliveira, MAL Marques          : LibXC Library                           
  Liviu Ungur et al                             : ANISO software                          


 Your calculation uses the libint2 library for the computation of 2-el integrals
 For citations please refer to: http://libint.valeyev.net

 Your ORCA version has been built with support for libXC version: 7.0.0
 For citations please refer to: https://libxc.gitlab.io

 This ORCA versions uses:
   CBLAS   interface :  Fast vector & matrix operations
   LAPACKE interface :  Fast linear algebra routines
   SCALAPACK package :  Parallel linear algebra routines
   Shared memory     :  Shared parallel matrices
   BLAS/LAPACK       :  OpenBLAS 0.3.29  USE64BITINT DYNAMIC_ARCH NO_AFFINITY SkylakeX SINGLE_THREADED
        Core in use  :  SkylakeX
   Copyright (c) 2011-2014, The OpenBLAS Project


  ***********************************
  * Starting time: Mon Mar 16 14:16:33 2026
  * Host name:     midway3-login4.rcc.local
  * Process ID:    78375
  * Working dir.:  /home/rzhu16/evans-polanyi-principle-validation/runs/sn2_cl_br/TS_search
  ***********************************

Your calculation utilizes the semiempirical GFN2-xTB method
Please cite in your paper:
Bannwarth, C.; Ehlert S.; Grimme, S. J. Chem. Theory Comput. 2019, 15, 1652.
   

================================================================================

================================================================================
                                        WARNINGS
                       Please study these warnings very carefully!
================================================================================


WARNING: Analytical Hessian for XTB is limited in the analysis of the data.
       : If you want to obtain extensive IR and deltaG analysis, please use ! XTB NumFreq. 


WARNING: Geometry Optimization
  ===> : Switching off AutoStart
         For restart on a previous wavefunction, please use MOREAD

WARNING: Found dipole moment calculation with XTB calculation
  ===> : Switching off dipole moment calculation


WARNING: Found frequency calculation in combination with XTB calculation
  ===> : Need to redirect dipole moment calculation to properties.out


================================================================================
                                       INPUT FILE
================================================================================
NAME = sn2_cl_br.inp
|  1> ! XTB2 OptTS Freq PAL8
|  2> 
|  3> %geom
|  4>   Calc_Hess true
|  5>   Recalc_Hess 3
|  6>   MaxIter 200
|  7>   Trust -0.1
|  8> end
|  9> 
| 10> * xyz -1 1
| 11> C    0.000000   0.000000  -0.042320
| 12> H    0.000000   1.085000   0.000000
| 13> H    0.939638  -0.542500   0.000000
| 14> H   -0.939638  -0.542500   0.000000
| 15> Cl   0.000000   0.000000   2.449680
| 16> Br   0.000000   0.000000  -2.428520
| 17> *
| 18> 
| 19>                          ****END OF INPUT****
================================================================================

                       *****************************
                       * Geometry Optimization Run *
                       *****************************

Geometry optimization settings:
Update method            Update   .... Bofill
Choice of coordinates    CoordSys .... (2022) Redundant Internals
Initial Hessian          InHess   .... Almloef's Model
Max. no of cycles        MaxIter  .... 200

Convergence Tolerances:
Energy Change            TolE     ....  5.0000e-06 Eh
Max. Gradient            TolMAXG  ....  3.0000e-04 Eh/bohr
RMS Gradient             TolRMSG  ....  1.0000e-04 Eh/bohr
Max. Displacement        TolMAXD  ....  4.0000e-03 bohr
RMS Displacement         TolRMSD  ....  2.0000e-03 bohr
Strict Convergence                .... False

------------------------------------------------------------------------------
                        ORCA OPTIMIZATION COORDINATE SETUP
------------------------------------------------------------------------------

The optimization will be done in redundant internal coordinates (2022)
Making redundant internal coordinates   ...  (2022 redundants) done
Following TS mode number                ...     0
Evaluating the initial hessian          ...  (Is done on the fly) done
Evaluating the coordinates              ...  done
Calculating the B-matrix                .... done
Calculating the G-matrix                .... done
The number of degrees of freedom        ....   17

    -----------------------------------------------------------------
                    Redundant Internal Coordinates


    -----------------------------------------------------------------
         Definition                    Initial Value    d2E/dq (diagonal element)
    -----------------------------------------------------------------
      1. B(H   1,C   0)                  1.0858         0.000000   
      2. B(H   2,C   0)                  1.0858         0.000000   
      3. B(H   3,C   0)                  1.0858         0.000000   
      4. B(Cl  4,H   1)                  2.6792         0.000000   
      5. B(Cl  4,C   0)                  2.4920         0.000000   
      6. B(Cl  4,H   2)                  2.6792         0.000000   
      7. B(Cl  4,H   3)                  2.6792         0.000000   
      8. B(Br  5,C   0)                  2.3862         0.000000   
      9. A(H   1,C   0,H   3)          119.8494         0.000000   
     10. A(H   2,C   0,H   3)          119.8494         0.000000   
     11. A(H   1,C   0,Br  5)           92.2337         0.000000   
     12. A(H   2,C   0,Br  5)           92.2337         0.000000   
     13. A(H   3,C   0,Br  5)           92.2337         0.000000   
     14. A(H   1,C   0,Cl  4)           87.7663         0.000000   
     15. A(H   2,C   0,Cl  4)           87.7663         0.000000   
     16. A(H   3,C   0,Cl  4)           87.7663         0.000000   
     17. A(H   1,C   0,H   2)          119.8494         0.000000   
    -----------------------------------------------------------------

Number of atoms                         .... 6
Number of degrees of freedom            .... 17


         *************************************************************
         *                GEOMETRY OPTIMIZATION CYCLE   1            *
         *************************************************************
---------------------------------
CARTESIAN COORDINATES (ANGSTROEM)
---------------------------------
  C     0.000000    0.000000   -0.042320
  H     0.000000    1.085000    0.000000
  H     0.939638   -0.542500    0.000000
  H    -0.939638   -0.542500    0.000000
  Cl    0.000000    0.000000    2.449680
  Br    0.000000    0.000000   -2.428520

----------------------------
CARTESIAN COORDINATES (A.U.)
----------------------------
  NO LB    ZA    FRAG    MASS        X           Y           Z
   0 C   6.0000    0    12.011    0.000000    0.000000   -0.079973
   1 H   1.0000    0     1.008    0.000000    2.050353    0.000000
   2 H   1.0000    0     1.008    1.775658   -1.025176    0.000000
   3 H   1.0000    0     1.008   -1.775658   -1.025176    0.000000
   4 Cl 17.0000    0    35.453    0.000000    0.000000    4.629224
   5 Br 35.0000    0    79.900    0.000000    0.000000   -4.589238

      -----------------------------------------------------------      
     |                   =====================                   |     
     |                           x T B                           |     
     |                   =====================                   |     
     |                         S. Grimme                         |     
     |          Mulliken Center for Theoretical Chemistry        |     
     |                    University of Bonn                     |     
      -----------------------------------------------------------      

   * xtb version 6.7.1 (edcfbbe) compiled by 'albert@albert-system' on 2024-07-22

   xtb is free software: you can redistribute it and/or modify it under
   the terms of the GNU Lesser General Public License as published by
   the Free Software Foundation, either version 3 of the License, or
   (at your option) any later version.
   
   xtb is distributed in the hope that it will be useful,
   but WITHOUT ANY WARRANTY; without even the implied warranty of
   MERCHANTABILITY or FITNESS FOR A PARTICULAR PURPOSE.  See the
   GNU Lesser General Public License for more details.
   
   Cite this work as:
   * C. Bannwarth, E. Caldeweyher, S. Ehlert, A. Hansen, P. Pracht,
     J. Seibert, S. Spicher, S. Grimme, WIREs Comput. Mol. Sci., 2020, 11,
     e01493. DOI: 10.1002/wcms.1493
   
   for GFN2-xTB:
   * C. Bannwarth, S. Ehlert and S. Grimme., J. Chem. Theory Comput., 2019,
     15, 1652-1671. DOI: 10.1021/acs.jctc.8b01176
   for GFN1-xTB:
   * S. Grimme, C. Bannwarth, P. Shushkov, J. Chem. Theory Comput., 2017,
     13, 1989-2009. DOI: 10.1021/acs.jctc.7b00118
   for GFN0-xTB:
   * P. Pracht, E. Caldeweyher, S. Ehlert, S. Grimme, ChemRxiv, 2019, preprint.
     DOI: 10.26434/chemrxiv.8326202.v1
   for GFN-FF:
   * S. Spicher and S. Grimme, Angew. Chem. Int. Ed., 2020, 59, 15665-15673.
     DOI: 10.1002/anie.202004239
   
   for ALPB and GBSA implicit solvation:
   * S. Ehlert, M. Stahn, S. Spicher, S. Grimme, J. Chem. Theory Comput.,
     2021, 17, 4250-4261. DOI: 10.1021/acs.jctc.1c00471
   
   for ddCOSMO and CPCM-X implicit solvation:
   * M. Stahn, S. Ehlert, S. Grimme, J. Phys. Chem. A,
     2023, XX, XXXX-XXXX. DOI: 10.1021/acs.jpca.3c04382
   
   for DFT-D4:
   * E. Caldeweyher, C. Bannwarth and S. Grimme, J. Chem. Phys., 2017,
     147, 034112. DOI: 10.1063/1.4993215
   * E. Caldeweyher, S. Ehlert, A. Hansen, H. Neugebauer, S. Spicher,
     C. Bannwarth and S. Grimme, J. Chem. Phys., 2019, 150, 154122.
     DOI: 10.1063/1.5090222
   * E. Caldeweyher, J.-M. Mewes, S. Ehlert and S. Grimme, Phys. Chem. Chem. Phys.
     2020, 22, 8499-8512. DOI: 10.1039/D0CP00502A
   
   for sTDA-xTB:
   * S. Grimme and C. Bannwarth, J. Chem. Phys., 2016, 145, 054103.
     DOI: 10.1063/1.4959605
   
   in the mass-spec context:
   * V. Asgeirsson, C. Bauer and S. Grimme, Chem. Sci., 2017, 8, 4879.
     DOI: 10.1039/c7sc00601b
   * J. Koopman and S. Grimme, ACS Omega 2019, 4, 12, 15120-15133.
     DOI: 10.1021/acsomega.9b02011
   
   for metadynamics refer to:
   * S. Grimme, J. Chem. Theory Comput., 2019, 155, 2847-2862
     DOI: 10.1021/acs.jctc.9b00143
   
   for SPH calculations refer to:
   * S. Spicher and S. Grimme, J. Chem. Theory Comput., 2021, 17, 1701-1714
     DOI: 10.1021/acs.jctc.0c01306
   
   for ONIOM refer to:
   * C. Plett, A. Katbashev, S. Ehlert, S. Grimme, M. Bursch,
     Phys. Chem. Chem. Phys., 2023, 25, 17860-17868. DOI: 10.1039/D3CP02178E
   
   for DIPRO refer to:
   * J. Kohn, N. Gildemeister, S. Grimme, D. Fazzi, A. Hansen,
     J. Chem. Phys., 2023, just accepted.
   
   for PTB refer to:
   * S. Grimme, M. Mueller, A. Hansen, J. Chem. Phys., 2023, 158, 124111.
     DOI: 10.1063/5.0137838
   
   with help from (in alphabetical order)
   P. Atkinson, C. Bannwarth, F. Bohle, G. Brandenburg, E. Caldeweyher
   M. Checinski, S. Dohm, S. Ehlert, S. Ehrlich, I. Gerasimov, C. Hölzer
   A. Katbashev, J. Kohn, J. Koopman, C. Lavigne, S. Lehtola, F. März, M. Müller,
   F. Musil, H. Neugebauer, J. Pisarek, C. Plett, P. Pracht, F. Pultar,
   J. Seibert, P. Shushkov, S. Spicher, M. Stahn, M. Steiner, T. Strunk,
   J. Stückrath, T. Rose, and J. Unsleber
   
 * started run on 2026/03/16 at 14:16:33.911     
   ID    Z sym.   atoms
    1    6 C      1
    2    1 H      2-4
    3   17 Cl     5
    4   35 Br     6

           -------------------------------------------------
          |                Calculation Setup                |
           -------------------------------------------------

          program call               : /software/orca-6.1.0-el8-x86_64/bin/otool_xtb sn2_cl_br_XTB.xyz --grad -c -1 -u 0 -P 8 --namespace sn2_cl_br --input sn2_cl_br_XTB.input.tmp --acc 0.200000
          hostname                   : midway3-login4.rcc.local
          calculation namespace      : sn2_cl_br
          coordinate file            : sn2_cl_br_XTB.xyz
          omp threads                :                     8


molecular fragmentation (1/2 indicates fragments):
111121
# atoms in fragment 1/2:     5     1
 fragment masses (1/2) :       94.94       35.45
CMA distance (Bohr)    :   8.502
constraining FC (au)   :  0.0500

           -------------------------------------------------
          |                 G F N 2 - x T B                 |
           -------------------------------------------------

        Reference                      10.1021/acs.jctc.8b01176
      * Hamiltonian:
        H0-scaling (s, p, d)           1.850000    2.230000    2.230000
        zeta-weighting                 0.500000
      * Dispersion:
        s8                             2.700000
        a1                             0.520000
        a2                             5.000000
        s9                             5.000000
      * Repulsion:
        kExp                           1.500000    1.000000
        rExp                           1.000000
      * Coulomb:
        alpha                          2.000000
        third order                    shell-resolved
        anisotropic                    true
        a3                             3.000000
        a5                             4.000000
        cn-shift                       1.200000
        cn-exp                         4.000000
        max-rad                        5.000000


          ...................................................
          :                      SETUP                      :
          :.................................................:
          :  # basis functions                  27          :
          :  # atomic orbitals                  25          :
          :  # shells                           11          :
          :  # electrons                        22          :
          :  max. iterations                   250          :
          :  Hamiltonian                  GFN2-xTB          :
          :  restarted?                      false          :
          :  GBSA solvation                  false          :
          :  PC potential                    false          :
          :  electronic temp.          300.0000000     K    :
          :  accuracy                    0.2000000          :
          :  -> integral cutoff          0.3198970E+02      :
          :  -> integral neglect         0.2000000E-08      :
          :  -> SCF convergence          0.2000000E-06 Eh   :
          :  -> wf. convergence          0.2000000E-04 e    :
          :  Broyden damping             0.4000000          :
          :  net charge                         -1          :
          :  unpaired electrons                  0          :
          ...................................................

 iter      E             dE          RMSdq      gap      omega  full diag
   1    -12.5203901 -0.125204E+02  0.684E+00    3.64       0.0  T
   2    -12.5560818 -0.356917E-01  0.533E+00    2.37       1.0  T
   3    -12.5860250 -0.299432E-01  0.226E+00    2.94       1.0  T
   4    -12.5899737 -0.394871E-02  0.120E+00    2.53       1.0  T
   5    -12.5903078 -0.334028E-03  0.651E-01    2.85       1.0  T
   6    -12.5910030 -0.695240E-03  0.361E-01    2.69       1.0  T
   7    -12.5911247 -0.121708E-03  0.198E-01    2.61       1.0  T
   8    -12.5911712 -0.464818E-04  0.576E-02    2.63       1.0  T
   9    -12.5911756 -0.439934E-05  0.366E-02    2.67       1.1  T
  10    -12.5911790 -0.341952E-05  0.112E-02    2.66       3.6  T
  11    -12.5911792 -0.155964E-06  0.876E-03    2.66       4.7  T
  12    -12.5911793 -0.160038E-06  0.184E-03    2.66      22.2  T
  13    -12.5911793 -0.320334E-08  0.414E-04    2.66      98.6  T
  14    -12.5911793 -0.305624E-09  0.283E-05    2.66    1443.4  T
  15    -12.5911793  0.177636E-13  0.251E-05    2.66    1629.2  T

   *** convergence criteria satisfied after 15 iterations ***

         #    Occupation            Energy/Eh            Energy/eV
      -------------------------------------------------------------
         1        2.0000           -0.8419165             -22.9097
       ...           ...                  ...                  ...
         5        2.0000           -0.3558458              -9.6831
         6        2.0000           -0.2883755              -7.8471
         7        2.0000           -0.2376160              -6.4659
         8        2.0000           -0.2376160              -6.4659
         9        2.0000           -0.2256767              -6.1410
        10        2.0000           -0.2247284              -6.1152
        11        2.0000           -0.2247284              -6.1152 (HOMO)
        12                         -0.1270539              -3.4573 (LUMO)
        13                          0.2063518               5.6151
        14                          0.2294290               6.2431
        15                          0.2294290               6.2431
        16                          0.2305127               6.2726
       ...                                ...                  ...
        25                          0.3928593              10.6902
      -------------------------------------------------------------
                  HL-Gap            0.0976745 Eh            2.6579 eV
             Fermi-level           -0.1758912 Eh           -4.7862 eV

 SCC (total)                   0 d,  0 h,  0 min,  0.036 sec
 SCC setup                      ...        0 min,  0.000 sec (  0.738%)
 Dispersion                     ...        0 min,  0.000 sec (  0.189%)
 classical contributions        ...        0 min,  0.000 sec (  0.122%)
 integral evaluation            ...        0 min,  0.033 sec ( 91.064%)
 iterations                     ...        0 min,  0.002 sec (  5.446%)
 molecular gradient             ...        0 min,  0.001 sec (  2.029%)
 printout                       ...        0 min,  0.000 sec (  0.361%)

         :::::::::::::::::::::::::::::::::::::::::::::::::::::
         ::                     SUMMARY                     ::
         :::::::::::::::::::::::::::::::::::::::::::::::::::::
         :: total energy             -12.538914668244 Eh    ::
         :: gradient norm              0.030895292798 Eh/a0 ::
         :: HOMO-LUMO gap              2.657857882263 eV    ::
         ::.................................................::
         :: SCC energy               -12.591180042124 Eh    ::
         :: -> isotropic ES            0.133646093555 Eh    ::
         :: -> anisotropic ES         -0.002252218225 Eh    ::
         :: -> anisotropic XC          0.002418075783 Eh    ::
         :: -> dispersion             -0.002754387327 Eh    ::
         :: repulsion energy           0.052265373880 Eh    ::
         :: add. restraining           0.000000000000 Eh    ::
         :: total charge              -1.000000000000 e     ::
         :::::::::::::::::::::::::::::::::::::::::::::::::::::


Property printout bound to 'properties.out'

           -------------------------------------------------
          | TOTAL ENERGY              -12.538914668244 Eh   |
          | GRADIENT NORM               0.030895292798 Eh/α |
          | HOMO-LUMO GAP               2.657857882263 eV   |
           -------------------------------------------------

------------------------------------------------------------------------
 * finished run on 2026/03/16 at 14:16:33.975     
------------------------------------------------------------------------
 total:
 * wall-time:     0 d,  0 h,  0 min,  0.063 sec
 *  cpu-time:     0 d,  0 h,  0 min,  0.322 sec
 * ratio c/w:     5.091 speedup
 SCF:
 * wall-time:     0 d,  0 h,  0 min,  0.036 sec
 *  cpu-time:     0 d,  0 h,  0 min,  0.251 sec
 * ratio c/w:     6.947 speedup


-------------------------   --------------------
FINAL SINGLE POINT ENERGY       -12.538914668240
-------------------------   --------------------


-------------
DIPOLE MOMENT
-------------
                                X             Y             Z
Total Dipole Moment    :     -0.00000       0.00000      -0.39600
                        -----------------------------------------
Magnitude (a.u.)       :      0.39600
Magnitude (Debye)      :      1.00655


------------------
CARTESIAN GRADIENT
------------------

   1   C   :    0.000000000    0.000000182    0.011698136
   2   H   :   -0.000000000    0.011693756   -0.004539983
   3   H   :    0.010127314   -0.005846968   -0.004539975
   4   H   :   -0.010127314   -0.005846968   -0.004539975
   5   Cl  :    0.000000000   -0.000000001    0.014070988
   6   Br  :    0.000000000   -0.000000001   -0.012149192

Difference to translation invariance:
           :    0.0000000000    0.0000000000   -0.0000000000

Difference to rotation invariance:
           :   -0.0000000025   -0.0000000000    0.0000000000

Norm of the Cartesian gradient     ...    0.0308952928
RMS gradient                       ...    0.0072820903
MAX gradient                       ...    0.0140709885
      -----------------------------------------------------------      
     |                   =====================                   |     
     |                           x T B                           |     
     |                   =====================                   |     
     |                         S. Grimme                         |     
     |          Mulliken Center for Theoretical Chemistry        |     
     |                    University of Bonn                     |     
      -----------------------------------------------------------      

   * xtb version 6.7.1 (edcfbbe) compiled by 'albert@albert-system' on 2024-07-22

   xtb is free software: you can redistribute it and/or modify it under
   the terms of the GNU Lesser General Public License as published by
   the Free Software Foundation, either version 3 of the License, or
   (at your option) any later version.
   
   xtb is distributed in the hope that it will be useful,
   but WITHOUT ANY WARRANTY; without even the implied warranty of
   MERCHANTABILITY or FITNESS FOR A PARTICULAR PURPOSE.  See the
   GNU Lesser General Public License for more details.
   
   Cite this work as:
   * C. Bannwarth, E. Caldeweyher, S. Ehlert, A. Hansen, P. Pracht,
     J. Seibert, S. Spicher, S. Grimme, WIREs Comput. Mol. Sci., 2020, 11,
     e01493. DOI: 10.1002/wcms.1493
   
   for GFN2-xTB:
   * C. Bannwarth, S. Ehlert and S. Grimme., J. Chem. Theory Comput., 2019,
     15, 1652-1671. DOI: 10.1021/acs.jctc.8b01176
   for GFN1-xTB:
   * S. Grimme, C. Bannwarth, P. Shushkov, J. Chem. Theory Comput., 2017,
     13, 1989-2009. DOI: 10.1021/acs.jctc.7b00118
   for GFN0-xTB:
   * P. Pracht, E. Caldeweyher, S. Ehlert, S. Grimme, ChemRxiv, 2019, preprint.
     DOI: 10.26434/chemrxiv.8326202.v1
   for GFN-FF:
   * S. Spicher and S. Grimme, Angew. Chem. Int. Ed., 2020, 59, 15665-15673.
     DOI: 10.1002/anie.202004239
   
   for ALPB and GBSA implicit solvation:
   * S. Ehlert, M. Stahn, S. Spicher, S. Grimme, J. Chem. Theory Comput.,
     2021, 17, 4250-4261. DOI: 10.1021/acs.jctc.1c00471
   
   for ddCOSMO and CPCM-X implicit solvation:
   * M. Stahn, S. Ehlert, S. Grimme, J. Phys. Chem. A,
     2023, XX, XXXX-XXXX. DOI: 10.1021/acs.jpca.3c04382
   
   for DFT-D4:
   * E. Caldeweyher, C. Bannwarth and S. Grimme, J. Chem. Phys., 2017,
     147, 034112. DOI: 10.1063/1.4993215
   * E. Caldeweyher, S. Ehlert, A. Hansen, H. Neugebauer, S. Spicher,
     C. Bannwarth and S. Grimme, J. Chem. Phys., 2019, 150, 154122.
     DOI: 10.1063/1.5090222
   * E. Caldeweyher, J.-M. Mewes, S. Ehlert and S. Grimme, Phys. Chem. Chem. Phys.
     2020, 22, 8499-8512. DOI: 10.1039/D0CP00502A
   
   for sTDA-xTB:
   * S. Grimme and C. Bannwarth, J. Chem. Phys., 2016, 145, 054103.
     DOI: 10.1063/1.4959605
   
   in the mass-spec context:
   * V. Asgeirsson, C. Bauer and S. Grimme, Chem. Sci., 2017, 8, 4879.
     DOI: 10.1039/c7sc00601b
   * J. Koopman and S. Grimme, ACS Omega 2019, 4, 12, 15120-15133.
     DOI: 10.1021/acsomega.9b02011
   
   for metadynamics refer to:
   * S. Grimme, J. Chem. Theory Comput., 2019, 155, 2847-2862
     DOI: 10.1021/acs.jctc.9b00143
   
   for SPH calculations refer to:
   * S. Spicher and S. Grimme, J. Chem. Theory Comput., 2021, 17, 1701-1714
     DOI: 10.1021/acs.jctc.0c01306
   
   for ONIOM refer to:
   * C. Plett, A. Katbashev, S. Ehlert, S. Grimme, M. Bursch,
     Phys. Chem. Chem. Phys., 2023, 25, 17860-17868. DOI: 10.1039/D3CP02178E
   
   for DIPRO refer to:
   * J. Kohn, N. Gildemeister, S. Grimme, D. Fazzi, A. Hansen,
     J. Chem. Phys., 2023, just accepted.
   
   for PTB refer to:
   * S. Grimme, M. Mueller, A. Hansen, J. Chem. Phys., 2023, 158, 124111.
     DOI: 10.1063/5.0137838
   
   with help from (in alphabetical order)
   P. Atkinson, C. Bannwarth, F. Bohle, G. Brandenburg, E. Caldeweyher
   M. Checinski, S. Dohm, S. Ehlert, S. Ehrlich, I. Gerasimov, C. Hölzer
   A. Katbashev, J. Kohn, J. Koopman, C. Lavigne, S. Lehtola, F. März, M. Müller,
   F. Musil, H. Neugebauer, J. Pisarek, C. Plett, P. Pracht, F. Pultar,
   J. Seibert, P. Shushkov, S. Spicher, M. Stahn, M. Steiner, T. Strunk,
   J. Stückrath, T. Rose, and J. Unsleber
   
 * started run on 2026/03/16 at 14:16:33.985     
   ID    Z sym.   atoms
    1    6 C      1
    2    1 H      2-4
    3   17 Cl     5
    4   35 Br     6

           -------------------------------------------------
          |                Calculation Setup                |
           -------------------------------------------------

          program call               : /software/orca-6.1.0-el8-x86_64/bin/otool_xtb sn2_cl_br_XTB.xyz --hess -c -1 -u 0 -P 8 --namespace sn2_cl_br --input sn2_cl_br_XTB.input.tmp --acc 0.200000
          hostname                   : midway3-login4.rcc.local
          calculation namespace      : sn2_cl_br
          coordinate file            : sn2_cl_br_XTB.xyz
          omp threads                :                     8


molecular fragmentation (1/2 indicates fragments):
111121
# atoms in fragment 1/2:     5     1
 fragment masses (1/2) :       94.94       35.45
CMA distance (Bohr)    :   8.502
constraining FC (au)   :  0.0500

           -------------------------------------------------
          |                 G F N 2 - x T B                 |
           -------------------------------------------------

        Reference                      10.1021/acs.jctc.8b01176
      * Hamiltonian:
        H0-scaling (s, p, d)           1.850000    2.230000    2.230000
        zeta-weighting                 0.500000
      * Dispersion:
        s8                             2.700000
        a1                             0.520000
        a2                             5.000000
        s9                             5.000000
      * Repulsion:
        kExp                           1.500000    1.000000
        rExp                           1.000000
      * Coulomb:
        alpha                          2.000000
        third order                    shell-resolved
        anisotropic                    true
        a3                             3.000000
        a5                             4.000000
        cn-shift                       1.200000
        cn-exp                         4.000000
        max-rad                        5.000000

q/qsh data taken from xtbrestart
CAMM data taken from xtbrestart

          ...................................................
          :                      SETUP                      :
          :.................................................:
          :  # basis functions                  27          :
          :  # atomic orbitals                  25          :
          :  # shells                           11          :
          :  # electrons                        22          :
          :  max. iterations                   250          :
          :  Hamiltonian                  GFN2-xTB          :
          :  restarted?                       true          :
          :  GBSA solvation                  false          :
          :  PC potential                    false          :
          :  electronic temp.          300.0000000     K    :
          :  accuracy                    0.2000000          :
          :  -> integral cutoff          0.3198970E+02      :
          :  -> integral neglect         0.2000000E-08      :
          :  -> SCF convergence          0.2000000E-06 Eh   :
          :  -> wf. convergence          0.2000000E-04 e    :
          :  Broyden damping             0.4000000          :
          :  net charge                         -1          :
          :  unpaired electrons                  0          :
          ...................................................

 iter      E             dE          RMSdq      gap      omega  full diag
   1    -12.5911793 -0.125912E+02  0.106E-06    2.66       0.0  T
   2    -12.5911793  0.177636E-13  0.374E-07    2.66  100000.0  T
   3    -12.5911793 -0.142109E-13  0.370E-07    2.66  100000.0  T

   *** convergence criteria satisfied after 3 iterations ***

         #    Occupation            Energy/Eh            Energy/eV
      -------------------------------------------------------------
         1        2.0000           -0.8419167             -22.9097
       ...           ...                  ...                  ...
         5        2.0000           -0.3558457              -9.6831
         6        2.0000           -0.2883753              -7.8471
         7        2.0000           -0.2376158              -6.4659
         8        2.0000           -0.2376158              -6.4659
         9        2.0000           -0.2256767              -6.1410
        10        2.0000           -0.2247286              -6.1152
        11        2.0000           -0.2247286              -6.1152 (HOMO)
        12                         -0.1270538              -3.4573 (LUMO)
        13                          0.2063519               5.6151
        14                          0.2294292               6.2431
        15                          0.2294292               6.2431
        16                          0.2305130               6.2726
       ...                                ...                  ...
        25                          0.3928593              10.6902
      -------------------------------------------------------------
                  HL-Gap            0.0976748 Eh            2.6579 eV
             Fermi-level           -0.1758912 Eh           -4.7862 eV

 SCC (total)                   0 d,  0 h,  0 min,  0.020 sec
 SCC setup                      ...        0 min,  0.000 sec (  1.515%)
 Dispersion                     ...        0 min,  0.000 sec (  0.831%)
 classical contributions        ...        0 min,  0.000 sec (  0.958%)
 integral evaluation            ...        0 min,  0.017 sec ( 85.256%)
 iterations                     ...        0 min,  0.001 sec (  5.498%)
 molecular gradient             ...        0 min,  0.001 sec (  4.980%)
 printout                       ...        0 min,  0.000 sec (  0.846%)

         :::::::::::::::::::::::::::::::::::::::::::::::::::::
         ::                     SUMMARY                     ::
         :::::::::::::::::::::::::::::::::::::::::::::::::::::
         :: total energy             -12.538914668245 Eh    ::
         :: gradient norm              0.030895435158 Eh/a0 ::
         :: HOMO-LUMO gap              2.657865372689 eV    ::
         ::.................................................::
         :: SCC energy               -12.591180042125 Eh    ::
         :: -> isotropic ES            0.133646142281 Eh    ::
         :: -> anisotropic ES         -0.002252229931 Eh    ::
         :: -> anisotropic XC          0.002418085355 Eh    ::
         :: -> dispersion             -0.002754387789 Eh    ::
         :: repulsion energy           0.052265373880 Eh    ::
         :: add. restraining           0.000000000000 Eh    ::
         :: total charge              -1.000000000000 e     ::
         :::::::::::::::::::::::::::::::::::::::::::::::::::::

           ------------------------------------------------- 
          |                Numerical Hessian                |
           ------------------------------------------------- 
step length          :   0.00500
SCC accuracy         :   0.30000
Hessian scale factor :   1.00000
frozen atoms in %    :   0.00000    0
RMS gradient         :   0.03090 !! INCOMPLETELY OPTIMIZED GEOMETRY !!
estimated CPU  time      0.00 min
estimated wall time      0.00 min

writing file <hessian>.

 projected vibrational frequencies (cm⁻¹)
eigval :       -0.00    -0.00    -0.00     0.00     0.00     0.00
eigval :     -321.19   147.03   192.74   192.75   957.31   957.31
eigval :      993.94  1360.72  1360.83  2956.06  3040.76  3040.80

Property printout bound to 'properties.out'
Molecule has the following symmetry elements: (C3) 3*(sigma) 
It seems to be the C3v point group
imag cut-off (cm-1) :    5.00
 found            1  significant imaginary frequency
 writing imag mode distorted coords to xtbhess.xyz
 for further optimization.

           -------------------------------------------------
          | TOTAL ENERGY              -12.538914668245 Eh   |
          | TOTAL ENTHALPY            -12.498574122183 Eh   |
          | TOTAL FREE ENERGY         -12.532469349166 Eh   |
          | GRADIENT NORM               0.030895435461 Eh/α |
          | HOMO-LUMO GAP               2.657865333275 eV   |
           -------------------------------------------------
########################################################################
[WARNING] Runtime exception occurred
-1- hessian_numhess: Hessian on incompletely optimized geometry!
########################################################################

------------------------------------------------------------------------
 * finished run on 2026/03/16 at 14:16:34.166     
------------------------------------------------------------------------
 total:
 * wall-time:     0 d,  0 h,  0 min,  0.180 sec
 *  cpu-time:     0 d,  0 h,  0 min,  0.385 sec
 * ratio c/w:     2.136 speedup
 SCF:
 * wall-time:     0 d,  0 h,  0 min,  0.021 sec
 *  cpu-time:     0 d,  0 h,  0 min,  0.129 sec
 * ratio c/w:     6.221 speedup
 analytical hessian:
 * wall-time:     0 d,  0 h,  0 min,  0.091 sec
 *  cpu-time:     0 d,  0 h,  0 min,  0.163 sec
 * ratio c/w:     1.792 speedup


-------------------------   --------------------
FINAL SINGLE POINT ENERGY       -12.538914668240
-------------------------   --------------------


-------------
DIPOLE MOMENT
-------------
                                X             Y             Z
Total Dipole Moment    :     -0.00000      -0.00000      -0.39600
                        -----------------------------------------
Magnitude (a.u.)       :      0.39600
Magnitude (Debye)      :      1.00655


-----------------------
VIBRATIONAL FREQUENCIES
-----------------------

Scaling factor for frequencies =  1.000000000  (already applied!)

     0:       0.00 cm**-1
     1:       0.00 cm**-1
     2:       0.00 cm**-1
     3:       0.00 cm**-1
     4:       0.00 cm**-1
     5:       0.00 cm**-1
     6:    -321.19 cm**-1  ***imaginary mode***
     7:     147.03 cm**-1
     8:     192.74 cm**-1
     9:     192.75 cm**-1
    10:     957.29 cm**-1
    11:     957.29 cm**-1
    12:     993.91 cm**-1
    13:    1360.69 cm**-1
    14:    1360.79 cm**-1
    15:    2955.97 cm**-1
    16:    3040.67 cm**-1
    17:    3040.72 cm**-1


------------
NORMAL MODES
------------

These modes are the Cartesian displacements weighted by the diagonal matrix
M(i,i)=1/sqrt(m[i]) where m[i] is the mass of the displaced atom
Thus, these vectors are normalized but *not* orthogonal

                  0          1          2          3          4          5    
      0       0.000000   0.000000   0.000000   0.000000   0.000000   0.000000
      1       0.000000   0.000000   0.000000   0.000000   0.000000   0.000000
      2       0.000000   0.000000   0.000000   0.000000   0.000000   0.000000
      3       0.000000   0.000000   0.000000   0.000000   0.000000   0.000000
      4       0.000000   0.000000   0.000000   0.000000   0.000000   0.000000
      5       0.000000   0.000000   0.000000   0.000000   0.000000   0.000000
      6       0.000000   0.000000   0.000000   0.000000   0.000000   0.000000
      7       0.000000   0.000000   0.000000   0.000000   0.000000   0.000000
      8       0.000000   0.000000   0.000000   0.000000   0.000000   0.000000
      9       0.000000   0.000000   0.000000   0.000000   0.000000   0.000000
     10       0.000000   0.000000   0.000000   0.000000   0.000000   0.000000
     11       0.000000   0.000000   0.000000   0.000000   0.000000   0.000000
     12       0.000000   0.000000   0.000000   0.000000   0.000000   0.000000
     13       0.000000   0.000000   0.000000   0.000000   0.000000   0.000000
     14       0.000000   0.000000   0.000000   0.000000   0.000000   0.000000
     15       0.000000   0.000000   0.000000   0.000000   0.000000   0.000000
     16       0.000000   0.000000   0.000000   0.000000   0.000000   0.000000
     17       0.000000   0.000000   0.000000   0.000000   0.000000   0.000000
                  6          7          8          9         10         11    
      0      -0.000003  -0.000001   0.483009  -0.000324  -0.000858   0.026169
      1       0.000034  -0.001524   0.000324   0.483016   0.026170   0.000858
      2      -0.932041   0.252310  -0.000001   0.000109  -0.000006  -0.000000
      3       0.000000  -0.000001   0.502720  -0.000337   0.001612  -0.049108
      4      -0.022062   0.001456   0.000330   0.492938  -0.015240  -0.000499
      5      -0.177871   0.109805  -0.000059  -0.084288   0.814209   0.026701
      6      -0.019121   0.002519   0.495354   0.003949  -0.013904  -0.024183
      7       0.011119  -0.003240   0.004589   0.500235  -0.040161  -0.016000
      8      -0.177859   0.109384  -0.072975   0.042205  -0.430118   0.691716
      9       0.019120  -0.002522   0.495349  -0.004612   0.015457  -0.023225
     10       0.011118  -0.003240  -0.003919   0.500241  -0.041125   0.013335
     11      -0.177859   0.109382   0.073029   0.042107  -0.383874  -0.718411
     12       0.000000   0.000000  -0.101982   0.000068  -0.000156   0.004752
     13      -0.000008   0.000326  -0.000068  -0.101983   0.004752   0.000156
     14       0.173312   0.850993   0.000001   0.000271  -0.000002  -0.000000
     15       0.000000   0.000000  -0.046198   0.000031   0.000158  -0.004825
     16      -0.000004   0.000148  -0.000031  -0.046199  -0.004825  -0.000158
     17       0.069940  -0.419674  -0.000000  -0.000137  -0.000001   0.000000
                 12         13         14         15         16         17    
      0      -0.000000  -0.000003  -0.096391  -0.000000  -0.000005   0.098083
      1       0.000016  -0.096382   0.000003   0.000029  -0.098088  -0.000005
      2      -0.039801  -0.000001   0.000000  -0.004731  -0.000001  -0.000000
      3       0.000002   0.000022   0.807447   0.000000   0.000003   0.038727
      4      -0.025307  -0.057382  -0.000003   0.576667   0.810896   0.000035
      5       0.576141   0.072226  -0.000005   0.023944   0.037867   0.000001
      6      -0.021977   0.374605   0.158775   0.499591  -0.367670  -0.598396
      7       0.012599   0.591179   0.374488  -0.288557   0.173587   0.367846
      8       0.576315  -0.035985   0.062469   0.023959  -0.018923  -0.032788
      9       0.021981  -0.374590   0.158792  -0.499591   0.367723  -0.598369
     10       0.012599   0.591162  -0.374523  -0.288556   0.173614  -0.367825
     11       0.576314  -0.035986  -0.062469   0.023963  -0.018929   0.032791
     12      -0.000000   0.000000   0.000734  -0.000000   0.000000  -0.000222
     13      -0.000002   0.000734  -0.000000   0.000001   0.000222  -0.000000
     14      -0.013335   0.000002  -0.000000  -0.000120  -0.000000   0.000000
     15      -0.000000   0.000000  -0.000029   0.000000  -0.000000  -0.000036
     16      -0.000000  -0.000029   0.000000   0.000001   0.000036   0.000000
     17      -0.009910  -0.000004   0.000000  -0.000142  -0.000000  -0.000000


The first frequency considered to be a vibration is 7
The total number of vibrations considered is 11


--------------------------
THERMOCHEMISTRY AT 298.15K
--------------------------

Temperature         ...   298.15 K
Pressure            ...     1.00 atm
Total Mass          ...   130.39 AMU
Quasi RRHO          ...     True
Cut-Off Frequency   ...     1.00 cm^-1

Throughout the following assumptions are being made:
  (1) The electronic state is orbitally nondegenerate
  (2) There are no thermally accessible electronically excited states
  (3) Hindered rotations indicated by low frequency modes are not
      treated as such but are treated as vibrations and this may
      cause some error
  (4) All equations used are the standard statistical mechanics
      equations for an ideal gas
  (5) All vibrations are strictly harmonic

freq.     147.03  E(vib)   ...       0.41 
freq.     192.74  E(vib)   ...       0.36 
freq.     192.75  E(vib)   ...       0.36 
freq.     957.29  E(vib)   ...       0.03 
freq.     957.29  E(vib)   ...       0.03 
freq.     993.91  E(vib)   ...       0.02 
freq.    1360.69  E(vib)   ...       0.01 
freq.    1360.79  E(vib)   ...       0.01 
freq.    2955.97  E(vib)   ...       0.00 
freq.    3040.67  E(vib)   ...       0.00 
freq.    3040.72  E(vib)   ...       0.00 

------------
INNER ENERGY
------------

The inner energy is: U= E(el) + E(ZPE) + E(vib) + E(rot) + E(trans)
    E(el)   - is the total energy from the electronic structure calculation
              = E(kin-el) + E(nuc-el) + E(el-el) + E(nuc-nuc)
    E(ZPE)  - the the zero temperature vibrational energy from the frequency calculation
    E(vib)  - the the finite temperature correction to E(ZPE) due to population
              of excited vibrational states
    E(rot)  - is the rotational thermal energy
    E(trans)- is the translational thermal energy

Summary of contributions to the inner energy U:
Electronic energy                ...    -12.53891467 Eh
Zero point energy                ...      0.03462778 Eh      21.73 kcal/mol
Thermal vibrational correction   ...      0.00193503 Eh       1.21 kcal/mol
Thermal rotational correction    ...      0.00141627 Eh       0.89 kcal/mol
Thermal translational correction ...      0.00141627 Eh       0.89 kcal/mol
-----------------------------------------------------------------------
Total thermal energy                    -12.49951932 Eh


Summary of corrections to the electronic energy:
(perhaps to be used in another calculation)
Total thermal correction                  0.00476757 Eh       2.99 kcal/mol
Non-thermal (ZPE) correction              0.03462778 Eh      21.73 kcal/mol
-----------------------------------------------------------------------
Total correction                          0.03939535 Eh      24.72 kcal/mol


--------
ENTHALPY
--------

The enthalpy is H = U + kB*T
                kB is Boltzmann's constant
Total thermal energy              ...    -12.49951932 Eh 
Thermal Enthalpy correction       ...      0.00094421 Eh       0.59 kcal/mol
-----------------------------------------------------------------------
Total Enthalpy                    ...    -12.49857511 Eh


WARNING (ORCA/SYM): The number of Z matrix atoms does not agree with
the number of centers in the basis set. The point group will therefore
be determined without considering basis set information.


Note: Rotational entropy computed according to Herzberg 
Infrared and Raman Spectra, Chapter V,1, Van Nostrand Reinhold, 1945 
Point Group:  C3v, Symmetry Number:   3  
Rotational constants in cm-1:     4.735387     0.028246     0.028246 

Vibrational entropy computed according to the QRRHO of S. Grimme
Chem.Eur.J. 2012 18 9955 using a reference frequency of 100.0 cm-1


-------
ENTROPY
-------

The entropy contributions are T*S = T*(S(el)+S(vib)+S(rot)+S(trans))
     S(el)   - electronic entropy
     S(vib)  - vibrational entropy
     S(rot)  - rotational entropy
     S(trans)- translational entropy
The entropies will be listed as multiplied by the temperature to get
units of energy

Electronic entropy                ...      0.00000000 Eh      0.00 kcal/mol
Vibrational entropy               ...      0.00353110 Eh      2.22 kcal/mol
Rotational entropy                ...      0.01110711 Eh      6.97 kcal/mol
Translational entropy             ...      0.01924704 Eh     12.08 kcal/mol
-----------------------------------------------------------------------
Final entropy term                ...      0.03388525 Eh     21.26 kcal/mol

In case the symmetry of your molecule has not been determined correctly
or in case you have a reason to use a different symmetry number we print 
out the resulting rotational entropy values for sn=1,12:

 non-linear molecules -----------------------------------
|  sn= 1 | S(rot)=       0.01214440 Eh      7.62 kcal/mol|
|  sn= 2 | S(rot)=       0.01148994 Eh      7.21 kcal/mol|
|  sn= 3 | S(rot)=       0.01110711 Eh      6.97 kcal/mol|
|  sn= 4 | S(rot)=       0.01083549 Eh      6.80 kcal/mol|
|  sn= 5 | S(rot)=       0.01062480 Eh      6.67 kcal/mol|
|  sn= 6 | S(rot)=       0.01045265 Eh      6.56 kcal/mol|
|  sn= 7 | S(rot)=       0.01030711 Eh      6.47 kcal/mol|
|  sn= 8 | S(rot)=       0.01018103 Eh      6.39 kcal/mol|
|  sn= 9 | S(rot)=       0.01006982 Eh      6.32 kcal/mol|
|  sn=10 | S(rot)=       0.00997034 Eh      6.26 kcal/mol|
|  sn=11 | S(rot)=       0.00988035 Eh      6.20 kcal/mol|
|  sn=12 | S(rot)=       0.00979820 Eh      6.15 kcal/mol|
 linear molecules ---------------------------------------
|  Dinfh | S(rot)=       0.00869353 Eh      5.46 kcal/mol|
|  Cinfv | S(rot)=       0.00934798 Eh      5.87 kcal/mol|
 --------------------------------------------------------


-------------------
GIBBS FREE ENERGY
-------------------

The Gibbs free energy is G = H - T*S

Total enthalpy                    ...    -12.49857511 Eh 
Total entropy correction          ...     -0.03388525 Eh    -21.26 kcal/mol
-----------------------------------------------------------------------
Final Gibbs free energy         ...    -12.53246036 Eh

For completeness - the Gibbs free energy minus the electronic energy
G-E(el)                           ...      0.00645431 Eh      4.05 kcal/mol

Actual Hessian File stored as sn2_cl_br.001.hess
------------------------------------------------------------------------------
                         ORCA GEOMETRY RELAXATION STEP
------------------------------------------------------------------------------

Reading the OPT-File                    .... done
Getting information on internals        .... done
Copying old internal coords+grads       .... done
Making the new internal coordinates     .... (2022 redundants) done
Validating the new internal coordinates .... (2022 redundants) done
Calculating the B-matrix                .... done
Calculating the G,G- and P matrices     .... done
Transforming gradient to internals      .... done
Projecting the internal gradient        .... done
Number of atoms                         ....   6
Number of internal coordinates          ....  17
Current Energy                          ....   -12.538914668 Eh
Current gradient norm                   ....     0.030895293 Eh/bohr
Maximum allowed component of the step   ....  0.300
Current trust radius                    ....  0.100
Evaluating the initial hessian          ....  (read) 
(Reading Exact Hessian)...  
InHessName: sn2_cl_br.hess	The file <sn2_cl_br.hess> is opened as a .hess file
done
done
Projecting the Hessian                  .... done
Diagonalizing the Hessian               .... done
Dimension of the hessian                ....  17
Lowest eigenvalues of the Hessian:
 -0.014374790  0.011108281  0.015247097  0.015247998  0.076817730
Hessian has   1 negative eigenvalues
Taking P-RFO step
Searching for lambda that maximizes along the lowest mode
TS mode is mode number   0 with eigenvalue  -0.01437479 and components:
   1.   -0.00162978
   2.   -0.00162726
   3.   -0.00162494
   4.   -0.15296922
   5.   -0.57431245
   6.   -0.15290024
   7.   -0.15290197
   8.    0.60717144
   9.    0.02634668
  10.    0.02629999
  11.   -0.19549661
  12.   -0.19546339
  13.   -0.19546511
  14.    0.19545175
  15.    0.19548736
  16.    0.19548601
  17.    0.02634870

Lambda that maximizes along the TS mode:       0.00171117
Searching for lambda that minimizes along all other modes
In cycle   1: lambdaN =  -0.00662489   step =   0.00662489
In cycle   2: lambdaN =  -0.00861694   step =   0.00199204
In cycle   3: lambdaN =  -0.00868469   step =   0.00006776
In cycle   4: lambdaN =  -0.00868476   step =   0.00000006
In cycle   5: lambdaN =  -0.00868476   step =   0.00000000
Lambda that minimizes along all other modes:  -0.00868476
Calculated stepsize too large (   0.6065 >    0.1000). Scaled with    0.1649.
The final length of the internal step   ....       0.1000
Converting the step to Cartesian space:
 Initial RMS(Int)=    0.0242535625
Transforming coordinates:
 Iter   0:  RMS(Cart)=    0.0119353358 RMS(Int)=    0.0242381639
done
Storing new coordinates                 .... done

                                .--------------------.
          ----------------------|Geometry convergence|-------------------------
          Item                value                   Tolerance       Converged
          ---------------------------------------------------------------------
          RMS gradient        0.0054421397            0.0001000000      NO
          MAX gradient        0.0121491917            0.0003000000      NO
          RMS step            0.0242535625            0.0020000000      NO
          MAX step            0.0494660621            0.0040000000      NO
          -------------------------------------------------------------------------
          ........................................................
          Max(Bonds)      0.0262      Max(Angles)    0.02
          Max(Dihed)        0.00      Max(Improp)    0.00
          ---------------------------------------------------------------------

The optimization has not yet converged - more geometry cycles are needed


    ---------------------------------------------------------------------------
                         Redundant Internal Coordinates
                            (Angstroem and degrees)

        Definition                    Value    dE/dq     Step     New-Value  comp.(TS mode)
    ----------------------------------------------------------------------------
     1. B(H   1,C   0)                1.0858  0.009693 -0.0027    1.0831   
     2. B(H   2,C   0)                1.0858  0.009693 -0.0027    1.0831   
     3. B(H   3,C   0)                1.0858  0.009693 -0.0027    1.0831   
     4. B(Cl  4,H   1)                2.6792  0.004919 -0.0262    2.6530   
     5. B(Cl  4,C   0)                2.4920  0.000577 -0.0262    2.4658          0.57
     6. B(Cl  4,H   2)                2.6792  0.004919 -0.0262    2.6530   
     7. B(Cl  4,H   3)                2.6792  0.004919 -0.0262    2.6530   
     8. B(Br  5,C   0)                2.3862  0.012149 -0.0061    2.3801          0.61
     9. A(H   1,C   0,H   3)          119.85  0.000058    0.00    119.85   
    10. A(H   2,C   0,H   3)          119.85  0.000058    0.00    119.85   
    11. A(H   1,C   0,Br  5)           92.23 -0.000427   -0.02     92.21   
    12. A(H   2,C   0,Br  5)           92.23 -0.000427   -0.02     92.21   
    13. A(H   3,C   0,Br  5)           92.23 -0.000427   -0.02     92.21   
    14. A(H   1,C   0,Cl  4)           87.77  0.000427    0.02     87.79   
    15. A(H   2,C   0,Cl  4)           87.77  0.000427    0.02     87.79   
    16. A(H   3,C   0,Cl  4)           87.77  0.000427    0.02     87.79   
    17. A(H   1,C   0,H   2)          119.85  0.000058    0.00    119.85   
    ----------------------------------------------------------------------------

Geometry step timings:
Preparation and reading OPT file:      0.000 s ( 0.898 %)
Internal coordinates            :      0.000 s ( 0.943 %)
B/P matrices and projection     :      0.000 s ( 3.256 %)
Hessian update/contruction      :      0.004 s (78.604 %)
Making the step                 :      0.000 s ( 5.029 %)
Converting the step to Cartesian:      0.000 s ( 0.943 %)
Storing new data                :      0.000 s ( 2.582 %)
Checking convergence            :      0.000 s ( 1.392 %)
Final printing                  :      0.000 s ( 6.242 %)
Total time                      :      0.004 s

Time for energy+gradient        :      0.075 s
Time for complete geometry iter :      0.363 s

         *************************************************************
         *                GEOMETRY OPTIMIZATION CYCLE   2            *
         *************************************************************
---------------------------------
CARTESIAN COORDINATES (ANGSTROEM)
---------------------------------
  C     0.000000    0.000001   -0.038838
  H    -0.000000    1.082146    0.003506
  H     0.937167   -0.541071    0.003505
  H    -0.937167   -0.541071    0.003505
  Cl   -0.000000   -0.000002    2.426142
  Br    0.000000   -0.000003   -2.418980

----------------------------
CARTESIAN COORDINATES (A.U.)
----------------------------
  NO LB    ZA    FRAG    MASS        X           Y           Z
   0 C   6.0000    0    12.011    0.000000    0.000001   -0.073393
   1 H   1.0000    0     1.008   -0.000000    2.044960    0.006625
   2 H   1.0000    0     1.008    1.770989   -1.022476    0.006623
   3 H   1.0000    0     1.008   -1.770989   -1.022476    0.006623
   4 Cl 17.0000    0    35.453   -0.000000   -0.000004    4.584744
   5 Br 35.0000    0    79.900    0.000000   -0.000005   -4.571209

      -----------------------------------------------------------      
     |                   =====================                   |     
     |                           x T B                           |     
     |                   =====================                   |     
     |                         S. Grimme                         |     
     |          Mulliken Center for Theoretical Chemistry        |     
     |                    University of Bonn                     |     
      -----------------------------------------------------------      

   * xtb version 6.7.1 (edcfbbe) compiled by 'albert@albert-system' on 2024-07-22

   xtb is free software: you can redistribute it and/or modify it under
   the terms of the GNU Lesser General Public License as published by
   the Free Software Foundation, either version 3 of the License, or
   (at your option) any later version.
   
   xtb is distributed in the hope that it will be useful,
   but WITHOUT ANY WARRANTY; without even the implied warranty of
   MERCHANTABILITY or FITNESS FOR A PARTICULAR PURPOSE.  See the
   GNU Lesser General Public License for more details.
   
   Cite this work as:
   * C. Bannwarth, E. Caldeweyher, S. Ehlert, A. Hansen, P. Pracht,
     J. Seibert, S. Spicher, S. Grimme, WIREs Comput. Mol. Sci., 2020, 11,
     e01493. DOI: 10.1002/wcms.1493
   
   for GFN2-xTB:
   * C. Bannwarth, S. Ehlert and S. Grimme., J. Chem. Theory Comput., 2019,
     15, 1652-1671. DOI: 10.1021/acs.jctc.8b01176
   for GFN1-xTB:
   * S. Grimme, C. Bannwarth, P. Shushkov, J. Chem. Theory Comput., 2017,
     13, 1989-2009. DOI: 10.1021/acs.jctc.7b00118
   for GFN0-xTB:
   * P. Pracht, E. Caldeweyher, S. Ehlert, S. Grimme, ChemRxiv, 2019, preprint.
     DOI: 10.26434/chemrxiv.8326202.v1
   for GFN-FF:
   * S. Spicher and S. Grimme, Angew. Chem. Int. Ed., 2020, 59, 15665-15673.
     DOI: 10.1002/anie.202004239
   
   for ALPB and GBSA implicit solvation:
   * S. Ehlert, M. Stahn, S. Spicher, S. Grimme, J. Chem. Theory Comput.,
     2021, 17, 4250-4261. DOI: 10.1021/acs.jctc.1c00471
   
   for ddCOSMO and CPCM-X implicit solvation:
   * M. Stahn, S. Ehlert, S. Grimme, J. Phys. Chem. A,
     2023, XX, XXXX-XXXX. DOI: 10.1021/acs.jpca.3c04382
   
   for DFT-D4:
   * E. Caldeweyher, C. Bannwarth and S. Grimme, J. Chem. Phys., 2017,
     147, 034112. DOI: 10.1063/1.4993215
   * E. Caldeweyher, S. Ehlert, A. Hansen, H. Neugebauer, S. Spicher,
     C. Bannwarth and S. Grimme, J. Chem. Phys., 2019, 150, 154122.
     DOI: 10.1063/1.5090222
   * E. Caldeweyher, J.-M. Mewes, S. Ehlert and S. Grimme, Phys. Chem. Chem. Phys.
     2020, 22, 8499-8512. DOI: 10.1039/D0CP00502A
   
   for sTDA-xTB:
   * S. Grimme and C. Bannwarth, J. Chem. Phys., 2016, 145, 054103.
     DOI: 10.1063/1.4959605
   
   in the mass-spec context:
   * V. Asgeirsson, C. Bauer and S. Grimme, Chem. Sci., 2017, 8, 4879.
     DOI: 10.1039/c7sc00601b
   * J. Koopman and S. Grimme, ACS Omega 2019, 4, 12, 15120-15133.
     DOI: 10.1021/acsomega.9b02011
   
   for metadynamics refer to:
   * S. Grimme, J. Chem. Theory Comput., 2019, 155, 2847-2862
     DOI: 10.1021/acs.jctc.9b00143
   
   for SPH calculations refer to:
   * S. Spicher and S. Grimme, J. Chem. Theory Comput., 2021, 17, 1701-1714
     DOI: 10.1021/acs.jctc.0c01306
   
   for ONIOM refer to:
   * C. Plett, A. Katbashev, S. Ehlert, S. Grimme, M. Bursch,
     Phys. Chem. Chem. Phys., 2023, 25, 17860-17868. DOI: 10.1039/D3CP02178E
   
   for DIPRO refer to:
   * J. Kohn, N. Gildemeister, S. Grimme, D. Fazzi, A. Hansen,
     J. Chem. Phys., 2023, just accepted.
   
   for PTB refer to:
   * S. Grimme, M. Mueller, A. Hansen, J. Chem. Phys., 2023, 158, 124111.
     DOI: 10.1063/5.0137838
   
   with help from (in alphabetical order)
   P. Atkinson, C. Bannwarth, F. Bohle, G. Brandenburg, E. Caldeweyher
   M. Checinski, S. Dohm, S. Ehlert, S. Ehrlich, I. Gerasimov, C. Hölzer
   A. Katbashev, J. Kohn, J. Koopman, C. Lavigne, S. Lehtola, F. März, M. Müller,
   F. Musil, H. Neugebauer, J. Pisarek, C. Plett, P. Pracht, F. Pultar,
   J. Seibert, P. Shushkov, S. Spicher, M. Stahn, M. Steiner, T. Strunk,
   J. Stückrath, T. Rose, and J. Unsleber
   
 * started run on 2026/03/16 at 14:16:34.274     
   ID    Z sym.   atoms
    1    6 C      1
    2    1 H      2-4
    3   17 Cl     5
    4   35 Br     6

           -------------------------------------------------
          |                Calculation Setup                |
           -------------------------------------------------

          program call               : /software/orca-6.1.0-el8-x86_64/bin/otool_xtb sn2_cl_br_XTB.xyz --grad -c -1 -u 0 -P 8 --namespace sn2_cl_br --input sn2_cl_br_XTB.input.tmp --acc 0.200000
          hostname                   : midway3-login4.rcc.local
          calculation namespace      : sn2_cl_br
          coordinate file            : sn2_cl_br_XTB.xyz
          omp threads                :                     8


molecular fragmentation (1/2 indicates fragments):
111121
# atoms in fragment 1/2:     5     1
 fragment masses (1/2) :       94.94       35.45
CMA distance (Bohr)    :   8.441
constraining FC (au)   :  0.0500

           -------------------------------------------------
          |                 G F N 2 - x T B                 |
           -------------------------------------------------

        Reference                      10.1021/acs.jctc.8b01176
      * Hamiltonian:
        H0-scaling (s, p, d)           1.850000    2.230000    2.230000
        zeta-weighting                 0.500000
      * Dispersion:
        s8                             2.700000
        a1                             0.520000
        a2                             5.000000
        s9                             5.000000
      * Repulsion:
        kExp                           1.500000    1.000000
        rExp                           1.000000
      * Coulomb:
        alpha                          2.000000
        third order                    shell-resolved
        anisotropic                    true
        a3                             3.000000
        a5                             4.000000
        cn-shift                       1.200000
        cn-exp                         4.000000
        max-rad                        5.000000

q/qsh data taken from xtbrestart
CAMM data taken from xtbrestart

          ...................................................
          :                      SETUP                      :
          :.................................................:
          :  # basis functions                  27          :
          :  # atomic orbitals                  25          :
          :  # shells                           11          :
          :  # electrons                        22          :
          :  max. iterations                   250          :
          :  Hamiltonian                  GFN2-xTB          :
          :  restarted?                       true          :
          :  GBSA solvation                  false          :
          :  PC potential                    false          :
          :  electronic temp.          300.0000000     K    :
          :  accuracy                    0.2000000          :
          :  -> integral cutoff          0.3198970E+02      :
          :  -> integral neglect         0.2000000E-08      :
          :  -> SCF convergence          0.2000000E-06 Eh   :
          :  -> wf. convergence          0.2000000E-04 e    :
          :  Broyden damping             0.4000000          :
          :  net charge                         -1          :
          :  unpaired electrons                  0          :
          ...................................................

 iter      E             dE          RMSdq      gap      omega  full diag
   1    -12.5933163 -0.125933E+02  0.117E-01    2.75       0.0  T
   2    -12.5933375 -0.211927E-04  0.710E-02    2.78       1.0  T
   3    -12.5933403 -0.284510E-05  0.315E-02    2.78       1.3  T
   4    -12.5933401  0.240091E-06  0.308E-02    2.78       1.3  T
   5    -12.5933412 -0.106414E-05  0.107E-02    2.78       3.8  T
   6    -12.5933413 -0.147063E-06  0.251E-03    2.78      16.3  T
   7    -12.5933413 -0.307107E-08  0.587E-04    2.78      69.5  T
   8    -12.5933413 -0.165302E-09  0.224E-04    2.78     182.2  T
   9    -12.5933413 -0.606235E-10  0.114E-04    2.78     358.4  T
  10    -12.5933413 -0.300346E-10  0.200E-05    2.78    2042.5  T

   *** convergence criteria satisfied after 10 iterations ***

         #    Occupation            Energy/Eh            Energy/eV
      -------------------------------------------------------------
         1        2.0000           -0.8433804             -22.9495
       ...           ...                  ...                  ...
         5        2.0000           -0.3553236              -9.6688
         6        2.0000           -0.2884981              -7.8504
         7        2.0000           -0.2361594              -6.4262
         8        2.0000           -0.2361594              -6.4262
         9        2.0000           -0.2257270              -6.1423
        10        2.0000           -0.2256648              -6.1407
        11        2.0000           -0.2256648              -6.1407 (HOMO)
        12                         -0.1235467              -3.3619 (LUMO)
        13                          0.2100343               5.7153
        14                          0.2311734               6.2905
        15                          0.2311734               6.2905
        16                          0.2322373               6.3195
       ...                                ...                  ...
        25                          0.3985606              10.8454
      -------------------------------------------------------------
                  HL-Gap            0.1021180 Eh            2.7788 eV
             Fermi-level           -0.1746058 Eh           -4.7513 eV

 SCC (total)                   0 d,  0 h,  0 min,  0.064 sec
 SCC setup                      ...        0 min,  0.000 sec (  0.279%)
 Dispersion                     ...        0 min,  0.000 sec (  0.096%)
 classical contributions        ...        0 min,  0.000 sec (  0.048%)
 integral evaluation            ...        0 min,  0.059 sec ( 90.935%)
 iterations                     ...        0 min,  0.004 sec (  6.095%)
 molecular gradient             ...        0 min,  0.001 sec (  2.222%)
 printout                       ...        0 min,  0.000 sec (  0.290%)

         :::::::::::::::::::::::::::::::::::::::::::::::::::::
         ::                     SUMMARY                     ::
         :::::::::::::::::::::::::::::::::::::::::::::::::::::
         :: total energy             -12.539914383371 Eh    ::
         :: gradient norm              0.027321508682 Eh/a0 ::
         :: HOMO-LUMO gap              2.778773508462 eV    ::
         ::.................................................::
         :: SCC energy               -12.593342003442 Eh    ::
         :: -> isotropic ES            0.133350731925 Eh    ::
         :: -> anisotropic ES         -0.002276102656 Eh    ::
         :: -> anisotropic XC          0.002185363460 Eh    ::
         :: -> dispersion             -0.002767510610 Eh    ::
         :: repulsion energy           0.053427620070 Eh    ::
         :: add. restraining           0.000000000000 Eh    ::
         :: total charge              -1.000000000000 e     ::
         :::::::::::::::::::::::::::::::::::::::::::::::::::::


Property printout bound to 'properties.out'

           -------------------------------------------------
          | TOTAL ENERGY              -12.539914383371 Eh   |
          | GRADIENT NORM               0.027321508682 Eh/α |
          | HOMO-LUMO GAP               2.778773508462 eV   |
           -------------------------------------------------

------------------------------------------------------------------------
 * finished run on 2026/03/16 at 14:16:34.359     
------------------------------------------------------------------------
 total:
 * wall-time:     0 d,  0 h,  0 min,  0.083 sec
 *  cpu-time:     0 d,  0 h,  0 min,  0.279 sec
 * ratio c/w:     3.341 speedup
 SCF:
 * wall-time:     0 d,  0 h,  0 min,  0.065 sec
 *  cpu-time:     0 d,  0 h,  0 min,  0.208 sec
 * ratio c/w:     3.215 speedup


-------------------------   --------------------
FINAL SINGLE POINT ENERGY       -12.539914383370
-------------------------   --------------------


-------------
DIPOLE MOMENT
-------------
                                X             Y             Z
Total Dipole Moment    :     -0.00000       0.00000      -0.31600
                        -----------------------------------------
Magnitude (a.u.)       :      0.31600
Magnitude (Debye)      :      0.80321


------------------
CARTESIAN GRADIENT
------------------

   1   C   :    0.000000013    0.000000095    0.010580637
   2   H   :   -0.000000002    0.009882822   -0.004290856
   3   H   :    0.008559213   -0.004941388   -0.004291001
   4   H   :   -0.008559224   -0.004941393   -0.004290998
   5   Cl  :   -0.000000000   -0.000000040    0.013054630
   6   Br  :   -0.000000000   -0.000000096   -0.010762411

Difference to translation invariance:
           :   -0.0000000000   -0.0000000000   -0.0000000000

Difference to rotation invariance:
           :    0.0000000005    0.0000000040   -0.0000000001

Norm of the Cartesian gradient     ...    0.0273215087
RMS gradient                       ...    0.0064397414
MAX gradient                       ...    0.0130546302
------------------------------------------------------------------------------
                         ORCA GEOMETRY RELAXATION STEP
------------------------------------------------------------------------------

Reading the OPT-File                    .... done
Getting information on internals        .... done
Copying old internal coords+grads       .... done
Making the new internal coordinates     .... (2022 redundants) done
Validating the new internal coordinates .... (2022 redundants) done
Calculating the B-matrix                .... done
Calculating the G,G- and P matrices     .... done
Transforming gradient to internals      .... done
Projecting the internal gradient        .... done
Number of atoms                         ....   6
Number of internal coordinates          ....  17
Current Energy                          ....   -12.539914383 Eh
[...]
                  HL-Gap            0.1236478 Eh            3.3646 eV
             Fermi-level           -0.1579496 Eh           -4.2980 eV

 SCC (total)                   0 d,  0 h,  0 min,  0.153 sec
 SCC setup                      ...        0 min,  0.000 sec (  0.181%)
 Dispersion                     ...        0 min,  0.000 sec (  0.041%)
 classical contributions        ...        0 min,  0.000 sec (  0.022%)
 integral evaluation            ...        0 min,  0.150 sec ( 98.063%)
 iterations                     ...        0 min,  0.001 sec (  0.808%)
 molecular gradient             ...        0 min,  0.001 sec (  0.754%)
 printout                       ...        0 min,  0.000 sec (  0.113%)

         :::::::::::::::::::::::::::::::::::::::::::::::::::::
         ::                     SUMMARY                     ::
         :::::::::::::::::::::::::::::::::::::::::::::::::::::
         :: total energy             -12.543361317031 Eh    ::
         :: gradient norm              0.000000173716 Eh/a0 ::
         :: HOMO-LUMO gap              3.364626773781 eV    ::
         ::.................................................::
         :: SCC energy               -12.603191294885 Eh    ::
         :: -> isotropic ES            0.131637181053 Eh    ::
         :: -> anisotropic ES         -0.002378112318 Eh    ::
         :: -> anisotropic XC          0.000957717726 Eh    ::
         :: -> dispersion             -0.002910029613 Eh    ::
         :: repulsion energy           0.059829977854 Eh    ::
         :: add. restraining           0.000000000000 Eh    ::
         :: total charge              -1.000000000000 e     ::
         :::::::::::::::::::::::::::::::::::::::::::::::::::::

           ------------------------------------------------- 
          |                Numerical Hessian                |
           ------------------------------------------------- 
step length          :   0.00500
SCC accuracy         :   0.30000
Hessian scale factor :   1.00000
frozen atoms in %    :   0.00000    0
RMS gradient         :   0.00000
estimated CPU  time      0.00 min
estimated wall time      0.00 min

writing file <hessian>.

 projected vibrational frequencies (cm⁻¹)
eigval :       -0.00    -0.00     0.00     0.00     0.00     0.00
eigval :     -351.96   200.98   207.40   207.41  1027.59  1031.71
eigval :     1031.76  1332.27  1332.43  3123.94  3214.63  3214.70

Property printout bound to 'properties.out'
Molecule has the following symmetry elements: (C3) 3*(sigma) 
It seems to be the C3v point group
imag cut-off (cm-1) :    5.00
 found            1  significant imaginary frequency
 writing imag mode distorted coords to xtbhess.xyz
 for further optimization.

           -------------------------------------------------
          | TOTAL ENERGY              -12.543361317031 Eh   |
          | TOTAL ENTHALPY            -12.501529527538 Eh   |
          | TOTAL FREE ENERGY         -12.534878172464 Eh   |
          | GRADIENT NORM               0.000000191478 Eh/α |
          | HOMO-LUMO GAP               3.364626410026 eV   |
           -------------------------------------------------

------------------------------------------------------------------------
 * finished run on 2026/03/16 at 14:16:36.678     
------------------------------------------------------------------------
 total:
 * wall-time:     0 d,  0 h,  0 min,  0.207 sec
 *  cpu-time:     0 d,  0 h,  0 min,  0.610 sec
 * ratio c/w:     2.945 speedup
 SCF:
 * wall-time:     0 d,  0 h,  0 min,  0.154 sec
 *  cpu-time:     0 d,  0 h,  0 min,  0.352 sec
 * ratio c/w:     2.290 speedup
 analytical hessian:
 * wall-time:     0 d,  0 h,  0 min,  0.022 sec
 *  cpu-time:     0 d,  0 h,  0 min,  0.171 sec
 * ratio c/w:     7.759 speedup


-------------------------   --------------------
FINAL SINGLE POINT ENERGY       -12.543361317030
-------------------------   --------------------


-------------
DIPOLE MOMENT
-------------
                                X             Y             Z
Total Dipole Moment    :      0.00000      -0.00000       0.44200
                        -----------------------------------------
Magnitude (a.u.)       :      0.44200
Magnitude (Debye)      :      1.12347


-----------------------
VIBRATIONAL FREQUENCIES
-----------------------

Scaling factor for frequencies =  1.000000000  (already applied!)

     0:       0.00 cm**-1
     1:       0.00 cm**-1
     2:       0.00 cm**-1
     3:       0.00 cm**-1
     4:       0.00 cm**-1
     5:       0.00 cm**-1
     6:    -351.96 cm**-1  ***imaginary mode***
     7:     200.98 cm**-1
     8:     207.39 cm**-1
     9:     207.41 cm**-1
    10:    1027.56 cm**-1
    11:    1031.68 cm**-1
    12:    1031.73 cm**-1
    13:    1332.24 cm**-1
    14:    1332.39 cm**-1
    15:    3123.85 cm**-1
    16:    3214.54 cm**-1
    17:    3214.61 cm**-1


------------
NORMAL MODES
------------

These modes are the Cartesian displacements weighted by the diagonal matrix
M(i,i)=1/sqrt(m[i]) where m[i] is the mass of the displaced atom
Thus, these vectors are normalized but *not* orthogonal

                  0          1          2          3          4          5    
      0       0.000000   0.000000   0.000000   0.000000   0.000000   0.000000
      1       0.000000   0.000000   0.000000   0.000000   0.000000   0.000000
      2       0.000000   0.000000   0.000000   0.000000   0.000000   0.000000
      3       0.000000   0.000000   0.000000   0.000000   0.000000   0.000000
      4       0.000000   0.000000   0.000000   0.000000   0.000000   0.000000
      5       0.000000   0.000000   0.000000   0.000000   0.000000   0.000000
      6       0.000000   0.000000   0.000000   0.000000   0.000000   0.000000
      7       0.000000   0.000000   0.000000   0.000000   0.000000   0.000000
      8       0.000000   0.000000   0.000000   0.000000   0.000000   0.000000
      9       0.000000   0.000000   0.000000   0.000000   0.000000   0.000000
     10       0.000000   0.000000   0.000000   0.000000   0.000000   0.000000
     11       0.000000   0.000000   0.000000   0.000000   0.000000   0.000000
     12       0.000000   0.000000   0.000000   0.000000   0.000000   0.000000
     13       0.000000   0.000000   0.000000   0.000000   0.000000   0.000000
     14       0.000000   0.000000   0.000000   0.000000   0.000000   0.000000
     15       0.000000   0.000000   0.000000   0.000000   0.000000   0.000000
     16       0.000000   0.000000   0.000000   0.000000   0.000000   0.000000
     17       0.000000   0.000000   0.000000   0.000000   0.000000   0.000000
                  6          7          8          9         10         11    
      0      -0.000003   0.000005  -0.485993   0.000484   0.000000   0.010853
      1      -0.000023  -0.017197  -0.000484  -0.486000  -0.000005   0.000001
      2      -0.985237   0.112785   0.000001  -0.000434   0.012213  -0.000000
      3       0.000001   0.000006  -0.507730   0.000506  -0.000003  -0.050307
      4      -0.024619  -0.021820  -0.000490  -0.492466   0.015800  -0.000001
      5       0.019545   0.221850  -0.000001  -0.003539  -0.576987   0.000057
      6      -0.021315  -0.004180  -0.496272  -0.006129   0.013695  -0.025197
      7       0.012251  -0.015940  -0.007119  -0.503879  -0.007883  -0.014499
      8       0.019542   0.221974  -0.002287   0.000448  -0.576865   0.705524
      9       0.021316   0.004191  -0.496258   0.007117  -0.013699  -0.025200
     10       0.012251  -0.015940   0.006115  -0.503892  -0.007883   0.014494
     11       0.019543   0.221973   0.002292   0.000443  -0.576877  -0.705567
     12       0.000000  -0.000001   0.106629  -0.000106   0.000000   0.007625
     13       0.000006   0.003782   0.000106   0.106629  -0.000000   0.000000
     14       0.137414   0.827176  -0.000002  -0.003311   0.023078  -0.000000
     15       0.000000  -0.000001   0.044671  -0.000044   0.000000  -0.003744
     16       0.000002   0.001584   0.000044   0.044671   0.000000  -0.000000
     17       0.086394  -0.392386   0.000001   0.001568   0.009758  -0.000000
                 12         13         14         15         16         17    
      0       0.000001   0.000005   0.098164   0.000000  -0.000013   0.098334
      1      -0.010857   0.098153  -0.000005  -0.000028  -0.098341  -0.000013
      2      -0.000001   0.000002  -0.000000   0.003577  -0.000001  -0.000000
      3      -0.000005  -0.000033  -0.808306  -0.000000  -0.000001   0.038035
      4       0.016827   0.058385   0.000002  -0.576962   0.811411   0.000105
      5      -0.814636  -0.058973   0.000005  -0.015481   0.024794   0.000003
      6       0.014521  -0.375412  -0.158242  -0.499844  -0.367540  -0.598989
      7       0.041971  -0.591575  -0.375282   0.288699   0.174213   0.367786
      8       0.407445   0.029453  -0.051010  -0.015492  -0.012389  -0.021469
      9      -0.014523   0.375393  -0.158268   0.499844   0.367697  -0.598898
     10       0.041975  -0.591548   0.375332   0.288699   0.174304  -0.367735
     11       0.407355   0.029455   0.051008  -0.015496  -0.012397   0.021470
     12       0.000000  -0.000000  -0.001013   0.000000   0.000000  -0.000189
     13      -0.007625  -0.001013   0.000000  -0.000001   0.000189   0.000000
     14      -0.000001  -0.000010   0.000000  -0.000013  -0.000000  -0.000000
     15      -0.000000  -0.000000  -0.000117  -0.000000   0.000000  -0.000066
     16       0.003744  -0.000116   0.000000  -0.000001   0.000066   0.000000
     17      -0.000001   0.000005  -0.000000   0.000054  -0.000000  -0.000000


The first frequency considered to be a vibration is 7
The total number of vibrations considered is 11


--------------------------
THERMOCHEMISTRY AT 298.15K
--------------------------

Temperature         ...   298.15 K
Pressure            ...     1.00 atm
Total Mass          ...   130.39 AMU
Quasi RRHO          ...     True
Cut-Off Frequency   ...     1.00 cm^-1

Throughout the following assumptions are being made:
  (1) The electronic state is orbitally nondegenerate
  (2) There are no thermally accessible electronically excited states
  (3) Hindered rotations indicated by low frequency modes are not
      treated as such but are treated as vibrations and this may
      cause some error
  (4) All equations used are the standard statistical mechanics
      equations for an ideal gas
  (5) All vibrations are strictly harmonic

freq.     200.98  E(vib)   ...       0.35 
freq.     207.39  E(vib)   ...       0.34 
freq.     207.41  E(vib)   ...       0.34 
freq.    1027.56  E(vib)   ...       0.02 
freq.    1031.68  E(vib)   ...       0.02 
freq.    1031.73  E(vib)   ...       0.02 
freq.    1332.24  E(vib)   ...       0.01 
freq.    1332.39  E(vib)   ...       0.01 
freq.    3123.85  E(vib)   ...       0.00 
freq.    3214.54  E(vib)   ...       0.00 
freq.    3214.61  E(vib)   ...       0.00 

------------
INNER ENERGY
------------

The inner energy is: U= E(el) + E(ZPE) + E(vib) + E(rot) + E(trans)
    E(el)   - is the total energy from the electronic structure calculation
              = E(kin-el) + E(nuc-el) + E(el-el) + E(nuc-nuc)
    E(ZPE)  - the the zero temperature vibrational energy from the frequency calculation
    E(vib)  - the the finite temperature correction to E(ZPE) due to population
              of excited vibrational states
    E(rot)  - is the rotational thermal energy
    E(trans)- is the translational thermal energy

Summary of contributions to the inner energy U:
Electronic energy                ...    -12.54336132 Eh
Zero point energy                ...      0.03627839 Eh      22.76 kcal/mol
Thermal vibrational correction   ...      0.00177562 Eh       1.11 kcal/mol
Thermal rotational correction    ...      0.00141627 Eh       0.89 kcal/mol
Thermal translational correction ...      0.00141627 Eh       0.89 kcal/mol
-----------------------------------------------------------------------
Total thermal energy                    -12.50247477 Eh


Summary of corrections to the electronic energy:
(perhaps to be used in another calculation)
Total thermal correction                  0.00460816 Eh       2.89 kcal/mol
Non-thermal (ZPE) correction              0.03627839 Eh      22.76 kcal/mol
-----------------------------------------------------------------------
Total correction                          0.04088655 Eh      25.66 kcal/mol


--------
ENTHALPY
--------

The enthalpy is H = U + kB*T
                kB is Boltzmann's constant
Total thermal energy              ...    -12.50247477 Eh 
Thermal Enthalpy correction       ...      0.00094421 Eh       0.59 kcal/mol
-----------------------------------------------------------------------
Total Enthalpy                    ...    -12.50153056 Eh


WARNING (ORCA/SYM): The number of Z matrix atoms does not agree with
the number of centers in the basis set. The point group will therefore
be determined without considering basis set information.


Note: Rotational entropy computed according to Herzberg 
Infrared and Raman Spectra, Chapter V,1, Van Nostrand Reinhold, 1945 
Point Group:  C3v, Symmetry Number:   3  
Rotational constants in cm-1:     4.889024     0.031268     0.031268 

Vibrational entropy computed according to the QRRHO of S. Grimme
Chem.Eur.J. 2012 18 9955 using a reference frequency of 100.0 cm-1


-------
ENTROPY
-------

The entropy contributions are T*S = T*(S(el)+S(vib)+S(rot)+S(trans))
     S(el)   - electronic entropy
     S(vib)  - vibrational entropy
     S(rot)  - rotational entropy
     S(trans)- translational entropy
The entropies will be listed as multiplied by the temperature to get
units of energy

Electronic entropy                ...      0.00000000 Eh      0.00 kcal/mol
Vibrational entropy               ...      0.00311779 Eh      1.96 kcal/mol
Rotational entropy                ...      0.01099606 Eh      6.90 kcal/mol
Translational entropy             ...      0.01924704 Eh     12.08 kcal/mol
-----------------------------------------------------------------------
Final entropy term                ...      0.03336089 Eh     20.93 kcal/mol

In case the symmetry of your molecule has not been determined correctly
or in case you have a reason to use a different symmetry number we print 
out the resulting rotational entropy values for sn=1,12:

 non-linear molecules -----------------------------------
|  sn= 1 | S(rot)=       0.01203335 Eh      7.55 kcal/mol|
|  sn= 2 | S(rot)=       0.01137889 Eh      7.14 kcal/mol|
|  sn= 3 | S(rot)=       0.01099606 Eh      6.90 kcal/mol|
|  sn= 4 | S(rot)=       0.01072443 Eh      6.73 kcal/mol|
|  sn= 5 | S(rot)=       0.01051374 Eh      6.60 kcal/mol|
|  sn= 6 | S(rot)=       0.01034160 Eh      6.49 kcal/mol|
|  sn= 7 | S(rot)=       0.01019605 Eh      6.40 kcal/mol|
|  sn= 8 | S(rot)=       0.01006998 Eh      6.32 kcal/mol|
|  sn= 9 | S(rot)=       0.00995877 Eh      6.25 kcal/mol|
|  sn=10 | S(rot)=       0.00985929 Eh      6.19 kcal/mol|
|  sn=11 | S(rot)=       0.00976930 Eh      6.13 kcal/mol|
|  sn=12 | S(rot)=       0.00968714 Eh      6.08 kcal/mol|
 linear molecules ---------------------------------------
|  Dinfh | S(rot)=       0.00859755 Eh      5.40 kcal/mol|
|  Cinfv | S(rot)=       0.00925200 Eh      5.81 kcal/mol|
 --------------------------------------------------------


-------------------
GIBBS FREE ENERGY
-------------------

The Gibbs free energy is G = H - T*S

Total enthalpy                    ...    -12.50153056 Eh 
Total entropy correction          ...     -0.03336089 Eh    -20.93 kcal/mol
-----------------------------------------------------------------------
Final Gibbs free energy         ...    -12.53489145 Eh

For completeness - the Gibbs free energy minus the electronic energy
G-E(el)                           ...      0.00846987 Eh      5.31 kcal/mol


--------------------------------
SUGGESTED CITATIONS FOR THIS RUN
--------------------------------

Below you find a list of papers that are relevant to this ORCA run
We neither can nor want to force you to cite these papers, but we appreciate if you do
You receive ORCA, which is the product of decades of hard work by many enthusiastic individuals, for free
The only thing we kindly ask in return is that you cite our papers,
We deeply appreciate it, if you show your appreciation for ORCA by not just citing the generic ORCA reference.

Please note that relegating all ORCA citations to the supporting information does *not* help us.
SI sections are not indexed - citations you put there will not count into any citation statistics
But we need these citations in order to attract the funding resources that allow us to do what we are doing

Therefore, if you are a happy ORCA user, please consider citing a few of the papers listed below in the main body of your paper

In addition to the list printed below, the program has created the file sn2_cl_br.bibtex that contains the list in bibtex format
You can import this file easily into all common literature databanks and citation aid programs


List of essential papers. We consider these as the minimum necessary citations

  1. Bannwarth, C.; Ehlert, S.; Grimme, S.
     GFN2-xTB—An Accurate and Broadly Parametrized Self-Consistent Tight-Binding Quantum Chemical Method with Multipole Electrostatics and Density-Dependent Dispersion Contributions
     J. Chem. Theory Comput. 2019 15(3), 1652-1671
     doi.org/10.1021/acs.jctc.8b01176
  2. Neese, F.
     Software update: the ORCA program system, version 6.0
     WIRES Comput. Molec. Sci. 2025 15(1), e70019
     doi.org/10.1002/wcms.7019

List of papers to cite with high priority. The work reported in these papers was absolutely
necessary for this run to complete.
Our perspective: the developers of density functionals and basis sets usually get cited in chemistry papers
Good! But without the algorithms to do something with them, the functionals or basis sets would not do anything.
Hence, in our opinion, the algorithm design and method developments papers are equally worthy of getting cited

  1. Bykov, D.; Petrenko, T.; Izsak, R.; Kossmann, S.; Becker, U.; Valeev, E.; Neese, F.
     Efficient implementation of the analytic second derivatives of Hartree-Fock and hybrid DFT energies: a detailed analysis of different approximations
     Molec. Phys. 2015 113 , 1961-1977
     doi.org/10.1080/00268976.2015.1025114
  2. Bannwarth, C.; Caldeweyher, E.; Ehlert, S.; Hansen, A.; Pracht, P.; Seibert, J.; Spicher, S.; Grimme, S.
     Extended tight-binding quantum chemistry methods
     WIRES Comput. Molec. Sci. 2020 11(2), e1493
     doi.org/10.1002/wcms.1493

List of suggested additional citations. These are papers that are important in the 'surrounding' of 
of this run, or papers that preceded the highly important papers. If you like your results we are grateful for a citation.

  1. Neese, F.
     The ORCA program system
     WIRES Comput. Molec. Sci. 2012 2(1), 73-78
     doi.org/10.1002/wcms.81
  2. Neese, F.
     Software update: the ORCA program system, version 4.0
     WIRES Comput. Molec. Sci. 2018 8(1), 1-6
     doi.org/10.1002/wcms.1327
  3. Neese, F.; Wennmohs, F.; Becker, U.; Riplinger, C.
     The ORCA quantum chemistry program package
     J. Chem. Phys. 2020 152(22), 224108
     doi.org/10.1063/5.0004608
  4. Neese, F.
     Software update: The ORCA program system—Version 5.0
     WIRES Comput. Molec. Sci. 2022 12(1), e1606
     doi.org/10.1002/wcms.1606

List of optional additional citations

  1. Neese, F.
     Approximate second-order SCF convergence for spin unrestricted wavefunctions
     Chem. Phys. Lett. 2000 325(1-3), 93-98
     doi.org/10.1016/s0009-2614(00)00662-x

Timings for individual modules:

Sum of individual times          ...        2.607 sec (=   0.043 min)
Geometry relaxation              ...        0.033 sec (=   0.001 min)   1.3 %
XTB module                       ...        2.574 sec (=   0.043 min)  98.7 %
                             ****ORCA TERMINATED NORMALLY****
TOTAL RUN TIME: 0 days 0 hours 0 minutes 3 seconds 716 msec
