
                                 *****************
                                 * O   R   C   A *
                                 *****************

                                            #,                                       
                                            ###                                      
                                            ####                                     
                                            #####                                    
                                            ######                                   
                                           ########,                                 
                                     ,,################,,,,,                         
                               ,,#################################,,                 
                          ,,##########################################,,             
                       ,#########################################, ''#####,          
                    ,#############################################,,   '####,        
                  ,##################################################,,,,####,       
                ,###########''''           ''''###############################       
              ,#####''   ,,,,##########,,,,          '''####'''          '####       
            ,##' ,,,,###########################,,,                        '##       
           ' ,,###''''                  '''############,,,                           
         ,,##''                                '''############,,,,        ,,,,,,###''
      ,#''                                            '''#######################'''  
     '                                                          ''''####''''         
             ,#######,   #######,   ,#######,      ##                                
            ,#'     '#,  ##    ##  ,#'     '#,    #''#        ,####,    ,#,          
            ##       ##  ##   ,#'  ##            #'  '#       #'       ,# #          
            ##       ##  #######   ##           ,######,      #####,      #          
            '#,     ,#'  ##    ##  '#,     ,#' ,#      #,     #,   #      #          
             '#######'   ##     ##  '#######'  #'      '#     '####' #    #          



                #########################################################
                #                        -***-                          #
                #          Department of theory and spectroscopy        #
                #                                                       #
                #                      Frank Neese                      #
                #                                                       #
                #     Directorship, Architecture, Infrastructure        #
                #                    SHARK, DRIVERS                     #
                #        Core code/Algorithms in most modules           #
                #                                                       #
                #        Max Planck Institute fuer Kohlenforschung      #
                #                Kaiser Wilhelm Platz 1                 #
                #                 D-45470 Muelheim/Ruhr                 #
                #                      Germany                          #
                #                                                       #
                #                  All rights reserved                  #
                #                        -***-                          #
                #########################################################


                         Program Version 6.1.0  -  RELEASE   -
                                (GIT: $679e74b$)
                          ($2025-06-10 18:02:51 +0200$)


 With contributions from (in alphabetic order):
[Max-Planck-Institut fuer Kohlenforschung]                               
  Daniel Aravena         : Magnetic Suceptibility                        
  Michael Atanasov       : Ab Initio Ligand Field Theory (pilot matlab implementation)
  Alexander A. Auer      : GIAO ZORA, VPT2 properties, NMR spectrum      
  Ute Becker             : All parallelization in ORCA, NUMFREQ, NUMCALC 
  Giovanni Bistoni       : ED, misc. LED, open-shell LED, HFLD           
  Dmytro Bykov           : pre 5.0 version of the SCF Hessian            
  Marcos Casanova-Páez   : Triplet and SCS-CIS(D). UHF-(DLPNO)-IP/EA/STEOM-CCSD. UHF-CVS-IP/STEOM-CCSD   
  Vijay G. Chilkuri      : MRCI spin determinant printing, contributions to CSF-ICE 
  Pauline Colinet        : FMM embedding                                 
  Dipayan Datta          : RHF DLPNO-CCSD density                        
  Achintya Kumar Dutta   : EOM-CC, STEOM-CC                              
  Nicolas Foglia         : Exact transition moments, OPA infrastructure, MCD improvements    
  Dmitry Ganyushin       : Spin-Orbit,Spin-Spin,Magnetic field MRCI      
  Miquel Garcia-Rates    : C-PCM and meta-GGA Hessian, CCSD/C-PCM, Gaussian charge scheme 
  Tiago L. C. Gouveia    : GS-ROHF, GS-ROCIS                             
  Yang Guo               : DLPNO-NEVPT2, F12-NEVPT2, CIM, IAO-localization        
  Andreas Hansen         : Spin unrestricted coupled pair/coupled cluster methods 
  Ingolf Harden          : AUTO-CI MPn and infrastructure                
  Benjamin Helmich-Paris : MC-RPA, TRAH-(SCF,CASSCF), AVAS, COSX integrals, SCF dyn. polar., MC-PDFT, srDFT 
  Lee Huntington         : MR-EOM, pCC                                   
  Robert Izsak           : Overlap fitted RIJCOSX, COSX-SCS-MP3, EOM     
  Riya Kayal             : Wick's Theorem for AUTO-CI, AUTO-CI UHF-CCSDT 
  Emily Kempfer          : AUTO-CI RHF CISDT and CCSDT, approximate NEVPT4
  Christian Kollmar      : KDIIS, OOCD, Brueckner-CCSD(T), CCSD density, CASPT2, CASPT2-K, improved NEVPT2 
  Axel Koslowski         : Symmetry handling                             
  Simone Kossmann        : meta-GGA functionals, TD-DFT gradient, OOMP2, (MP2 Hessian; deprecated post 5.0) 
  Lucas Lang             : DCDCAS, Hyperfine gauge corrections, ICE-SOC+SSC
  Marvin Lechner         : AUTO-CI (C++ implementation), FIC-MRCC        
  Spencer Leger          : CASSCF response                               
  Dagmar Lenk            : GEPOL surface, SMD, ORCA-2-JSON               
  Dimitrios Liakos       : Extrapolation schemes; Compound Job, Property file
  Dimitrios Manganas     : Further ROCIS development; embedding schemes. LFT, Crystal Embedding 
  Dimitrios Pantazis     : SARC Basis sets                               
  Anastasios Papadopoulos: AUTO-CI, single reference methods and gradients 
  Taras Petrenko         : pre 6.0 DFT Hessian and TD-DFT gradient,  ECA, NRVS 
  Petra Pikulova         : Analytic Raman intensities                    
  Peter Pinski           : DLPNO-MP2, DLPNO-MP2 Gradient                 
  Shashank Vittal Rao    : ES-AILFT, MagRelax                            
  Christoph Reimann      : Effective Core Potentials                     
  Marius Retegan         : Local ZFS, SOC                                
  Christoph Riplinger    : Optimizer, TS searches, QM/MM, DLPNO-CCSD(T), (RO)-DLPNO pert. Triples 
  Michael Roemelt        : Original ROCIS implementation, recursive CI coupling coefficients
  Masaaki Saitow         : Open-shell DLPNO-CCSD energy and density      
  Barbara Sandhoefer     : DKH picture change effects                    
  Yorick L. A. Schmerwitz: GMF and freeze-and-release deltaSCF, NEB S-IDPP initial path                    
  Kantharuban Sivalingam : CASSCF convergence/infrastructure, NEVPT2, NEVPT3, NEVPT4(SD), FIC-MRCI and CEPA variants
  Bernardo de Souza      : ESD, SOC TD-DFT                               
  Georgi L. Stoychev     : AutoAux, RI-MP2 NMR, DLPNO-MP2 response, X2C  
  Van Anh Tran           : RI-MP2 g-tensors                              
  Willem Van den Heuvel  : Paramagnetic NMR                              
  Zikuan Wang            : NOTCH, Electric field optimization            
  Frank Wennmohs         : Technical directorship and infrastructure     
  Hang Xu                : AUTO-CI-Response properties                   
                                                                         
[FACCTs GmbH]                                                            
  Markus Bursch, Nicolas Foglia, Miquel Garcia-Rates, Ingolf Harden, Hagen Neugebauer, Anastasios Papadopoulos, 
  Christoph Riplinger, Bernardo de Souza, Georgi L. Stoychev                                                    
                                                                 
  APM, various basis sets, CI-OPT, improved COSX, DLPNO-Multilevel,           
  DOCKER, DRACO, updates on ESD, Fragmentator, GOAT, IRC, LR-CPCM, L-BFGS, MBIS, meta-GGA TD-DFT gradient, ML-optimized integration grids, 
  MM, NACMEs, nearIR, NEB, NEB-TS, NL-DFT gradient (VV10), 2- and 3-layer-ONIOM, interface openCOSMO-RS, QMMM,   
  Crystal-QMMM, RESP, rigid body optimization, SF, symmetry and pop. for TD-DFT, various functionals, SOLVATOR                                   
                                                                         
[Other institutions]                                                     
  V. Asgeirsson          : NEB                                           
  Christoph Bannwarth    : sTDA-DFT, sTD-DFT, PBEh-3c, B97-3c, D3        
  Giovanni Bistoni       : ETS/NOCV, ADLD/ADEX, COVALED                  
  Martin Brehm           : Molecular dynamics                            
  Ronald Cardenas        : ETS/NOCV                                      
  Martina Colucci        : COVALED                                       
  Sebastian Ehlert       : rSCAN, r2SCAN, r2SCAN-3c, D4, dhf basis sets  
  Marvin Friede          : D4 for Fr, Ra, Ac-Lr                          
  Lars Goerigk           : TD-DFT with DH, B97 family of functionals     
  Stefan Grimme          : VdW corrections, initial TS optimization, DFT functionals, gCP, sTDA/sTD-DF 
  Waldemar Hujo          : DFT-NL                                        
  H. Jonsson             : NEB                                           
  Holger Kruse           : gCP                                           
  Marcel Mueller         : wB97X-3c, vDZP basis set                      
  Hagen Neugebauer       : wr2SCAN, Native XTB                           
  Gianluca Regni         : ADLD/ADEX                                     
  Tobias Risthaus        : pre 6.0 range-separated hybrid DFT and stability analysis
  Lukas Wittmann         : regularized MP2, r2SCAN double-hybrids, wr2SCAN        
                                                                         
We gratefully acknowledge several colleagues who have allowed us to      
interface, adapt or use parts of their codes:                            
  Ed Valeev, F. Pavosevic, A. Kumar             : LibInt (2-el integral package), F12 methods 
  Garnet Chan, S. Sharma, J. Yang, R. Olivares  : DMRG                   
  Ulf Ekstrom                                   : XCFun DFT Library      
  Mihaly Kallay                                 : mrcc  (arbitrary order and MRCC methods)
  Frank Weinhold                                : gennbo (NPA and NBO analysis)           
  Simon Mueller                                 : openCOSMO-RS                            
  Christopher J. Cramer and Donald G. Truhlar   : smd solvation model                     
  S Lehtola, MJT Oliveira, MAL Marques          : LibXC Library                           
  Liviu Ungur et al                             : ANISO software                          


 Your calculation uses the libint2 library for the computation of 2-el integrals
 For citations please refer to: http://libint.valeyev.net

 Your ORCA version has been built with support for libXC version: 7.0.0
 For citations please refer to: https://libxc.gitlab.io

 This ORCA versions uses:
   CBLAS   interface :  Fast vector & matrix operations
   LAPACKE interface :  Fast linear algebra routines
   SCALAPACK package :  Parallel linear algebra routines
   Shared memory     :  Shared parallel matrices
   BLAS/LAPACK       :  OpenBLAS 0.3.29  USE64BITINT DYNAMIC_ARCH NO_AFFINITY SkylakeX SINGLE_THREADED
        Core in use  :  SkylakeX
   Copyright (c) 2011-2014, The OpenBLAS Project


  ***********************************
  * Starting time: Thu Mar 12 13:07:44 2026
  * Host name:     midway3-login4.rcc.local
  * Process ID:    2930183
  * Working dir.:  /home/rzhu16/orca_TS_search/sn2_f_br/DFT_test
  ***********************************

Your calculation utilizes the geometrical counterpoise correction gCP
Please cite in your paper:
H.Kruse, S. Grimme J.Chem.Phys., 136, (2012), 154101 
   

Your calculation utilizes the atom-pairwise dispersion correction
based on EEQ partial charges (D4)


================================================================================

----- Orbital basis set information -----
Your calculation utilizes the basis: def2-mTZVPP
   Stefan Grimme, Andreas Hansen, Sebastian Ehlert, and Jan-Michael Mewes 
   J. Chem. Phys. 154, 064103 (2021). DOI: 10.1063/5.0040021

----- AuxJ basis set information -----
Your calculation utilizes the basis: def2-mTZVPP/J
   Stefan Grimme, Andreas Hansen, Sebastian Ehlert, and Jan-Michael Mewes 
   J. Chem. Phys. 154, 000000 (2021). DOI: 10.1063/5.0040021

================================================================================
                                        WARNINGS
                       Please study these warnings very carefully!
================================================================================



WARNING: SCAN, rSCAN, or r2SCAN functional requested.
  ===> : libXC variant has now been activated.



WARNING: Geometry Optimization
  ===> : Switching off AutoStart
         For restart on a previous wavefunction, please use MOREAD

================================================================================
                                       INPUT FILE
================================================================================
NAME = product_optfreq.inp
|  1> ! r2SCAN-3c Opt Freq PAL8 TightSCF
|  2> 
|  3> %pal
|  4>    nprocs 8
|  5> end
|  6> 
|  7> %scf
|  8>    MaxIter 150
|  9> end
| 10> 
| 11> * xyz -1 1
| 12>   C       0.344201      0.197788     -0.304970
| 13>   H       0.436049      1.279724     -0.254690
| 14>   H       1.328645     -0.260395     -0.256450
| 15>   H      -0.287491     -0.168792      0.539137
| 16>   F      -0.608068     -0.351381      2.158991
| 17>   Br     -0.346324     -0.200355     -2.089318
| 18> *
| 19> 
| 20>                          ****END OF INPUT****
================================================================================

                       *****************************
                       * Geometry Optimization Run *
                       *****************************

Geometry optimization settings:
Update method            Update   .... BFGS
Choice of coordinates    CoordSys .... (2022) Redundant Internals
Initial Hessian          InHess   .... Almloef's Model
Max. no of cycles        MaxIter  .... 50

Convergence Tolerances:
Energy Change            TolE     ....  5.0000e-06 Eh
Max. Gradient            TolMAXG  ....  3.0000e-04 Eh/bohr
RMS Gradient             TolRMSG  ....  1.0000e-04 Eh/bohr
Max. Displacement        TolMAXD  ....  4.0000e-03 bohr
RMS Displacement         TolRMSD  ....  2.0000e-03 bohr
Strict Convergence                .... False

------------------------------------------------------------------------------
                        ORCA OPTIMIZATION COORDINATE SETUP
------------------------------------------------------------------------------

The optimization will be done in redundant internal coordinates (2022)
Making redundant internal coordinates   ...  (2022 redundants) done
Evaluating the initial hessian          ...  (Almloef) done
Evaluating the coordinates              ...  done
Calculating the B-matrix                .... done
Calculating the G-matrix                .... done
The number of degrees of freedom        ....   15

    -----------------------------------------------------------------
                    Redundant Internal Coordinates


    -----------------------------------------------------------------
         Definition                    Initial Value    Approx d2E/dq
    -----------------------------------------------------------------
      1. B(H   1,C   0)                  1.0870         0.364102   
      2. B(H   2,C   0)                  1.0869         0.364185   
      3. B(H   3,C   0)                  1.1162         0.327040   
      4. B(F   4,H   3)                  1.6613         0.036739   
      5. B(Br  5,C   0)                  1.9543         0.264209   
      6. A(H   1,C   0,H   3)          109.8602         0.286982   
      7. A(H   1,C   0,H   2)          109.9368         0.291862   
      8. A(H   1,C   0,Br  5)          105.9543         0.325652   
      9. A(H   2,C   0,Br  5)          105.9561         0.325664   
     10. A(H   3,C   0,Br  5)          115.0617         0.319971   
     11. A(H   2,C   0,H   3)          109.8992         0.286993   
     12. A(C   0,H   3,F   4)          151.9623         0.204507   
     13. D(F   4,H   3,C   0,H   2)     60.8180         0.096227   
     14. D(F   4,H   3,C   0,Br  5)   -179.7091         0.096227   
     15. D(F   4,H   3,C   0,H   1)    -60.2675         0.096227   
    -----------------------------------------------------------------

Number of atoms                         .... 6
Number of degrees of freedom            .... 15


         *************************************************************
         *                GEOMETRY OPTIMIZATION CYCLE   1            *
         *************************************************************
---------------------------------
CARTESIAN COORDINATES (ANGSTROEM)
---------------------------------
  C      0.344201    0.197788   -0.304970
  H      0.436049    1.279724   -0.254690
  H      1.328645   -0.260395   -0.256450
  H     -0.287491   -0.168792    0.539137
  F     -0.608068   -0.351381    2.158991
  Br    -0.346324   -0.200355   -2.089318

----------------------------
CARTESIAN COORDINATES (A.U.)
----------------------------
  NO LB      ZA    FRAG     MASS         X           Y           Z
   0 C     6.0000    0    12.011    0.650446    0.373765   -0.576310
   1 H     1.0000    0     1.008    0.824013    2.418328   -0.481294
   2 H     1.0000    0     1.008    2.510775   -0.492075   -0.484620
   3 H     1.0000    0     1.008   -0.543279   -0.318971    1.018821
   4 F     9.0000    0    18.998   -1.149082   -0.664014    4.079902
   5 Br   35.0000    0    79.900   -0.654458   -0.378616   -3.948239

--------------------------------
INTERNAL COORDINATES (ANGSTROEM)
--------------------------------
 C      0   0   0     0.000000000000     0.00000000     0.00000000
 H      1   0   0     1.086991095456     0.00000000     0.00000000
 H      1   2   0     1.086929547406   109.93679338     0.00000000
 H      1   2   3     1.116213378666   109.86016797   121.06296501
 F      4   1   2     1.661335407787   151.96232851   299.73246017
 Br     1   2   3     1.954287698671   105.95429791   245.93095950

---------------------------
INTERNAL COORDINATES (A.U.)
---------------------------
 C      0   0   0     0.000000000000     0.00000000     0.00000000
 H      1   0   0     2.054115480422     0.00000000     0.00000000
 H      1   2   0     2.053999171465   109.93679338     0.00000000
 H      1   2   3     2.109337592698   109.86016797   121.06296501
 F      4   1   2     3.139468937303   151.96232851   299.73246017
 Br     1   2   3     3.693068537380   105.95429791   245.93095950

---------------------
BASIS SET INFORMATION
---------------------
There are 4 groups of distinct atoms

 Group   1 Type C   : 11s6p1d contracted to 5s3p1d pattern {62111/411/1}
 Group   2 Type H   : 4s1p contracted to 2s1p pattern {31/1}
 Group   3 Type F   : 11s6p2d contracted to 5s3p2d pattern {62111/411/11}
 Group   4 Type Br  : 17s13p7d contracted to 6s5p3d pattern {842111/64111/511}

Atom   0C    basis set group =>   1
Atom   1H    basis set group =>   2
Atom   2H    basis set group =>   2
Atom   3H    basis set group =>   2
Atom   4F    basis set group =>   3
Atom   5Br   basis set group =>   4
---------------------------------
AUXILIARY/J BASIS SET INFORMATION
---------------------------------
There are 4 groups of distinct atoms

 Group   1 Type C   : 8s3p3d contracted to 6s3p3d pattern {311111/111/111}
 Group   2 Type H   : 5s2p1d contracted to 3s1p1d pattern {311/2/1}
 Group   3 Type F   : 8s3p4d contracted to 6s3p4d pattern {311111/111/1111}
 Group   4 Type Br  : 19s5p5d3f1g contracted to 8s4p3d2f1g pattern {121111111/2111/311/21/1}

Atom   0C    basis set group =>   1
Atom   1H    basis set group =>   2
Atom   2H    basis set group =>   2
Atom   3H    basis set group =>   2
Atom   4F    basis set group =>   3
Atom   5Br   basis set group =>   4


           ************************************************************
           *        Program running with 8 parallel MPI-processes     *
           *              working on a common directory               *
           ************************************************************
------------------------------------------------------------------------------
                             ORCA STARTUP CALCULATIONS
                           -- RI-GTO INTEGRALS CHOSEN --
------------------------------------------------------------------------------
------------------------------------------------------------------------------
                   ___                                                        
                  /   \      - P O W E R E D   B Y -                         
                 /     \                                                     
                 |  |  |   _    _      __       _____    __    __             
                 |  |  |  | |  | |    /  \     |  _  \  |  |  /  |          
                  \  \/   | |  | |   /    \    | | | |  |  | /  /          
                 / \  \   | |__| |  /  /\  \   | |_| |  |  |/  /          
                |  |  |   |  __  | /  /__\  \  |    /   |      \           
                |  |  |   | |  | | |   __   |  |    \   |  |\   \          
                \     /   | |  | | |  |  |  |  | |\  \  |  | \   \       
                 \___/    |_|  |_| |__|  |__|  |_| \__\ |__|  \__/        
                                                                              
                      - O R C A' S   B I G   F R I E N D -                    
                                      &                                       
                       - I N T E G R A L  F E E D E R -                       
                                                                              
 v1 FN, 2020, v2 2021, v3 2022-2024                                           
------------------------------------------------------------------------------


----------------------
SHARK INTEGRAL PACKAGE
----------------------

Number of atoms                             ...      6
Number of basis functions                   ...     94
Number of shells                            ...     42
Maximum angular momentum                    ...      2
Integral batch strategy                     ... SHARK/LIBINT Hybrid
RI-J (if used) integral strategy            ... SPLIT-RIJ (Revised 2003 algorithm where possible)
Printlevel                                  ...      1
Contraction scheme used                     ... SEGMENTED contraction
Prescreening option                         ... SCHWARTZ
   Thresh                                   ... 2.500e-11
   Tcut                                     ... 2.500e-12
   Tpresel                                  ... 2.500e-12 
Coulomb Range Separation                    ... NOT USED
Exchange Range Separation                   ... NOT USED
Multipole approximations                    ... NOT USED
Finite Nucleus Model                        ... NOT USED
CABS basis                                  ... NOT available
Auxiliary Coulomb fitting basis             ... AVAILABLE
   # of basis functions in Aux-J            ...    156
   # of shells in Aux-J                     ...     58
   Maximum angular momentum in Aux-J        ...      4
Auxiliary J/K fitting basis                 ... NOT available
Auxiliary Correlation fitting basis         ... NOT available
Auxiliary 'external' fitting basis          ... NOT available

Checking pre-screening integrals            ... done (  0.0 sec) Dimension = 42
   => SHARK Basis and OBASIS are compatible. Storing Pre-screening
Shell pair information
Shell pair cut-off parameter TPreSel        ...   2.5e-12
Total number of shell pairs                 ...       903
Shell pairs after pre-screening             ...       823
Total number of primitive shell pairs       ...      4124
Primitive shell pairs kept                  ...      2892
          la=0 lb=0:    225 shell pairs
          la=1 lb=0:    281 shell pairs
          la=1 lb=1:    100 shell pairs
          la=2 lb=0:    119 shell pairs
          la=2 lb=1:     79 shell pairs
          la=2 lb=2:     19 shell pairs

Checking whether 4 symmetric matrices of dimension 94 fit in memory
:Max Core in MB      =   4096.00
 MB in use           =      4.40
 MB left             =   4091.60
 MB needed           =      0.14
 Data fit in memory  = YES
Calculating RI/J V-Matrix + Cholesky decomp.... done (  0.0 sec)
Calculating Nuclear repulsion               ... done (  0.0 sec) ENN=    144.065214990305 Eh

Diagonalization of the overlap matrix:
Smallest eigenvalue                        ... 5.422e-03
Time for diagonalization                   ...    0.001 sec
Threshold for overlap eigenvalues          ... 1.000e-07
Number of eigenvalues below threshold      ... 0
Time for construction of square roots      ...    0.001 sec
Total time needed                          ...    0.003 sec

-------------------
DFT GRID GENERATION
-------------------

General Integration Accuracy     IntAcc      ... 4.388
Radial Grid Type                 RadialGrid  ... OptM3 with GC (2021)
Angular Grid (max. ang.)         AngularGrid ... 4 (Lebedev-302)
Angular grid pruning method      GridPruning ... 4 (adaptive)
Weight generation scheme         WeightScheme... mBecke (2022)
Basis function cutoff            BFCut       ... 1.0000e-11
Integration weight cutoff        WCut        ... 1.0000e-14
Partially contracted basis set               ... off
Rotationally invariant grid construction     ... off
Angular grids for H and He will be reduced by one unit
Core-polarized basis detected: some atoms will have their core
                               angular grid increased.

Total number of grid points                  ...    33359
Total number of batches                      ...      524
Average number of points per batch           ...       63
Average number of grid points per atom       ...     5560
Grids setup in   0.5 sec
Initializing property integral containers    ... done (  0.0 sec)

SHARK setup successfully completed in   0.7 seconds

Maximum memory used throughout the entire STARTUP-calculation: 13.2 MB


           ************************************************************
           *        Program running with 8 parallel MPI-processes     *
           *              working on a common directory               *
           ************************************************************
-------------------------------------------------------------------------------
                                 ORCA GUESS
                   Start orbitals & Density for SCF / CASSCF
-------------------------------------------------------------------------------

------------
SCF SETTINGS
------------
Hamiltonian:
 Density Functional     Method          .... DFT(GTOs)
  Functional kind                       .... Exchange
  Functional name                       .... Re-regularized SCAN exchange by Furness et al
  Functional family                     .... MGGA
  Functional refs                              
    [ 0] J. W. Furness, A. D. Kaplan, J. Ning, J. P. Perdew, and J. Sun.,  J. Phys. Chem. Lett. 11, 8208-8215 (2020), doi: 10.1021/acs.jpclett.0c02405
    [ 1] J. W. Furness, A. D. Kaplan, J. Ning, J. P. Perdew, and J. Sun.,  J. Phys. Chem. Lett. 11, 9248-9248 (2020), doi: 10.1021/acs.jpclett.0c03077
  Functional external parameters        .... 6
    Parameter  0 _c1        =  6.670000e-01 : c1 parameter        
    Parameter  1 _c2        =  8.000000e-01 : c2 parameter        
    Parameter  2 _d         =  1.240000e+00 : d parameter         
    Parameter  3 _k1        =  6.500000e-02 : k1 parameter        
    Parameter  4 _eta       =  1.000000e-03 : eta parameter       
    Parameter  5 _dp2       =  3.610000e-01 : dp2 parameter       
  Functional kind                       .... Correlation
  Functional name                       .... Re-regularized SCAN correlation by Furness et al
  Functional family                     .... MGGA
  Functional refs                              
    [ 0] J. W. Furness, A. D. Kaplan, J. Ning, J. P. Perdew, and J. Sun.,  J. Phys. Chem. Lett. 11, 8208-8215 (2020), doi: 10.1021/acs.jpclett.0c02405
    [ 1] J. W. Furness, A. D. Kaplan, J. Ning, J. P. Perdew, and J. Sun.,  J. Phys. Chem. Lett. 11, 9248-9248 (2020), doi: 10.1021/acs.jpclett.0c03077
  Functional external parameters        .... 1
    Parameter  0 _eta       =  1.000000e-03 : Regularization parameter
 Gradients option       PostSCFGGA      .... off
 RI-approximation to the Coulomb term is turned on
   Number of AuxJ basis functions       .... 156


General Settings:
 Integral files         IntName         .... product_optfreq
 Hartree-Fock type      HFTyp           .... RHF
 Total Charge           Charge          ....   -1
 Multiplicity           Mult            ....    1
 Number of Electrons    NEL             ....   54
 Basis Dimension        Dim             ....   94
 Nuclear Repulsion      ENuc            ....    144.0652149903 Eh

Convergence Acceleration:
 AO-DIIS                CNVDIIS         .... on
   Start iteration      DIISMaxIt       ....    12
   Startup error        DIISStart       ....  0.200000
   # of expansion vecs  DIISMaxEq       ....     5
   Bias factor          DIISBfac        ....   1.050
   Max. coefficient     DIISMaxC        ....  10.000
 MO-DIIS                CNVKDIIS        .... off
 Trust-Rad. Augm. Hess. CNVTRAH         .... auto
   Auto Start mean grad. ratio tolernc. ....  1.125000
   Auto Start start iteration           ....    50
   Auto Start num. interpolation iter.  ....    10
   Max. Number of Micro iterations      ....    24
   Max. Number of Macro iterations      .... Maxiter - #DIIS iter
   Number of Davidson start vectors     ....     2
   Converg. threshold    (grad. norm)   ....   1.000e-05
   Grad. Scal. Fac. for Micro threshold ....   0.100
   Minimum threshold for Micro iter.    ....   1.000e-02
   NR start threshold (gradient norm)   ....   1.000e-04
   Initial trust radius                 ....   0.400
   Minimum AH scaling param. (alpha)    ....   1.000
   Maximum AH scaling param. (alpha)    .... 1000.000
   Quad. conv. algorithm                .... NR
   White noise on init. David. guess    .... on
   Maximum white noise                  ....   0.010
   Pseudo random numbers                .... off
   Inactive MOs                         .... canonical
   Orbital update algorithm             .... Taylor
   Preconditioner                       .... Diag
   Full preconditioner red. dimension   ....   250
   COSX micro iterations for RIJONX calc.... off
 SOSCF                 CNVSOSCF           .... on
   Start iteration     SOSCFMaxIt         ....   150
   Startup grad/error  SOSCFStart         ....  0.003300
   Hessian update      SOSCFHessUp        .... L-BFGS
   Autom. constraints  SOSCFAutoConstrain .... off
 Level Shifting         CNVShift        .... on
   Level shift para.    LevelShift      ....    0.2500
   Turn off err/grad.   ShiftErr        ....    0.0010
 Zerner damping         CNVZerner       .... off
 Static damping         CNVDamp         .... on
   Fraction old density DampFac         ....    0.7000
   Max. Damping (<1)    DampMax         ....    0.9800
   Min. Damping (>=0)   DampMin         ....    0.0000
   Turn off err/grad.   DampErr         ....    0.1000

SCF Procedure:
 Maximum # iterations   MaxIter         ....   150
 SCF integral mode      SCFMode         .... Direct
   Integral package                     .... SHARK and LIBINT hybrid scheme
 Reset frequency        DirectResetFreq ....    20
 Integral Threshold     Thresh          ....  2.500e-11 Eh
 Primitive CutOff       TCut            ....  2.500e-12 Eh

Convergence Tolerance:
 Convergence Check Mode ConvCheckMode   .... Total+1el-Energy
 Convergence forced     ConvForced      .... 0
 Energy Change          TolE            ....  1.000e-08 Eh
 1-El. energy change                    ....  1.000e-05 Eh
 Orbital Gradient       TolG            ....  1.000e-05
 Orbital Rotation angle TolX            ....  1.000e-05
 DIIS Error             TolErr          ....  5.000e-07

------------------------------
INITIAL GUESS: MODEL POTENTIAL
------------------------------
Loading Hartree-Fock densities                     ... done
Calculating cut-offs                               ... done
Initializing the effective Hamiltonian             ... done
Setting up the integral package (SHARK)            ... done
Starting the Coulomb interaction                   ... done (   0.1 sec)
Making the grid                                    ... done (   0.4 sec)
Mapping shells                                     ... done
Starting the XC term evaluation                    ... done (   0.0 sec)
  promolecular density results
     # of electrons  =     52.997925367
     EX              =   -105.184005955
     EC              =     -2.294813089
     EX+EC           =   -107.478819044
Transforming the Hamiltonian                       ... done (   0.0 sec)
Diagonalizing the Hamiltonian                      ... done (   0.0 sec)
Back transforming the eigenvectors                 ... done (   0.0 sec)
Now organizing SCF variables                       ... done
                      ------------------
                      INITIAL GUESS DONE (   0.6 sec)
                      ------------------
             **** ENERGY FILE WAS UPDATED (product_optfreq.en.tmp) ****
Finished Guess after   1.1 sec
Maximum memory used throughout the entire GUESS-calculation: 7.2 MB


           ************************************************************
           *        Program running with 8 parallel MPI-processes     *
           *              working on a common directory               *
           ************************************************************

-------------------------------------------------------------------------------------------
                                      ORCA LEAN-SCF
                              memory conserving SCF solver
-------------------------------------------------------------------------------------------

----------------------------------------D-I-I-S--------------------------------------------
Iteration    Energy (Eh)           Delta-E    RMSDP     MaxDP     DIISErr   Damp  Time(sec)
-------------------------------------------------------------------------------------------
               ***  Starting incremental Fock matrix formation  ***
    1    -2713.7268405101031021     0.00e+00  1.33e-02  7.33e-02  3.79e-01  0.700   0.6
Warning: op=0 Small HOMO/LUMO gap (   0.057) - skipping pre-diagonalization
         Will do a full diagonalization
    2    -2713.8147380834116120    -8.79e-02  9.47e-03  3.27e-02  1.19e-01  0.700   0.3
                               ***Turning on AO-DIIS***
    3    -2713.8425706383486613    -2.78e-02  4.27e-03  2.31e-02  2.49e-02  0.700   0.2
    4    -2713.8599062190733093    -1.73e-02  7.33e-03  4.99e-02  1.71e-02  0.000   0.4
    5    -2713.9014739587037184    -4.16e-02  2.30e-03  1.14e-02  9.96e-03  0.000   0.3
                              *** Initializing SOSCF ***
---------------------------------------S-O-S-C-F--------------------------------------
Iteration    Energy (Eh)           Delta-E    RMSDP     MaxDP     MaxGrad    Time(sec)
--------------------------------------------------------------------------------------
    6    -2713.9021960600175589    -7.22e-04  1.01e-03  5.00e-03  3.27e-03     0.3
               *** Restarting incremental Fock matrix formation ***
    7    -2713.9023253348705111    -1.29e-04  1.72e-03  7.78e-03  2.05e-03     0.5
    8    -2713.9023547655333459    -2.94e-05  5.27e-04  2.84e-03  2.37e-03     0.5
    9    -2713.9023722573701889    -1.75e-05  5.09e-04  2.24e-03  1.54e-03     0.5
   10    -2713.9023868283011325    -1.46e-05  1.23e-04  5.47e-04  2.94e-04     0.4
   11    -2713.9023874323629570    -6.04e-07  4.83e-05  2.07e-04  2.22e-04     0.2
   12    -2713.9023876741539425    -2.42e-07  3.36e-05  1.86e-04  8.71e-05     0.2
   13    -2713.9023877618074039    -8.77e-08  9.88e-06  6.59e-05  7.26e-05     0.2
   14    -2713.9023877809904661    -1.92e-08  5.14e-06  2.15e-05  1.46e-05     0.3
   15    -2713.9023877808285761     1.62e-10  1.89e-06  1.07e-05  4.52e-06     0.2
                 **** Energy Check signals convergence ****

               *****************************************************
               *                     SUCCESS                       *
               *           SCF CONVERGED AFTER  15 CYCLES          *
               *****************************************************

             **** ENERGY FILE WAS UPDATED (product_optfreq.en.tmp) ****

----------------
TOTAL SCF ENERGY
----------------

Total Energy       :      -2713.90238778217645 Eh          -73849.03838 eV

Components:
Nuclear Repulsion  :        144.06521499030464 Eh            3920.21380 eV
Electronic Energy  :      -2857.96760277248086 Eh          -77769.25218 eV
One Electron Energy:      -4073.44779271172820 Eh         -110844.14965 eV
Two Electron Energy:       1215.48018993924711 Eh           33074.89746 eV

Virial components:
Potential Energy   :      -5423.97312670927568 Eh         -147593.81230 eV
Kinetic Energy     :       2710.07073892709923 Eh           73744.77392 eV
Virial Ratio       :          2.00141385566068

DFT components:
N(Alpha)           :       26.999995228368 electrons
N(Beta)            :       26.999995228368 electrons
N(Total)           :       53.999990456735 electrons
E(X)               :     -106.166265240616 Eh       
E(C)               :       -2.328407056881 Eh       
E(XC)              :     -108.494672297497 Eh       

---------------
SCF CONVERGENCE
---------------

  Last Energy change         ...   -1.6189e-10  Tolerance :   1.0000e-08
  Last MAX-Density change    ...    1.0741e-05  Tolerance :   1.0000e-07
  Last RMS-Density change    ...    1.8916e-06  Tolerance :   5.0000e-09
  Last DIIS Error            ...    3.2655e-03  Tolerance :   5.0000e-07
  Last Orbital Gradient      ...    4.5234e-06  Tolerance :   1.0000e-05
  Last Orbital Rotation      ...    9.8933e-06  Tolerance :   1.0000e-05


----------------
ORBITAL ENERGIES
----------------

  NO   OCC          E(Eh)            E(eV) 
   0   2.0000    -482.062999    -13117.6011 
   1   2.0000     -62.135137     -1690.7830 
   2   2.0000     -55.916170     -1521.5563 
   3   2.0000     -55.912639     -1521.4602 
   4   2.0000     -55.912564     -1521.4582 
   5   2.0000     -24.064849      -654.8378 
   6   2.0000      -9.893376      -269.2125 
   7   2.0000      -8.467188      -230.4039 
   8   2.0000      -6.273425      -170.7086 
   9   2.0000      -6.261673      -170.3888 
  10   2.0000      -6.261534      -170.3850 
  11   2.0000      -2.371330       -64.5272 
  12   2.0000      -2.368541       -64.4513 
  13   2.0000      -2.368409       -64.4477 
  14   2.0000      -2.359448       -64.2039 
  15   2.0000      -2.359440       -64.2036 
  16   2.0000      -0.698934       -19.0189 
  17   2.0000      -0.604214       -16.4415 
  18   2.0000      -0.459220       -12.4960 
  19   2.0000      -0.235849        -6.4178 
  20   2.0000      -0.211719        -5.7612 
  21   2.0000      -0.200578        -5.4580 
  22   2.0000      -0.103055        -2.8043 
  23   2.0000      -0.100901        -2.7457 
  24   2.0000       0.017635         0.4799 
  25   2.0000       0.018727         0.5096 
  26   2.0000       0.019241         0.5236 
  27   0.0000       0.140195         3.8149 
  28   0.0000       0.262976         7.1559 
  29   0.0000       0.328607         8.9419 
  30   0.0000       0.337549         9.1852 
  31   0.0000       0.363746         9.8980 
  32   0.0000       0.373341        10.1591 
  33   0.0000       0.374490        10.1904 
  34   0.0000       0.405759        11.0413 
  35   0.0000       0.426720        11.6116 
  36   0.0000       0.466046        12.6817 
  37   0.0000       0.544333        14.8120 
*Only the first 10 virtual orbitals were printed.

                    ********************************
                    * MULLIKEN POPULATION ANALYSIS *
                    ********************************

-----------------------
MULLIKEN ATOMIC CHARGES
-----------------------
   0 C :   -0.403323
   1 H :    0.124972
   2 H :    0.124773
   3 H :    0.332379
   4 F :   -0.852346
   5 Br:   -0.326455
Sum of atomic charges:   -1.0000000

--------------------------------
MULLIKEN REDUCED ORBITAL CHARGES
--------------------------------
  0 C s       :     3.316423  s :     3.316423
      pz      :     0.850260  p :     3.061987
      px      :     1.131103
      py      :     1.080624
      dz2     :     0.008415  d :     0.024913
      dxz     :     0.004703
      dyz     :     0.002881
      dx2y2   :     0.006117
      dxy     :     0.002797

  1 H s       :     0.856196  s :     0.856196
      pz      :     0.003426  p :     0.018832
      px      :     0.004106
      py      :     0.011300

  2 H s       :     0.856392  s :     0.856392
      pz      :     0.003424  p :     0.018835
      px      :     0.010149
      py      :     0.005263

  3 H s       :     0.641910  s :     0.641910
      pz      :     0.016066  p :     0.025711
      px      :     0.005729
      py      :     0.003916

  4 F s       :     3.991382  s :     3.991382
      pz      :     1.909291  p :     5.858949
      px      :     1.969711
      py      :     1.979947
      dz2     :     0.001560  d :     0.002015
      dxz     :     0.000256
      dyz     :     0.000180
      dx2y2   :     0.000009
      dxy     :     0.000010

  5 Brs       :     7.951674  s :     7.951674
      pz      :     5.453711  p :    17.329496
      px      :     5.908582
      py      :     5.967203
      dz2     :     2.018853  d :    10.045284
      dxz     :     2.012058
      dyz     :     2.009761
      dx2y2   :     2.002586
      dxy     :     2.002026



                     *******************************
                     * LOEWDIN POPULATION ANALYSIS *
                     *******************************

----------------------
LOEWDIN ATOMIC CHARGES
----------------------
   0 C :   -0.551268
   1 H :    0.133865
   2 H :    0.133756
   3 H :    0.224219
   4 F :   -0.867124
   5 Br:   -0.073448

-------------------------------
LOEWDIN REDUCED ORBITAL CHARGES
-------------------------------
  0 C s       :     3.114831  s :     3.114831
      pz      :     0.999679  p :     3.379524
      px      :     1.197855
      py      :     1.181990
      dz2     :     0.018618  d :     0.056913
      dxz     :     0.010413
      dyz     :     0.005803
      dx2y2   :     0.015090
      dxy     :     0.006988

  1 H s       :     0.820539  s :     0.820539
      pz      :     0.007518  p :     0.045596
      px      :     0.009553
      py      :     0.028526

  2 H s       :     0.820642  s :     0.820642
      pz      :     0.007512  p :     0.045603
      px      :     0.025814
      py      :     0.012276

  3 H s       :     0.689987  s :     0.689987
      pz      :     0.055939  p :     0.085794
      px      :     0.018807
      py      :     0.011049

  4 F s       :     3.974313  s :     3.974313
      pz      :     1.912905  p :     5.870696
      px      :     1.973702
      py      :     1.984090
      dz2     :     0.017057  d :     0.022115
      dxz     :     0.003397
      dyz     :     0.001400
      dx2y2   :     0.000122
      dxy     :     0.000139

  5 Brs       :     7.728875  s :     7.728875
      pz      :     5.446099  p :    17.279586
      px      :     5.890318
      py      :     5.943169
      dz2     :     2.030338  d :    10.064987
      dxz     :     2.016867
      dyz     :     2.012012
      dx2y2   :     2.003083
      dxy     :     2.002687



                      *****************************
                      * MAYER POPULATION ANALYSIS *
                      *****************************

  NA   - Mulliken gross atomic population
  ZA   - Total nuclear charge
  QA   - Mulliken gross atomic charge
  VA   - Mayer's total valence
  BVA  - Mayer's bonded valence
  FA   - Mayer's free valence

  ATOM       NA         ZA         QA         VA         BVA        FA
  0 C      6.4033     6.0000    -0.4033     3.7286     3.7286     0.0000
  1 H      0.8750     1.0000     0.1250     0.9639     0.9639     0.0000
  2 H      0.8752     1.0000     0.1248     0.9639     0.9639     0.0000
  3 H      0.6676     1.0000     0.3324     0.9156     0.9156    -0.0000
  4 F      9.8523     9.0000    -0.8523     0.2446     0.2446    -0.0000
  5 Br    35.3265    35.0000    -0.3265     0.8894     0.8894    -0.0000

  Mayer bond orders larger than 0.100000
B(  0-C ,  1-H ) :   0.9712 B(  0-C ,  2-H ) :   0.9712 B(  0-C ,  3-H ) :   0.8121 
B(  0-C ,  4-F ) :   0.1208 B(  0-C ,  5-Br) :   0.8533 B(  3-H ,  4-F ) :   0.1021 


-------
TIMINGS
-------

Total SCF time: 0 days 0 hours 0 min 5 sec 

Total time                  ....       5.909 sec
Sum of individual times     ....       5.547 sec  ( 93.9%)

SCF preparation             ....       0.583 sec  (  9.9%)
Fock matrix formation       ....       4.014 sec  ( 67.9%)
  Startup                   ....       0.029 sec  (  0.7% of F)
  Split-RI-J                ....       0.981 sec  ( 24.4% of F)
  XC integration            ....       2.895 sec  ( 72.1% of F)
    XC Preparation          ....       0.000 sec  (  0.0% of XC)
    Basis function eval.    ....       0.587 sec  ( 20.3% of XC)
    Density eval.           ....       0.138 sec  (  4.8% of XC)
    XC-Functional eval.     ....       0.633 sec  ( 21.9% of XC)
    XC-Potential eval.      ....       0.329 sec  ( 11.4% of XC)
Diagonalization             ....       0.000 sec  (  0.0%)
Density matrix formation    ....       0.156 sec  (  2.6%)
Total Energy calculation    ....       0.106 sec  (  1.8%)
Population analysis         ....       0.010 sec  (  0.2%)
Orbital Transformation      ....       0.013 sec  (  0.2%)
Orbital Orthonormalization  ....       0.000 sec  (  0.0%)
DIIS solution               ....       0.147 sec  (  2.5%)
SOSCF solution              ....       0.519 sec  (  8.8%)
Finished LeanSCF after   6.0 sec

Maximum memory used throughout the entire LEANSCF-calculation: 6.4 MB


           ************************************************************
           *        Program running with 8 parallel MPI-processes     *
           *              working on a common directory               *
           ************************************************************

------------------------------------------------------------------------------
                         ORCA PROPERTY INTEGRAL CALCULATIONS
------------------------------------------------------------------------------

GBWName                                   ... product_optfreq.gbw
Number of atoms                           ...      6
Number of basis functions                 ...     94
Max core memory                           ...   4096 MB

Dipole integrals                          ... YES
Quadrupole integrals                      ...  NO
Linear momentum integrals                 ...  NO
Angular momentum integrals                ...  NO
Higher moments length integrals           ...  NO
Higher moments velocity integrals         ...  NO
Kinetic energy integrals                  ...  NO
GIAO right hand sides                     ...  NO
GIAO dipole derivative integrals          ...  NO
SOC integrals                             ...  NO
EPR diamagnetic integrals (GIAO)          ...  NO
EPR gauge integrals                       ...  NO
Field gradient integrals                  ...  NO (   0 nuclei)
Spin-dipole/Fermi contact integrals       ...  NO (   0 nuclei)
Contact density integrals                 ...  NO (   0 nuclei)
Nucleus-orbit integrals                   ...  NO (   0 nuclei)
Geometric perturbations                   ...  NO (   6 nuclei)

Choice of electric origin   ... Center of mass
Position of electric origin ... ( -0.5573, -0.3226, -2.1488) 
Choice of magnetic origin   ... GIAO
Position of magnetic origin ... (  0.0000,  0.0000,  0.0000) 

Calculating integrals                     ... Electric Dipole (Length)     done (  0.0 sec)

Property integrals calculated in   0.0 sec

Maximum memory used throughout the entire PROPINT-calculation: 7.0 MB


-------------------------------------------------------------------------------
                          DFT DISPERSION CORRECTION                            
                                                                               
                                DFTD4 V3.4.0                                   
-------------------------------------------------------------------------------
The R2SCAN3C composite method is recognized
Using three-body term ABC
Active option DFTDOPT                   ...         5   

-------------------------   ----------------
Dispersion correction           -0.000858777
-------------------------   ----------------

------------------   -----------------
gCP correction             0.004579277
------------------   -----------------

-------------------------   --------------------
FINAL SINGLE POINT ENERGY     -2713.898667282244
-------------------------   --------------------



           ************************************************************
           *        Program running with 8 parallel MPI-processes     *
           *              working on a common directory               *
           ************************************************************
------------------------------------------------------------------------------
                         ORCA SCF GRADIENT CALCULATION
------------------------------------------------------------------------------

Nuc. rep. gradient        (SHARK) ... done (  0.0 sec)
HCore & Overlap gradient  (SHARK) ... done (  0.0 sec)
Split-RIJ-J gradient      (SHARK) ... done (  1.1 sec)
XC gradient                       ... done (  0.6 sec)
Dispersion correction             ... done (  0.1 sec)

-------------------
DISPERSION GRADIENT
-------------------

   1   C   :    0.000007595    0.000004383    0.000002844
   2   H   :    0.000001223    0.000000839   -0.000003639
   3   H   :    0.000001351    0.000000638   -0.000003650
   4   H   :   -0.000000079   -0.000000036    0.000003545
   5   F   :   -0.000008474   -0.000004894    0.000042596
   6   Br  :   -0.000001616   -0.000000930   -0.000041696

Difference to translation invariance:
           :   -0.0000000000   -0.0000000000   -0.0000000000

Difference to rotation invariance:
           :    0.0000000000   -0.0000000000   -0.0000000000

Norm of the Dispersion gradient    ...    0.0000614882
RMS gradient                       ...    0.0000144929
MAX gradient                       ...    0.0000425963
gCP correction                   ... done

------------------
CARTESIAN GRADIENT
------------------

   1   C   :   -0.008720943   -0.005089774   -0.011105745
   2   H   :   -0.000435004   -0.002682204    0.000755455
   3   H   :   -0.002595295    0.000974878    0.000763933
   4   H   :    0.005996668    0.003449547   -0.008819904
   5   F   :   -0.000414206   -0.000226047    0.003128030
   6   Br  :    0.006168780    0.003573601    0.015278232

Difference to translation invariance:
           :    0.0000000000    0.0000000000    0.0000000003

Difference to rotation invariance:
           :    0.0000171719    0.0000416203   -0.0000183742

Norm of the Cartesian gradient     ...    0.0257182444
RMS gradient                       ...    0.0060618483
MAX gradient                       ...    0.0152782316

-------
TIMINGS
-------

Total SCF gradient time     ....        1.890 sec

Densities                   ....       0.000 sec  (  0.0%)
One electron gradient       ....       0.009 sec  (  0.5%)
RI-J Coulomb gradient       ....       1.078 sec  ( 57.0%)
XC gradient                 ....       0.604 sec  ( 31.9%)

Maximum memory used throughout the entire SCFGRAD-calculation: 26.7 MB
------------------------------------------------------------------------------
                         ORCA GEOMETRY RELAXATION STEP
------------------------------------------------------------------------------

Reading the OPT-File                    .... done
Getting information on internals        .... done
Copying old internal coords+grads       .... done
Making the new internal coordinates     .... (2022 redundants) done
Validating the new internal coordinates .... (2022 redundants) done
Calculating the B-matrix                .... done
Calculating the G,G- and P matrices     .... done
Transforming gradient to internals      .... done
Projecting the internal gradient        .... done
Number of atoms                         ....   6
Number of internal coordinates          ....  15
Current Energy                          .... -2713.898667282 Eh
Current gradient norm                   ....     0.025718244 Eh/bohr
Maximum allowed component of the step   ....  0.300
Current trust radius                    ....  0.300
Evaluating the initial hessian          ....  (Almloef) done
Projecting the Hessian                  .... done
Forming the augmented Hessian           .... done
Diagonalizing the augmented Hessian     .... done
Last element of RFO vector              ....  0.994215889
Lowest eigenvalues of augmented Hessian:
 -0.001616522  0.036996490  0.096227402  0.204509044  0.220280744
Length of the computed step             ....  0.108024856
The final length of the internal step   ....  0.108024856
Converting the step to Cartesian space:
 Initial RMS(Int)=    0.0278918978
Transforming coordinates:
 Iter   0:  RMS(Cart)=    0.0193252464 RMS(Int)=    0.0278958583
done
Storing new coordinates                 .... done

                                .--------------------.
          ----------------------|Geometry convergence|-------------------------
          Item                value                   Tolerance       Converged
          ---------------------------------------------------------------------
          RMS gradient        0.0050904235            0.0001000000      NO
          MAX gradient        0.0168577638            0.0003000000      NO
          RMS step            0.0278918978            0.0020000000      NO
          MAX step            0.0822388108            0.0040000000      NO
          -------------------------------------------------------------------------
          ........................................................
          Max(Bonds)      0.0435      Max(Angles)    0.30
          Max(Dihed)        0.15      Max(Improp)    0.00
          ---------------------------------------------------------------------

The optimization has not yet converged - more geometry cycles are needed


    ---------------------------------------------------------------------------
                         Redundant Internal Coordinates
                            (Angstroem and degrees)

        Definition                    Value    dE/dq     Step     New-Value
    ----------------------------------------------------------------------------
     1. B(H   1,C   0)                1.0870 -0.002671  0.0039    1.0909   
     2. B(H   2,C   0)                1.0869 -0.002727  0.0039    1.0909   
     3. B(H   3,C   0)                1.1162 -0.008521  0.0137    1.1299   
     4. B(F   4,H   3)                1.6613  0.003154 -0.0435    1.6178   
     5. B(Br  5,C   0)                1.9543 -0.016858  0.0336    1.9878   
     6. A(H   1,C   0,H   3)          109.86 -0.001299    0.26    110.12   
     7. A(H   1,C   0,H   2)          109.94  0.000366   -0.02    109.91   
     8. A(H   1,C   0,Br  5)          105.95  0.000422   -0.11    105.85   
     9. A(H   2,C   0,Br  5)          105.96  0.000441   -0.11    105.84   
    10. A(H   3,C   0,Br  5)          115.06  0.001487   -0.30    114.76   
    11. A(H   2,C   0,H   3)          109.90 -0.001302    0.26    110.16   
    12. A(C   0,H   3,F   4)          151.96 -0.000728    0.20    152.16   
    13. D(F   4,H   3,C   0,H   2)     60.82 -0.000605    0.15     60.97   
    14. D(F   4,H   3,C   0,Br  5)   -179.71  0.000012   -0.00   -179.71   
    15. D(F   4,H   3,C   0,H   1)    -60.27  0.000605   -0.15    -60.42   
    ----------------------------------------------------------------------------

Geometry step timings:
Preparation and reading OPT file:      0.000 s ( 2.691 %)
Internal coordinates            :      0.000 s ( 3.418 %)
B/P matrices and projection     :      0.000 s (10.691 %)
Hessian update/contruction      :      0.001 s (39.855 %)
Making the step                 :      0.000 s ( 9.964 %)
Converting the step to Cartesian:      0.000 s ( 3.273 %)
Storing new data                :      0.000 s ( 6.327 %)
Checking convergence            :      0.000 s ( 4.291 %)
Final printing                  :      0.000 s (19.055 %)
Total time                      :      0.001 s

Time for energy+gradient        :     12.672 s
Time for complete geometry iter :     13.575 s

         *************************************************************
         *                GEOMETRY OPTIMIZATION CYCLE   2            *
         *************************************************************
---------------------------------
CARTESIAN COORDINATES (ANGSTROEM)
---------------------------------
  C      0.348729    0.200450   -0.294908
  H      0.441541    1.286424   -0.250026
  H      1.337187   -0.259005   -0.251794
  H     -0.290810   -0.170655    0.559506
  F     -0.607921   -0.351355    2.135614
  Br    -0.361714   -0.209269   -2.105691

----------------------------
CARTESIAN COORDINATES (A.U.)
----------------------------
  NO LB      ZA    FRAG     MASS         X           Y           Z
   0 C     6.0000    0    12.011    0.659002    0.378795   -0.557295
   1 H     1.0000    0     1.008    0.834391    2.430988   -0.472482
   2 H     1.0000    0     1.008    2.526918   -0.489449   -0.475822
   3 H     1.0000    0     1.008   -0.549551   -0.322491    1.057312
   4 F     9.0000    0    18.998   -1.148804   -0.663965    4.035726
   5 Br   35.0000    0    79.900   -0.683540   -0.395462   -3.979179

--------------------------------
INTERNAL COORDINATES (ANGSTROEM)
--------------------------------
 C      0   0   0     0.000000000000     0.00000000     0.00000000
 H      1   0   0     1.090856280758     0.00000000     0.00000000
 H      1   2   0     1.090874962542   109.91191574     0.00000000
 H      1   2   3     1.129933721943   110.12108342   121.53994928
 F      4   1   2     1.617816503447   152.16476446   299.57792211
 Br     1   2   3     1.987846354026   105.84737923   246.12838639

---------------------------
INTERNAL COORDINATES (A.U.)
---------------------------
 C      0   0   0     0.000000000000     0.00000000     0.00000000
 H      1   0   0     2.061419622101     0.00000000     0.00000000
 H      1   2   0     2.061454925556   109.91191574     0.00000000
 H      1   2   3     2.135265283954   110.12108342   121.53994928
 F      4   1   2     3.057230126454   152.16476446   299.57792211
 Br     1   2   3     3.756485205422   105.84737923   246.12838639



           ************************************************************
           *        Program running with 8 parallel MPI-processes     *
           *              working on a common directory               *
           ************************************************************
------------------------------------------------------------------------------
                   ___                                                        
                  /   \      - P O W E R E D   B Y -                         
                 /     \                                                     
                 |  |  |   _    _      __       _____    __    __             
                 |  |  |  | |  | |    /  \     |  _  \  |  |  /  |          
                  \  \/   | |  | |   /    \    | | | |  |  | /  /          
                 / \  \   | |__| |  /  /\  \   | |_| |  |  |/  /          
                |  |  |   |  __  | /  /__\  \  |    /   |      \           
                |  |  |   | |  | | |   __   |  |    \   |  |\   \          
                \     /   | |  | | |  |  |  |  | |\  \  |  | \   \       
                 \___/    |_|  |_| |__|  |__|  |_| \__\ |__|  \__/        
                                                                              
                      - O R C A' S   B I G   F R I E N D -                    
                                      &                                       
                       - I N T E G R A L  F E E D E R -                       
                                                                              
 v1 FN, 2020, v2 2021, v3 2022-2024                                           
------------------------------------------------------------------------------


----------------------
SHARK INTEGRAL PACKAGE
----------------------

Number of atoms                             ...      6
Number of basis functions                   ...     94
Number of shells                            ...     42
Maximum angular momentum                    ...      2
Integral batch strategy                     ... SHARK/LIBINT Hybrid
RI-J (if used) integral strategy            ... SPLIT-RIJ (Revised 2003 algorithm where possible)
Printlevel                                  ...      1
Contraction scheme used                     ... SEGMENTED contraction
Prescreening option                         ... SCHWARTZ
   Thresh                                   ... 2.500e-11
   Tcut                                     ... 2.500e-12
   Tpresel                                  ... 2.500e-12 
Coulomb Range Separation                    ... NOT USED
Exchange Range Separation                   ... NOT USED
Multipole approximations                    ... NOT USED
Finite Nucleus Model                        ... NOT USED
CABS basis                                  ... NOT available
Auxiliary Coulomb fitting basis             ... AVAILABLE
   # of basis functions in Aux-J            ...    156
   # of shells in Aux-J                     ...     58
   Maximum angular momentum in Aux-J        ...      4
Auxiliary J/K fitting basis                 ... NOT available
Auxiliary Correlation fitting basis         ... NOT available
Auxiliary 'external' fitting basis          ... NOT available

Checking pre-screening integrals            ... done (  0.0 sec) Dimension = 42
   => SHARK Basis and OBASIS are compatible. Storing Pre-screening
Shell pair information
Shell pair cut-off parameter TPreSel        ...   2.5e-12
Total number of shell pairs                 ...       903
Shell pairs after pre-screening             ...       823
Total number of primitive shell pairs       ...      4124
Primitive shell pairs kept                  ...      2887
          la=0 lb=0:    225 shell pairs
          la=1 lb=0:    281 shell pairs
          la=1 lb=1:    100 shell pairs
          la=2 lb=0:    119 shell pairs
          la=2 lb=1:     79 shell pairs
          la=2 lb=2:     19 shell pairs

Checking whether 4 symmetric matrices of dimension 94 fit in memory
:Max Core in MB      =   4096.00
 MB in use           =      4.47
 MB left             =   4091.53
 MB needed           =      0.14
 Data fit in memory  = YES
Calculating RI/J V-Matrix + Cholesky decomp.... done (  0.0 sec)
Calculating Nuclear repulsion               ... done (  0.0 sec) ENN=    143.040583817500 Eh

Diagonalization of the overlap matrix:
Smallest eigenvalue                        ... 5.451e-03
Time for diagonalization                   ...    0.001 sec
Threshold for overlap eigenvalues          ... 1.000e-07
Number of eigenvalues below threshold      ... 0
Time for construction of square roots      ...    0.001 sec
Total time needed                          ...    0.003 sec

-------------------
DFT GRID GENERATION
-------------------

General Integration Accuracy     IntAcc      ... 4.388
Radial Grid Type                 RadialGrid  ... OptM3 with GC (2021)
Angular Grid (max. ang.)         AngularGrid ... 4 (Lebedev-302)
Angular grid pruning method      GridPruning ... 4 (adaptive)
Weight generation scheme         WeightScheme... mBecke (2022)
Basis function cutoff            BFCut       ... 1.0000e-11
Integration weight cutoff        WCut        ... 1.0000e-14
Partially contracted basis set               ... off
Rotationally invariant grid construction     ... off
Angular grids for H and He will be reduced by one unit
Core-polarized basis detected: some atoms will have their core
                               angular grid increased.

Total number of grid points                  ...    33369
Total number of batches                      ...      525
Average number of points per batch           ...       63
Average number of grid points per atom       ...     5562
Grids setup in   0.4 sec
Initializing property integral containers    ... done (  0.0 sec)

SHARK setup successfully completed in   0.8 seconds

Maximum memory used throughout the entire STARTUP-calculation: 13.3 MB


           ************************************************************
           *        Program running with 8 parallel MPI-processes     *
           *              working on a common directory               *
           ************************************************************
Occupation numbers will be reassigned to an Aufbau configuration
             **** ENERGY FILE WAS UPDATED (product_optfreq.en.tmp) ****
Finished Guess after   0.2 sec
Maximum memory used throughout the entire GUESS-calculation: 6.9 MB


           ************************************************************
           *        Program running with 8 parallel MPI-processes     *
           *              working on a common directory               *
           ************************************************************
----------------------------------------D-I-I-S--------------------------------------------
Iteration    Energy (Eh)           Delta-E    RMSDP     MaxDP     DIISErr   Damp  Time(sec)
-------------------------------------------------------------------------------------------
               ***  Starting incremental Fock matrix formation  ***
    1    -2713.9032094936628710     0.00e+00  3.39e-04  1.53e-03  7.92e-03  0.700   0.5
    2    -2713.9033184388099471    -1.09e-04  3.21e-04  1.42e-03  5.17e-03  0.700   0.3
                               ***Turning on AO-DIIS***
                              *** Initializing SOSCF ***
---------------------------------------S-O-S-C-F--------------------------------------
Iteration    Energy (Eh)           Delta-E    RMSDP     MaxDP     MaxGrad    Time(sec)
--------------------------------------------------------------------------------------
    3    -2713.9033914892588655    -7.31e-05  8.41e-04  3.87e-03  3.11e-03     0.4
               *** Restarting incremental Fock matrix formation ***
    4    -2713.9035572598945691    -1.66e-04  2.51e-04  9.79e-04  4.63e-04     0.3
    5    -2713.9035516080230082     5.65e-06  1.75e-04  8.64e-04  8.78e-04     0.2
    6    -2713.9035606673278380    -9.06e-06  5.51e-05  2.42e-04  8.90e-05     0.5
    7    -2713.9035605159915576     1.51e-07  3.04e-05  1.13e-04  1.48e-04     0.4
    8    -2713.9035607655864624    -2.50e-07  7.02e-06  3.30e-05  1.61e-05     0.3
    9    -2713.9035607673999948    -1.81e-09  2.75e-06  1.32e-05  9.99e-06     0.2
                 **** Energy Check signals convergence ****

               *****************************************************
               *                     SUCCESS                       *
               *           SCF CONVERGED AFTER   9 CYCLES          *
               *****************************************************

             **** ENERGY FILE WAS UPDATED (product_optfreq.en.tmp) ****

----------------
TOTAL SCF ENERGY
----------------

Total Energy       :      -2713.90356076878288 Eh          -73849.07030 eV

Components:
Nuclear Repulsion  :        143.04058381750028 Eh            3892.33217 eV
Electronic Energy  :      -2856.94414458628307 Eh          -77741.40247 eV
One Electron Energy:      -4071.48074408189905 Eh         -110790.62353 eV
Two Electron Energy:       1214.53659949561597 Eh           33049.22106 eV

Virial components:
Potential Energy   :      -5423.92156315097600 Eh         -147592.40919 eV
Kinetic Energy     :       2710.01800238219357 Eh           73743.33888 eV
Virial Ratio       :          2.00143377585801

DFT components:
N(Alpha)           :       26.999994622913 electrons
N(Beta)            :       26.999994622913 electrons
N(Total)           :       53.999989245827 electrons
E(X)               :     -106.151792922866 Eh       
E(C)               :       -2.327666194477 Eh       
E(XC)              :     -108.479459117343 Eh       

---------------
SCF CONVERGENCE
---------------

  Last Energy change         ...    1.8135e-09  Tolerance :   1.0000e-08
  Last MAX-Density change    ...    1.3232e-05  Tolerance :   1.0000e-07
  Last RMS-Density change    ...    2.7505e-06  Tolerance :   5.0000e-09
  Last DIIS Error            ...    3.1118e-03  Tolerance :   5.0000e-07
  Last Orbital Gradient      ...    9.9881e-06  Tolerance :   1.0000e-05
  Last Orbital Rotation      ...    1.3898e-05  Tolerance :   1.0000e-05


Total SCF time: 0 days 0 hours 0 min 4 sec 
Finished LeanSCF after   4.2 sec

Maximum memory used throughout the entire LEANSCF-calculation: 6.5 MB


           ************************************************************
           *        Program running with 8 parallel MPI-processes     *
           *              working on a common directory               *
           ************************************************************

------------------------------------------------------------------------------
                         ORCA PROPERTY INTEGRAL CALCULATIONS
------------------------------------------------------------------------------

GBWName                                   ... product_optfreq.gbw
Number of atoms                           ...      6
Number of basis functions                 ...     94
Max core memory                           ...   4096 MB

Dipole integrals                          ... YES
Quadrupole integrals                      ...  NO
Linear momentum integrals                 ...  NO
Angular momentum integrals                ...  NO
Higher moments length integrals           ...  NO
Higher moments velocity integrals         ...  NO
Kinetic energy integrals                  ...  NO
GIAO right hand sides                     ...  NO
GIAO dipole derivative integrals          ...  NO
SOC integrals                             ...  NO
EPR diamagnetic integrals (GIAO)          ...  NO
EPR gauge integrals                       ...  NO
Field gradient integrals                  ...  NO (   0 nuclei)
Spin-dipole/Fermi contact integrals       ...  NO (   0 nuclei)
Contact density integrals                 ...  NO (   0 nuclei)
Nucleus-orbit integrals                   ...  NO (   0 nuclei)
Geometric perturbations                   ...  NO (   6 nuclei)

Choice of electric origin   ... Center of mass
Position of electric origin ... ( -0.5766, -0.3338, -2.1754) 
Choice of magnetic origin   ... GIAO
Position of magnetic origin ... (  0.0000,  0.0000,  0.0000) 

Calculating integrals                     ... Electric Dipole (Length)     done (  0.1 sec)

Property integrals calculated in   0.1 sec

Maximum memory used throughout the entire PROPINT-calculation: 7.0 MB


-------------------------------------------------------------------------------
                          DFT DISPERSION CORRECTION                            
                                                                               
                                DFTD4 V3.4.0                                   
-------------------------------------------------------------------------------
-------------------------   ----------------
Dispersion correction           -0.000859049
-------------------------   ----------------

------------------   -----------------
gCP correction             0.004527252
------------------   -----------------

-------------------------   --------------------
FINAL SINGLE POINT ENERGY     -2713.899892565837
-------------------------   --------------------



           ************************************************************
           *        Program running with 8 parallel MPI-processes     *
           *              working on a common directory               *
           ************************************************************
------------------------------------------------------------------------------
                         ORCA SCF GRADIENT CALCULATION
------------------------------------------------------------------------------

Nuc. rep. gradient        (SHARK) ... done (  0.0 sec)
HCore & Overlap gradient  (SHARK) ... done (  0.0 sec)
Split-RIJ-J gradient      (SHARK) ... done (  1.2 sec)
XC gradient                       ... done (  0.4 sec)
Dispersion correction             ... done (  0.2 sec)

-------------------
DISPERSION GRADIENT
-------------------

   1   C   :    0.000007075    0.000004079    0.000003685
   2   H   :    0.000001300    0.000000652   -0.000003267
   3   H   :    0.000001224    0.000000799   -0.000003278
   4   H   :    0.000000783    0.000000462    0.000002456
   5   F   :   -0.000008373   -0.000004835    0.000042770
   6   Br  :   -0.000002009   -0.000001158   -0.000042366

Difference to translation invariance:
           :    0.0000000000   -0.0000000000   -0.0000000000

Difference to rotation invariance:
           :    0.0000000000   -0.0000000000    0.0000000000

Norm of the Dispersion gradient    ...    0.0000619335
RMS gradient                       ...    0.0000145979
MAX gradient                       ...    0.0000427696
gCP correction                   ... done

------------------
CARTESIAN GRADIENT
------------------

   1   C   :   -0.005185669   -0.002973906   -0.008524095
   2   H   :    0.000212322   -0.000303864    0.001982150
   3   H   :   -0.000161524    0.000327666    0.001982298
   4   H   :    0.003056726    0.001745581   -0.005378029
   5   F   :   -0.000231010   -0.000124071    0.002720178
   6   Br  :    0.002309155    0.001328594    0.007217498

Difference to translation invariance:
           :   -0.0000000001   -0.0000000000    0.0000000002

Difference to rotation invariance:
           :   -0.0000097158    0.0000348650    0.0000043978

Norm of the Cartesian gradient     ...    0.0149832026
RMS gradient                       ...    0.0035315747
MAX gradient                       ...    0.0085240950

-------
TIMINGS
-------

Total SCF gradient time     ....        1.815 sec

Densities                   ....       0.000 sec  (  0.0%)
One electron gradient       ....       0.010 sec  (  0.5%)
RI-J Coulomb gradient       ....       1.187 sec  ( 65.4%)
XC gradient                 ....       0.420 sec  ( 23.1%)

Maximum memory used throughout the entire SCFGRAD-calculation: 26.7 MB
------------------------------------------------------------------------------
                         ORCA GEOMETRY RELAXATION STEP
------------------------------------------------------------------------------

Reading the OPT-File                    .... done
Getting information on internals        .... done
Copying old internal coords+grads       .... done
Making the new internal coordinates     .... (2022 redundants) done
Validating the new internal coordinates .... (2022 redundants) done
Calculating the B-matrix                .... done
Calculating the G,G- and P matrices     .... done
Transforming gradient to internals      .... done
Projecting the internal gradient        .... done
Number of atoms                         ....   6
Number of internal coordinates          ....  15
Current Energy                          .... -2713.899892566 Eh
Current gradient norm                   ....     0.014983203 Eh/bohr
Maximum allowed component of the step   ....  0.300
Current trust radius                    ....  0.300
Updating the Hessian (BFGS)             .... done
Forming the augmented Hessian           .... done
Diagonalizing the augmented Hessian     .... done
Last element of RFO vector              ....  0.983254656
Lowest eigenvalues of augmented Hessian:
 -0.001299475  0.025714681  0.096227381  0.164386616  0.206312168
Length of the computed step             ....  0.185340472
The final length of the internal step   ....  0.185340472
Converting the step to Cartesian space:
 Initial RMS(Int)=    0.0478547041
Transforming coordinates:
 Iter   0:  RMS(Cart)=    0.0317594458 RMS(Int)=    0.0478374471
done
Storing new coordinates                 .... done
The predicted energy change is          ....    -0.000672057
Previously predicted energy change      ....    -0.000817693
Actually observed energy change         ....    -0.001225284
Ratio of predicted to observed change   ....     1.498464489
New trust radius                        ....     0.300000000

                                .--------------------.
          ----------------------|Geometry convergence|-------------------------
          Item                value                   Tolerance       Converged
          ---------------------------------------------------------------------
          Energy change      -0.0012252836            0.0000050000      NO
          RMS gradient        0.0026127170            0.0001000000      NO
          MAX gradient        0.0076742112            0.0003000000      NO
          RMS step            0.0478547041            0.0020000000      NO
          MAX step            0.1627571228            0.0040000000      NO
          -------------------------------------------------------------------------
          ........................................................
          Max(Bonds)      0.0861      Max(Angles)    0.88
          Max(Dihed)        0.64      Max(Improp)    0.00
          ---------------------------------------------------------------------

The optimization has not yet converged - more geometry cycles are needed


    ---------------------------------------------------------------------------
                         Redundant Internal Coordinates
                            (Angstroem and degrees)

        Definition                    Value    dE/dq     Step     New-Value
    ----------------------------------------------------------------------------
     1. B(H   1,C   0)                1.0909 -0.000203  0.0015    1.0923   
     2. B(H   2,C   0)                1.0909 -0.000206  0.0015    1.0924   
[...]
Rotational constants in MHz :         26518.250511          1882.700718          1777.783615 

Dipole components along the rotational axes: 
x,y,z [a.u.] :    -3.373268     0.669302     0.000076 
x,y,z [Debye]:    -8.574166     1.701230     0.000192 

 

Dipole moment calculation done in   0.0 sec 

-----------
SCF HESSIAN
-----------

Occupied/Occupied contributions to the Hessian:
   => Occupied/Occupied contributions              ... done (  0.0 sec)
Perturbed density contributions to the Hessian:
   => Perturbed density contributions              ... done (  0.0 sec)
Explicit contributions to the Hessian:
   => Nuclear repulsion Hessian                    ... done (  0.0 sec)
   => HCore and overlap Hessian                    ... done (  0.4 sec)
   => RI-J Hessian                                 ... done (  1.6 sec)
   => XC-Hessian                                   ... done (  4.0 sec)
   => Van der Waals-Hessian                        ... done (  0.8 sec)
   => GCP-Hessian                                  ... done (  0.1 sec)
   => Explicit contributions done
Dipole derivatives                                 ... done (  0.0 sec)
Mass weighting the Hessian           ... done
Calculating normal modes             ... done
Scaling frequencies                  ... done

-----------------------
VIBRATIONAL FREQUENCIES
-----------------------

Scaling factor for frequencies =  1.000000000  (already applied!)

     0:       0.00 cm**-1
     1:       0.00 cm**-1
     2:       0.00 cm**-1
     3:       0.00 cm**-1
     4:       0.00 cm**-1
     5:       0.00 cm**-1
     6:      83.46 cm**-1
     7:     328.84 cm**-1
     8:     334.67 cm**-1
     9:     485.27 cm**-1
    10:     928.19 cm**-1
    11:    1000.94 cm**-1
    12:    1341.03 cm**-1
    13:    1441.89 cm**-1
    14:    1511.81 cm**-1
    15:    1937.21 cm**-1
    16:    3055.81 cm**-1
    17:    3133.73 cm**-1


------------
NORMAL MODES
------------

These modes are the Cartesian displacements weighted by the diagonal matrix
M(i,i)=1/sqrt(m[i]) where m[i] is the mass of the displaced atom
Thus, these vectors are normalized but *not* orthogonal

                  0          1          2          3          4          5    
      0       0.000000   0.000000   0.000000   0.000000   0.000000   0.000000
      1       0.000000   0.000000   0.000000   0.000000   0.000000   0.000000
      2       0.000000   0.000000   0.000000   0.000000   0.000000   0.000000
      3       0.000000   0.000000   0.000000   0.000000   0.000000   0.000000
      4       0.000000   0.000000   0.000000   0.000000   0.000000   0.000000
      5       0.000000   0.000000   0.000000   0.000000   0.000000   0.000000
      6       0.000000   0.000000   0.000000   0.000000   0.000000   0.000000
      7       0.000000   0.000000   0.000000   0.000000   0.000000   0.000000
      8       0.000000   0.000000   0.000000   0.000000   0.000000   0.000000
      9       0.000000   0.000000   0.000000   0.000000   0.000000   0.000000
     10       0.000000   0.000000   0.000000   0.000000   0.000000   0.000000
     11       0.000000   0.000000   0.000000   0.000000   0.000000   0.000000
     12       0.000000   0.000000   0.000000   0.000000   0.000000   0.000000
     13       0.000000   0.000000   0.000000   0.000000   0.000000   0.000000
     14       0.000000   0.000000   0.000000   0.000000   0.000000   0.000000
     15       0.000000   0.000000   0.000000   0.000000   0.000000   0.000000
     16       0.000000   0.000000   0.000000   0.000000   0.000000   0.000000
     17       0.000000   0.000000   0.000000   0.000000   0.000000   0.000000
                  6          7          8          9         10         11    
      0       0.334483  -0.332981   0.055102  -0.224729   0.054641  -0.038227
      1       0.193812  -0.189077  -0.098980  -0.129389   0.031938   0.065961
      2      -0.136843   0.172945   0.000520  -0.537440  -0.016765   0.000106
      3       0.329732  -0.272161  -0.553253  -0.197186  -0.057764   0.299978
      4       0.190143  -0.182248  -0.032177  -0.123563   0.057819   0.076160
      5      -0.271023   0.264713   0.279613  -0.253035   0.528431   0.615414
      6       0.326585  -0.309189   0.300221  -0.207114   0.020604  -0.216077
      7       0.186655  -0.168336   0.462678  -0.111597  -0.080858  -0.222187
      8      -0.268782   0.279232  -0.276255  -0.251588   0.527578  -0.617178
      9       0.343345  -0.403918   0.232547  -0.084546  -0.225620   0.103745
     10       0.201382  -0.219359  -0.406592  -0.047719  -0.130969  -0.178493
     11      -0.059990   0.281139   0.000225  -0.621214  -0.596810   0.000576
     12      -0.117679   0.176794  -0.020954  -0.009203   0.009481  -0.002189
     13      -0.068165   0.100893   0.038210  -0.005440   0.005461   0.003753
     14      -0.446707  -0.331810  -0.001995   0.047771  -0.007949  -0.000010
     15      -0.034912   0.020449  -0.003042   0.042138  -0.007153   0.003900
     16      -0.020221   0.011624   0.005492   0.024313  -0.004156  -0.006714
     17       0.134352   0.042488   0.000351   0.083635  -0.001383   0.000002
                 12         13         14         15         16         17    
      0       0.043331   0.043652   0.033675  -0.061335  -0.057614   0.048015
      1       0.025213   0.024941  -0.058142  -0.035565  -0.033712  -0.082505
      2       0.090867  -0.045650   0.000250   0.067900   0.009830  -0.000061
      3      -0.387439  -0.578809  -0.160855   0.038893   0.032148   0.062343
      4       0.006637   0.070460  -0.004462  -0.081542   0.704846   0.696767
      5      -0.419167   0.174058   0.276755   0.001663  -0.039593  -0.050477
      6      -0.187477  -0.226099   0.084677  -0.051142   0.623368  -0.639356
      7      -0.339458  -0.535783   0.139651   0.074359  -0.321124   0.294866
      8      -0.417304   0.171920  -0.279219   0.001447  -0.039898   0.051330
      9      -0.254232   0.315262  -0.447304   0.734810   0.027391   0.012350
     10      -0.149389   0.186097   0.766926   0.426518   0.015757  -0.021435
     11      -0.501831   0.351167  -0.002262  -0.502068  -0.041713  -0.000043
     12       0.005573  -0.003787   0.005027  -0.000557  -0.000048  -0.000149
     13       0.003246  -0.002223  -0.008614  -0.000343  -0.000026   0.000260
     14      -0.001982  -0.002306   0.000051  -0.010612   0.000161   0.000000
     15       0.002621   0.000516   0.000347   0.000237   0.000057  -0.000059
     16       0.001522   0.000302  -0.000593   0.000138   0.000034   0.000101
     17       0.003695  -0.001384   0.000010  -0.001389   0.000013  -0.000001


-----------
IR SPECTRUM
-----------

 Mode   freq       eps      Int      T**2         TX        TY        TZ
       cm**-1   L/(mol*cm) km/mol    a.u.
----------------------------------------------------------------------------
  6:     83.46   0.002332   11.78  0.008718  ( 0.020727  0.012010  0.090248)
  7:    328.84   0.044828  226.54  0.042541  (-0.071015 -0.040993  0.189255)
  8:    334.67   0.000010    0.05  0.000009  ( 0.000570 -0.002392  0.001687)
  9:    485.27   0.040338  203.85  0.025940  ( 0.007054  0.004080 -0.160853)
 10:    928.19   0.040946  206.93  0.013766  ( 0.019558  0.011190 -0.115146)
 11:   1000.94   0.000647    3.27  0.000202  ( 0.007112 -0.012294  0.000076)
 12:   1341.03   0.018375   92.86  0.004276  ( 0.039730  0.022848 -0.046640)
 13:   1441.89   0.010153   51.31  0.002197  (-0.021154 -0.012153  0.040028)
 14:   1511.81   0.002999   15.16  0.000619  (-0.012424  0.021557  0.000106)
 15:   1937.21   0.293775  1484.62  0.047324  ( 0.072623  0.042033 -0.200707)
 16:   3055.81   0.005607   28.34  0.000573  (-0.016614 -0.009714 -0.014221)
 17:   3133.73   0.004812   24.32  0.000479  ( 0.010974 -0.018940 -0.000122)

* The epsilon (eps) is given for a Dirac delta lineshape.
** The dipole moment derivative (T) already includes vibrational overlap.

The first frequency considered to be a vibration is 6
The total number of vibrations considered is 12


--------------------------
THERMOCHEMISTRY AT 298.15K
--------------------------

Temperature         ...   298.15 K
Pressure            ...     1.00 atm
Total Mass          ...   113.93 AMU
Quasi RRHO          ...     True
Cut-Off Frequency   ...     1.00 cm^-1

Throughout the following assumptions are being made:
  (1) The electronic state is orbitally nondegenerate
  (2) There are no thermally accessible electronically excited states
  (3) Hindered rotations indicated by low frequency modes are not
      treated as such but are treated as vibrations and this may
      cause some error
  (4) All equations used are the standard statistical mechanics
      equations for an ideal gas
  (5) All vibrations are strictly harmonic

freq.      83.46  E(vib)   ...       0.48 
freq.     328.84  E(vib)   ...       0.24 
freq.     334.67  E(vib)   ...       0.24 
freq.     485.27  E(vib)   ...       0.15 
freq.     928.19  E(vib)   ...       0.03 
freq.    1000.94  E(vib)   ...       0.02 
freq.    1341.03  E(vib)   ...       0.01 
freq.    1441.89  E(vib)   ...       0.00 
freq.    1511.81  E(vib)   ...       0.00 
freq.    1937.21  E(vib)   ...       0.00 
freq.    3055.81  E(vib)   ...       0.00 
freq.    3133.73  E(vib)   ...       0.00 

------------
INNER ENERGY
------------

The inner energy is: U= E(el) + E(ZPE) + E(vib) + E(rot) + E(trans)
    E(el)   - is the total energy from the electronic structure calculation
              = E(kin-el) + E(nuc-el) + E(el-el) + E(nuc-nuc)
    E(ZPE)  - the the zero temperature vibrational energy from the frequency calculation
    E(vib)  - the the finite temperature correction to E(ZPE) due to population
              of excited vibrational states
    E(rot)  - is the rotational thermal energy
    E(trans)- is the translational thermal energy

Summary of contributions to the inner energy U:
Electronic energy                ...  -2713.90129479 Eh
Zero point energy                ...      0.03550031 Eh      22.28 kcal/mol
Thermal vibrational correction   ...      0.00187240 Eh       1.17 kcal/mol
Thermal rotational correction    ...      0.00141627 Eh       0.89 kcal/mol
Thermal translational correction ...      0.00141627 Eh       0.89 kcal/mol
-----------------------------------------------------------------------
Total thermal energy                  -2713.86108953 Eh


Summary of corrections to the electronic energy:
(perhaps to be used in another calculation)
Total thermal correction                  0.00470495 Eh       2.95 kcal/mol
Non-thermal (ZPE) correction              0.03550031 Eh      22.28 kcal/mol
-----------------------------------------------------------------------
Total correction                          0.04020526 Eh      25.23 kcal/mol


--------
ENTHALPY
--------

The enthalpy is H = U + kB*T
                kB is Boltzmann's constant
Total thermal energy              ...  -2713.86108953 Eh 
Thermal Enthalpy correction       ...      0.00094421 Eh       0.59 kcal/mol
-----------------------------------------------------------------------
Total Enthalpy                    ...  -2713.86014532 Eh


Note: Only C1 symmetry has been detected, increase convergence thresholds 
      if your molecule has a higher symmetry. Symmetry factor of 1.0 is   
      used for the rotational entropy correction. 
 

Note: Rotational entropy computed according to Herzberg 
Infrared and Raman Spectra, Chapter V,1, Van Nostrand Reinhold, 1945 
Point Group:  C1, Symmetry Number:   1  
Rotational constants in cm-1:     0.884554     0.062800     0.059301 

Vibrational entropy computed according to the QRRHO of S. Grimme
Chem.Eur.J. 2012 18 9955 using a reference frequency of 100.0 cm-1


-------
ENTROPY
-------

The entropy contributions are T*S = T*(S(el)+S(vib)+S(rot)+S(trans))
     S(el)   - electronic entropy
     S(vib)  - vibrational entropy
     S(rot)  - rotational entropy
     S(trans)- translational entropy
The entropies will be listed as multiplied by the temperature to get
units of energy

Electronic entropy                ...      0.00000000 Eh      0.00 kcal/mol
Vibrational entropy               ...      0.00321332 Eh      2.02 kcal/mol
Rotational entropy                ...      0.01220909 Eh      7.66 kcal/mol
Translational entropy             ...      0.01905598 Eh     11.96 kcal/mol
-----------------------------------------------------------------------
Final entropy term                ...      0.03447839 Eh     21.64 kcal/mol

In case the symmetry of your molecule has not been determined correctly
or in case you have a reason to use a different symmetry number we print 
out the resulting rotational entropy values for sn=1,12:

 non-linear molecules -----------------------------------
|  sn= 1 | S(rot)=       0.01220909 Eh      7.66 kcal/mol|
|  sn= 2 | S(rot)=       0.01155464 Eh      7.25 kcal/mol|
|  sn= 3 | S(rot)=       0.01117180 Eh      7.01 kcal/mol|
|  sn= 4 | S(rot)=       0.01090018 Eh      6.84 kcal/mol|
|  sn= 5 | S(rot)=       0.01068949 Eh      6.71 kcal/mol|
|  sn= 6 | S(rot)=       0.01051735 Eh      6.60 kcal/mol|
|  sn= 7 | S(rot)=       0.01037180 Eh      6.51 kcal/mol|
|  sn= 8 | S(rot)=       0.01024572 Eh      6.43 kcal/mol|
|  sn= 9 | S(rot)=       0.01013452 Eh      6.36 kcal/mol|
|  sn=10 | S(rot)=       0.01003504 Eh      6.30 kcal/mol|
|  sn=11 | S(rot)=       0.00994505 Eh      6.24 kcal/mol|
|  sn=12 | S(rot)=       0.00986289 Eh      6.19 kcal/mol|
 linear molecules ---------------------------------------
|  Dinfh | S(rot)=       0.00799325 Eh      5.02 kcal/mol|
|  Cinfv | S(rot)=       0.00864770 Eh      5.43 kcal/mol|
 --------------------------------------------------------


-------------------
GIBBS FREE ENERGY
-------------------

The Gibbs free energy is G = H - T*S

Total enthalpy                    ...  -2713.86014532 Eh 
Total entropy correction          ...     -0.03447839 Eh    -21.64 kcal/mol
-----------------------------------------------------------------------
Final Gibbs free energy         ...  -2713.89462371 Eh

For completeness - the Gibbs free energy minus the electronic energy
G-E(el)                           ...      0.00667108 Eh      4.19 kcal/mol


Maximum memory used throughout the entire PROP-calculation: 30.9 MB

--------------------------------
SUGGESTED CITATIONS FOR THIS RUN
--------------------------------

Below you find a list of papers that are relevant to this ORCA run
We neither can nor want to force you to cite these papers, but we appreciate if you do
You receive ORCA, which is the product of decades of hard work by many enthusiastic individuals, for free
The only thing we kindly ask in return is that you cite our papers,
We deeply appreciate it, if you show your appreciation for ORCA by not just citing the generic ORCA reference.

Please note that relegating all ORCA citations to the supporting information does *not* help us.
SI sections are not indexed - citations you put there will not count into any citation statistics
But we need these citations in order to attract the funding resources that allow us to do what we are doing

Therefore, if you are a happy ORCA user, please consider citing a few of the papers listed below in the main body of your paper

In addition to the list printed below, the program has created the file product_optfreq.bibtex that contains the list in bibtex format
You can import this file easily into all common literature databanks and citation aid programs


List of essential papers. We consider these as the minimum necessary citations

  1. Grimme, S.; Hansen, A.; Ehlert, S.; Mewes, J.
     r2SCAN-3c: A 'Swiss army knife' composite electronic-structure method
     J. Chem. Phys. 2021 154 , 064103
     doi.org/10.1063/5.0040021
  2. Neese, F.
     Software update: the ORCA program system, version 6.0
     WIRES Comput. Molec. Sci. 2025 15(1), e70019
     doi.org/10.1002/wcms.7019

List of papers to cite with high priority. The work reported in these papers was absolutely
necessary for this run to complete.
Our perspective: the developers of density functionals and basis sets usually get cited in chemistry papers
Good! But without the algorithms to do something with them, the functionals or basis sets would not do anything.
Hence, in our opinion, the algorithm design and method developments papers are equally worthy of getting cited

  1. Neese, F.
     An improvement of the resolution of the identity approximation for the formation of the Coulomb matrix
     J. Comp. Chem. 2003 24(14), 1740-1747
     doi.org/10.1002/jcc.10318
  2. Bykov, D.; Petrenko, T.; Izsak, R.; Kossmann, S.; Becker, U.; Valeev, E.; Neese, F.
     Efficient implementation of the analytic second derivatives of Hartree-Fock and hybrid DFT energies: a detailed analysis of different approximations
     Molec. Phys. 2015 113 , 1961-1977
     doi.org/10.1080/00268976.2015.1025114
  3. Caldeweyher, E.; Bannwarth, C.; Grimme, S.
     Extension of the D3 dispersion coefficient model
     J. Chem. Phys. 2017 147 , 034112
     doi.org/10.1063/1.4993215
  4. Lehtola, S.; Steigemann, C.; Oliveira, M.; Marques, M.
     Recent developments in Libxc - A comprehensive library of functionals for density functional theory
     Software X 2018 7 , 
     doi.org/10.1016/j.softx.2017.11.002
  5. Caldeweyher, E.; Ehlert, S.; Hansen, A.; Neugebauer, H.; Spicher, S.; Bannwarth, C.; Grimme, S.
     A generally applicable atomic-charge dependent London dispersion correction
     J. Chem. Phys. 2019 150 , 154122
     doi.org/10.1063/1.5090222
  6. Caldeweyher, E.; Mewes, J.; Ehlert, S.; Grimme, S.
     Extension and evaluation of the D4 London-dispersion model for periodic systems
     Phys. Chem. Chem. Phys. 2020 22(16), 8499-8512
     doi.org/10.1039/D0CP00502A
  7. Neese, F.
     The SHARK Integral Generation and Digestion System
     J. Comp. Chem. 2022 44(3), 381
     doi.org/10.1002/jcc.26942
  8. Wittmann, L.; Gordiy, I.; Friede, M.; Helmich-Paris, B.; Grimme, S.; Hansen, A.; Bursch, M.
     Extension of the D3 and D4 London Dispersion Corrections to the full Actinides Series
     Phys. Chem. Chem. Phys. 2024 26(32), 21379-21394
     doi.org/10.1039/D4CP01514B

List of suggested additional citations. These are papers that are important in the 'surrounding' of 
of this run, or papers that preceded the highly important papers. If you like your results we are grateful for a citation.

  1. Neese, F.
     The ORCA program system
     WIRES Comput. Molec. Sci. 2012 2(1), 73-78
     doi.org/10.1002/wcms.81
  2. Neese, F.
     Software update: the ORCA program system, version 4.0
     WIRES Comput. Molec. Sci. 2018 8(1), 1-6
     doi.org/10.1002/wcms.1327
  3. Neese, F.; Wennmohs, F.; Becker, U.; Riplinger, C.
     The ORCA quantum chemistry program package
     J. Chem. Phys. 2020 152(22), 224108
     doi.org/10.1063/5.0004608
  4. Neese, F.
     Software update: The ORCA program system—Version 5.0
     WIRES Comput. Molec. Sci. 2022 12(1), e1606
     doi.org/10.1002/wcms.1606

List of optional additional citations

  1. Neese, F.
     Approximate second-order SCF convergence for spin unrestricted wavefunctions
     Chem. Phys. Lett. 2000 325(1-3), 93-98
     doi.org/10.1016/s0009-2614(00)00662-x

Timings for individual modules:

Sum of individual times          ...      145.761 sec (=   2.429 min)
Startup calculation              ...       18.225 sec (=   0.304 min)  12.5 %
SCF iterations                   ...       64.202 sec (=   1.070 min)  44.0 %
Property integrals               ...       19.040 sec (=   0.317 min)  13.1 %
SCF Response                     ...        6.091 sec (=   0.102 min)   4.2 %
Property calculations            ...        8.102 sec (=   0.135 min)   5.6 %
SCF Gradient evaluation          ...       30.076 sec (=   0.501 min)  20.6 %
Geometry relaxation              ...        0.024 sec (=   0.000 min)   0.0 %
                             ****ORCA TERMINATED NORMALLY****
TOTAL RUN TIME: 0 days 0 hours 2 minutes 34 seconds 806 msec
