
                                 *****************
                                 * O   R   C   A *
                                 *****************

                                            #,                                       
                                            ###                                      
                                            ####                                     
                                            #####                                    
                                            ######                                   
                                           ########,                                 
                                     ,,################,,,,,                         
                               ,,#################################,,                 
                          ,,##########################################,,             
                       ,#########################################, ''#####,          
                    ,#############################################,,   '####,        
                  ,##################################################,,,,####,       
                ,###########''''           ''''###############################       
              ,#####''   ,,,,##########,,,,          '''####'''          '####       
            ,##' ,,,,###########################,,,                        '##       
           ' ,,###''''                  '''############,,,                           
         ,,##''                                '''############,,,,        ,,,,,,###''
      ,#''                                            '''#######################'''  
     '                                                          ''''####''''         
             ,#######,   #######,   ,#######,      ##                                
            ,#'     '#,  ##    ##  ,#'     '#,    #''#        ,####,    ,#,          
            ##       ##  ##   ,#'  ##            #'  '#       #'       ,# #          
            ##       ##  #######   ##           ,######,      #####,      #          
            '#,     ,#'  ##    ##  '#,     ,#' ,#      #,     #,   #      #          
             '#######'   ##     ##  '#######'  #'      '#     '####' #    #          



                #########################################################
                #                        -***-                          #
                #          Department of theory and spectroscopy        #
                #                                                       #
                #                      Frank Neese                      #
                #                                                       #
                #     Directorship, Architecture, Infrastructure        #
                #                    SHARK, DRIVERS                     #
                #        Core code/Algorithms in most modules           #
                #                                                       #
                #        Max Planck Institute fuer Kohlenforschung      #
                #                Kaiser Wilhelm Platz 1                 #
                #                 D-45470 Muelheim/Ruhr                 #
                #                      Germany                          #
                #                                                       #
                #                  All rights reserved                  #
                #                        -***-                          #
                #########################################################


                         Program Version 6.1.0  -  RELEASE   -
                                (GIT: $679e74b$)
                          ($2025-06-10 18:02:51 +0200$)


 With contributions from (in alphabetic order):
[Max-Planck-Institut fuer Kohlenforschung]                               
  Daniel Aravena         : Magnetic Suceptibility                        
  Michael Atanasov       : Ab Initio Ligand Field Theory (pilot matlab implementation)
  Alexander A. Auer      : GIAO ZORA, VPT2 properties, NMR spectrum      
  Ute Becker             : All parallelization in ORCA, NUMFREQ, NUMCALC 
  Giovanni Bistoni       : ED, misc. LED, open-shell LED, HFLD           
  Dmytro Bykov           : pre 5.0 version of the SCF Hessian            
  Marcos Casanova-Páez   : Triplet and SCS-CIS(D). UHF-(DLPNO)-IP/EA/STEOM-CCSD. UHF-CVS-IP/STEOM-CCSD   
  Vijay G. Chilkuri      : MRCI spin determinant printing, contributions to CSF-ICE 
  Pauline Colinet        : FMM embedding                                 
  Dipayan Datta          : RHF DLPNO-CCSD density                        
  Achintya Kumar Dutta   : EOM-CC, STEOM-CC                              
  Nicolas Foglia         : Exact transition moments, OPA infrastructure, MCD improvements    
  Dmitry Ganyushin       : Spin-Orbit,Spin-Spin,Magnetic field MRCI      
  Miquel Garcia-Rates    : C-PCM and meta-GGA Hessian, CCSD/C-PCM, Gaussian charge scheme 
  Tiago L. C. Gouveia    : GS-ROHF, GS-ROCIS                             
  Yang Guo               : DLPNO-NEVPT2, F12-NEVPT2, CIM, IAO-localization        
  Andreas Hansen         : Spin unrestricted coupled pair/coupled cluster methods 
  Ingolf Harden          : AUTO-CI MPn and infrastructure                
  Benjamin Helmich-Paris : MC-RPA, TRAH-(SCF,CASSCF), AVAS, COSX integrals, SCF dyn. polar., MC-PDFT, srDFT 
  Lee Huntington         : MR-EOM, pCC                                   
  Robert Izsak           : Overlap fitted RIJCOSX, COSX-SCS-MP3, EOM     
  Riya Kayal             : Wick's Theorem for AUTO-CI, AUTO-CI UHF-CCSDT 
  Emily Kempfer          : AUTO-CI RHF CISDT and CCSDT, approximate NEVPT4
  Christian Kollmar      : KDIIS, OOCD, Brueckner-CCSD(T), CCSD density, CASPT2, CASPT2-K, improved NEVPT2 
  Axel Koslowski         : Symmetry handling                             
  Simone Kossmann        : meta-GGA functionals, TD-DFT gradient, OOMP2, (MP2 Hessian; deprecated post 5.0) 
  Lucas Lang             : DCDCAS, Hyperfine gauge corrections, ICE-SOC+SSC
  Marvin Lechner         : AUTO-CI (C++ implementation), FIC-MRCC        
  Spencer Leger          : CASSCF response                               
  Dagmar Lenk            : GEPOL surface, SMD, ORCA-2-JSON               
  Dimitrios Liakos       : Extrapolation schemes; Compound Job, Property file
  Dimitrios Manganas     : Further ROCIS development; embedding schemes. LFT, Crystal Embedding 
  Dimitrios Pantazis     : SARC Basis sets                               
  Anastasios Papadopoulos: AUTO-CI, single reference methods and gradients 
  Taras Petrenko         : pre 6.0 DFT Hessian and TD-DFT gradient,  ECA, NRVS 
  Petra Pikulova         : Analytic Raman intensities                    
  Peter Pinski           : DLPNO-MP2, DLPNO-MP2 Gradient                 
  Shashank Vittal Rao    : ES-AILFT, MagRelax                            
  Christoph Reimann      : Effective Core Potentials                     
  Marius Retegan         : Local ZFS, SOC                                
  Christoph Riplinger    : Optimizer, TS searches, QM/MM, DLPNO-CCSD(T), (RO)-DLPNO pert. Triples 
  Michael Roemelt        : Original ROCIS implementation, recursive CI coupling coefficients
  Masaaki Saitow         : Open-shell DLPNO-CCSD energy and density      
  Barbara Sandhoefer     : DKH picture change effects                    
  Yorick L. A. Schmerwitz: GMF and freeze-and-release deltaSCF, NEB S-IDPP initial path                    
  Kantharuban Sivalingam : CASSCF convergence/infrastructure, NEVPT2, NEVPT3, NEVPT4(SD), FIC-MRCI and CEPA variants
  Bernardo de Souza      : ESD, SOC TD-DFT                               
  Georgi L. Stoychev     : AutoAux, RI-MP2 NMR, DLPNO-MP2 response, X2C  
  Van Anh Tran           : RI-MP2 g-tensors                              
  Willem Van den Heuvel  : Paramagnetic NMR                              
  Zikuan Wang            : NOTCH, Electric field optimization            
  Frank Wennmohs         : Technical directorship and infrastructure     
  Hang Xu                : AUTO-CI-Response properties                   
                                                                         
[FACCTs GmbH]                                                            
  Markus Bursch, Nicolas Foglia, Miquel Garcia-Rates, Ingolf Harden, Hagen Neugebauer, Anastasios Papadopoulos, 
  Christoph Riplinger, Bernardo de Souza, Georgi L. Stoychev                                                    
                                                                 
  APM, various basis sets, CI-OPT, improved COSX, DLPNO-Multilevel,           
  DOCKER, DRACO, updates on ESD, Fragmentator, GOAT, IRC, LR-CPCM, L-BFGS, MBIS, meta-GGA TD-DFT gradient, ML-optimized integration grids, 
  MM, NACMEs, nearIR, NEB, NEB-TS, NL-DFT gradient (VV10), 2- and 3-layer-ONIOM, interface openCOSMO-RS, QMMM,   
  Crystal-QMMM, RESP, rigid body optimization, SF, symmetry and pop. for TD-DFT, various functionals, SOLVATOR                                   
                                                                         
[Other institutions]                                                     
  V. Asgeirsson          : NEB                                           
  Christoph Bannwarth    : sTDA-DFT, sTD-DFT, PBEh-3c, B97-3c, D3        
  Giovanni Bistoni       : ETS/NOCV, ADLD/ADEX, COVALED                  
  Martin Brehm           : Molecular dynamics                            
  Ronald Cardenas        : ETS/NOCV                                      
  Martina Colucci        : COVALED                                       
  Sebastian Ehlert       : rSCAN, r2SCAN, r2SCAN-3c, D4, dhf basis sets  
  Marvin Friede          : D4 for Fr, Ra, Ac-Lr                          
  Lars Goerigk           : TD-DFT with DH, B97 family of functionals     
  Stefan Grimme          : VdW corrections, initial TS optimization, DFT functionals, gCP, sTDA/sTD-DF 
  Waldemar Hujo          : DFT-NL                                        
  H. Jonsson             : NEB                                           
  Holger Kruse           : gCP                                           
  Marcel Mueller         : wB97X-3c, vDZP basis set                      
  Hagen Neugebauer       : wr2SCAN, Native XTB                           
  Gianluca Regni         : ADLD/ADEX                                     
  Tobias Risthaus        : pre 6.0 range-separated hybrid DFT and stability analysis
  Lukas Wittmann         : regularized MP2, r2SCAN double-hybrids, wr2SCAN        
                                                                         
We gratefully acknowledge several colleagues who have allowed us to      
interface, adapt or use parts of their codes:                            
  Ed Valeev, F. Pavosevic, A. Kumar             : LibInt (2-el integral package), F12 methods 
  Garnet Chan, S. Sharma, J. Yang, R. Olivares  : DMRG                   
  Ulf Ekstrom                                   : XCFun DFT Library      
  Mihaly Kallay                                 : mrcc  (arbitrary order and MRCC methods)
  Frank Weinhold                                : gennbo (NPA and NBO analysis)           
  Simon Mueller                                 : openCOSMO-RS                            
  Christopher J. Cramer and Donald G. Truhlar   : smd solvation model                     
  S Lehtola, MJT Oliveira, MAL Marques          : LibXC Library                           
  Liviu Ungur et al                             : ANISO software                          


 Your calculation uses the libint2 library for the computation of 2-el integrals
 For citations please refer to: http://libint.valeyev.net

 Your ORCA version has been built with support for libXC version: 7.0.0
 For citations please refer to: https://libxc.gitlab.io

 This ORCA versions uses:
   CBLAS   interface :  Fast vector & matrix operations
   LAPACKE interface :  Fast linear algebra routines
   SCALAPACK package :  Parallel linear algebra routines
   Shared memory     :  Shared parallel matrices
   BLAS/LAPACK       :  OpenBLAS 0.3.29  USE64BITINT DYNAMIC_ARCH NO_AFFINITY SkylakeX SINGLE_THREADED
        Core in use  :  SkylakeX
   Copyright (c) 2011-2014, The OpenBLAS Project


  ***********************************
  * Starting time: Thu Mar 12 13:02:35 2026
  * Host name:     midway3-login4.rcc.local
  * Process ID:    2882876
  * Working dir.:  /home/rzhu16/orca_TS_search/sn2_f_br/DFT_test
  ***********************************

Your calculation utilizes the geometrical counterpoise correction gCP
Please cite in your paper:
H.Kruse, S. Grimme J.Chem.Phys., 136, (2012), 154101 
   

Your calculation utilizes the atom-pairwise dispersion correction
based on EEQ partial charges (D4)


================================================================================

----- Orbital basis set information -----
Your calculation utilizes the basis: def2-mTZVPP
   Stefan Grimme, Andreas Hansen, Sebastian Ehlert, and Jan-Michael Mewes 
   J. Chem. Phys. 154, 064103 (2021). DOI: 10.1063/5.0040021

----- AuxJ basis set information -----
Your calculation utilizes the basis: def2-mTZVPP/J
   Stefan Grimme, Andreas Hansen, Sebastian Ehlert, and Jan-Michael Mewes 
   J. Chem. Phys. 154, 000000 (2021). DOI: 10.1063/5.0040021

================================================================================
                                        WARNINGS
                       Please study these warnings very carefully!
================================================================================



WARNING: SCAN, rSCAN, or r2SCAN functional requested.
  ===> : libXC variant has now been activated.



WARNING: Geometry Optimization
  ===> : Switching off AutoStart
         For restart on a previous wavefunction, please use MOREAD

================================================================================
                                       INPUT FILE
================================================================================
NAME = reactant_optfreq.inp
|  1> ! r2SCAN-3c Opt Freq PAL8 TightSCF
|  2> 
|  3> %pal
|  4>    nprocs 8
|  5> end
|  6> 
|  7> %scf
|  8>    MaxIter 150
|  9> end
| 10> 
| 11> * xyz -1 1
| 12>   C      -0.101652     -0.057820      0.012851
| 13>   H      -0.076654      1.006510      0.140140
| 14>   H       0.830360     -0.572025      0.140950
| 15>   H      -1.005133     -0.576679      0.213866
| 16>   F      -0.295863     -0.170627      2.082907
| 17>   Br     -0.218069     -0.125948     -2.213975
| 18> *
| 19> 
| 20>                          ****END OF INPUT****
================================================================================

                       *****************************
                       * Geometry Optimization Run *
                       *****************************

Geometry optimization settings:
Update method            Update   .... BFGS
Choice of coordinates    CoordSys .... (2022) Redundant Internals
Initial Hessian          InHess   .... Almloef's Model
Max. no of cycles        MaxIter  .... 50

Convergence Tolerances:
Energy Change            TolE     ....  5.0000e-06 Eh
Max. Gradient            TolMAXG  ....  3.0000e-04 Eh/bohr
RMS Gradient             TolRMSG  ....  1.0000e-04 Eh/bohr
Max. Displacement        TolMAXD  ....  4.0000e-03 bohr
RMS Displacement         TolRMSD  ....  2.0000e-03 bohr
Strict Convergence                .... False

------------------------------------------------------------------------------
                        ORCA OPTIMIZATION COORDINATE SETUP
------------------------------------------------------------------------------

The optimization will be done in redundant internal coordinates (2022)
Making redundant internal coordinates   ...  (2022 redundants) done
Evaluating the initial hessian          ...  (Almloef) done
Evaluating the coordinates              ...  done
Calculating the B-matrix                .... done
Calculating the G-matrix                .... done
The number of degrees of freedom        ....   18

    -----------------------------------------------------------------
                    Redundant Internal Coordinates


    -----------------------------------------------------------------
         Definition                    Initial Value    Approx d2E/dq
    -----------------------------------------------------------------
      1. B(H   1,C   0)                  1.0722         0.384426   
      2. B(H   2,C   0)                  1.0721         0.384533   
      3. B(H   3,C   0)                  1.0611         0.400458   
      4. B(F   4,C   0)                  2.0822         0.040888   
      5. B(F   4,H   3)                  2.0399         0.010000   
      6. B(F   4,H   2)                  2.2805         0.010000   
      7. B(F   4,H   1)                  2.2821         0.010000   
      8. B(Br  5,C   0)                  2.2309         0.095635   
      9. A(H   1,C   0,H   3)          118.8658         0.298833   
     10. A(H   2,C   0,H   3)          118.8835         0.298846   
     11. A(H   1,C   0,Br  5)           98.6287         0.279353   
     12. A(H   2,C   0,Br  5)           98.6257         0.279365   
     13. A(H   3,C   0,Br  5)           97.4540         0.281121   
     14. A(H   1,C   0,F   4)           86.4413         0.231758   
     15. A(H   2,C   0,F   4)           86.3486         0.231767   
     16. A(H   3,C   0,F   4)           72.8876         0.233085   
     17. A(F   4,C   0,Br  5)          170.3414         0.219709   
     18. A(H   1,C   0,H   2)          116.2083         0.296914   
    -----------------------------------------------------------------

Number of atoms                         .... 6
Number of degrees of freedom            .... 18


         *************************************************************
         *                GEOMETRY OPTIMIZATION CYCLE   1            *
         *************************************************************
---------------------------------
CARTESIAN COORDINATES (ANGSTROEM)
---------------------------------
  C     -0.101652   -0.057820    0.012851
  H     -0.076654    1.006510    0.140140
  H      0.830360   -0.572025    0.140950
  H     -1.005133   -0.576679    0.213866
  F     -0.295863   -0.170627    2.082907
  Br    -0.218069   -0.125948   -2.213975

----------------------------
CARTESIAN COORDINATES (A.U.)
----------------------------
  NO LB      ZA    FRAG     MASS         X           Y           Z
   0 C     6.0000    0    12.011   -0.192094   -0.109264    0.024285
   1 H     1.0000    0     1.008   -0.144855    1.902028    0.264826
   2 H     1.0000    0     1.008    1.569153   -1.080971    0.266357
   3 H     1.0000    0     1.008   -1.899426   -1.089765    0.404148
   4 F     9.0000    0    18.998   -0.559100   -0.322438    3.936124
   5 Br   35.0000    0    79.900   -0.412091   -0.238007   -4.183806

--------------------------------
INTERNAL COORDINATES (ANGSTROEM)
--------------------------------
 C      0   0   0     0.000000000000     0.00000000     0.00000000
 H      1   0   0     1.072206014917     0.00000000     0.00000000
 H      1   2   0     1.072129891370   116.20829503     0.00000000
 H      1   2   3     1.061084167004   118.86575833   152.38830949
 F      4   1   2     2.039915787302    77.30194266   284.11553567
 Br     1   2   3     2.230907523083    98.62868186   255.89053251

---------------------------
INTERNAL COORDINATES (A.U.)
---------------------------
 C      0   0   0     0.000000000000     0.00000000     0.00000000
 H      1   0   0     2.026175727337     0.00000000     0.00000000
 H      1   2   0     2.026031874681   116.20829503     0.00000000
 H      1   2   3     2.005158480678   118.86575833   152.38830949
 F      4   1   2     3.854882174264    77.30194266   284.11553567
 Br     1   2   3     4.215804248732    98.62868186   255.89053251

---------------------
BASIS SET INFORMATION
---------------------
There are 4 groups of distinct atoms

 Group   1 Type C   : 11s6p1d contracted to 5s3p1d pattern {62111/411/1}
 Group   2 Type H   : 4s1p contracted to 2s1p pattern {31/1}
 Group   3 Type F   : 11s6p2d contracted to 5s3p2d pattern {62111/411/11}
 Group   4 Type Br  : 17s13p7d contracted to 6s5p3d pattern {842111/64111/511}

Atom   0C    basis set group =>   1
Atom   1H    basis set group =>   2
Atom   2H    basis set group =>   2
Atom   3H    basis set group =>   2
Atom   4F    basis set group =>   3
Atom   5Br   basis set group =>   4
---------------------------------
AUXILIARY/J BASIS SET INFORMATION
---------------------------------
There are 4 groups of distinct atoms

 Group   1 Type C   : 8s3p3d contracted to 6s3p3d pattern {311111/111/111}
 Group   2 Type H   : 5s2p1d contracted to 3s1p1d pattern {311/2/1}
 Group   3 Type F   : 8s3p4d contracted to 6s3p4d pattern {311111/111/1111}
 Group   4 Type Br  : 19s5p5d3f1g contracted to 8s4p3d2f1g pattern {121111111/2111/311/21/1}

Atom   0C    basis set group =>   1
Atom   1H    basis set group =>   2
Atom   2H    basis set group =>   2
Atom   3H    basis set group =>   2
Atom   4F    basis set group =>   3
Atom   5Br   basis set group =>   4


           ************************************************************
           *        Program running with 8 parallel MPI-processes     *
           *              working on a common directory               *
           ************************************************************
------------------------------------------------------------------------------
                             ORCA STARTUP CALCULATIONS
                           -- RI-GTO INTEGRALS CHOSEN --
------------------------------------------------------------------------------
------------------------------------------------------------------------------
                   ___                                                        
                  /   \      - P O W E R E D   B Y -                         
                 /     \                                                     
                 |  |  |   _    _      __       _____    __    __             
                 |  |  |  | |  | |    /  \     |  _  \  |  |  /  |          
                  \  \/   | |  | |   /    \    | | | |  |  | /  /          
                 / \  \   | |__| |  /  /\  \   | |_| |  |  |/  /          
                |  |  |   |  __  | /  /__\  \  |    /   |      \           
                |  |  |   | |  | | |   __   |  |    \   |  |\   \          
                \     /   | |  | | |  |  |  |  | |\  \  |  | \   \       
                 \___/    |_|  |_| |__|  |__|  |_| \__\ |__|  \__/        
                                                                              
                      - O R C A' S   B I G   F R I E N D -                    
                                      &                                       
                       - I N T E G R A L  F E E D E R -                       
                                                                              
 v1 FN, 2020, v2 2021, v3 2022-2024                                           
------------------------------------------------------------------------------


----------------------
SHARK INTEGRAL PACKAGE
----------------------

Number of atoms                             ...      6
Number of basis functions                   ...     94
Number of shells                            ...     42
Maximum angular momentum                    ...      2
Integral batch strategy                     ... SHARK/LIBINT Hybrid
RI-J (if used) integral strategy            ... SPLIT-RIJ (Revised 2003 algorithm where possible)
Printlevel                                  ...      1
Contraction scheme used                     ... SEGMENTED contraction
Prescreening option                         ... SCHWARTZ
   Thresh                                   ... 2.500e-11
   Tcut                                     ... 2.500e-12
   Tpresel                                  ... 2.500e-12 
Coulomb Range Separation                    ... NOT USED
Exchange Range Separation                   ... NOT USED
Multipole approximations                    ... NOT USED
Finite Nucleus Model                        ... NOT USED
CABS basis                                  ... NOT available
Auxiliary Coulomb fitting basis             ... AVAILABLE
   # of basis functions in Aux-J            ...    156
   # of shells in Aux-J                     ...     58
   Maximum angular momentum in Aux-J        ...      4
Auxiliary J/K fitting basis                 ... NOT available
Auxiliary Correlation fitting basis         ... NOT available
Auxiliary 'external' fitting basis          ... NOT available

Checking pre-screening integrals            ... done (  0.0 sec) Dimension = 42
   => SHARK Basis and OBASIS are compatible. Storing Pre-screening
Shell pair information
Shell pair cut-off parameter TPreSel        ...   2.5e-12
Total number of shell pairs                 ...       903
Shell pairs after pre-screening             ...       828
Total number of primitive shell pairs       ...      4124
Primitive shell pairs kept                  ...      2902
          la=0 lb=0:    224 shell pairs
          la=1 lb=0:    286 shell pairs
          la=1 lb=1:    100 shell pairs
          la=2 lb=0:    120 shell pairs
          la=2 lb=1:     79 shell pairs
          la=2 lb=2:     19 shell pairs

Checking whether 4 symmetric matrices of dimension 94 fit in memory
:Max Core in MB      =   4096.00
 MB in use           =      4.40
 MB left             =   4091.60
 MB needed           =      0.14
 Data fit in memory  = YES
Calculating RI/J V-Matrix + Cholesky decomp.... done (  0.1 sec)
Calculating Nuclear repulsion               ... done (  0.0 sec) ENN=    139.918654613498 Eh

Diagonalization of the overlap matrix:
Smallest eigenvalue                        ... 6.273e-03
Time for diagonalization                   ...    0.001 sec
Threshold for overlap eigenvalues          ... 1.000e-07
Number of eigenvalues below threshold      ... 0
Time for construction of square roots      ...    0.001 sec
Total time needed                          ...    0.003 sec

-------------------
DFT GRID GENERATION
-------------------

General Integration Accuracy     IntAcc      ... 4.388
Radial Grid Type                 RadialGrid  ... OptM3 with GC (2021)
Angular Grid (max. ang.)         AngularGrid ... 4 (Lebedev-302)
Angular grid pruning method      GridPruning ... 4 (adaptive)
Weight generation scheme         WeightScheme... mBecke (2022)
Basis function cutoff            BFCut       ... 1.0000e-11
Integration weight cutoff        WCut        ... 1.0000e-14
Partially contracted basis set               ... off
Rotationally invariant grid construction     ... off
Angular grids for H and He will be reduced by one unit
Core-polarized basis detected: some atoms will have their core
                               angular grid increased.

Total number of grid points                  ...    33372
Total number of batches                      ...      524
Average number of points per batch           ...       63
Average number of grid points per atom       ...     5562
Grids setup in   1.0 sec
Initializing property integral containers    ... done (  0.0 sec)

SHARK setup successfully completed in   1.5 seconds

Maximum memory used throughout the entire STARTUP-calculation: 13.2 MB


           ************************************************************
           *        Program running with 8 parallel MPI-processes     *
           *              working on a common directory               *
           ************************************************************
-------------------------------------------------------------------------------
                                 ORCA GUESS
                   Start orbitals & Density for SCF / CASSCF
-------------------------------------------------------------------------------

------------
SCF SETTINGS
------------
Hamiltonian:
 Density Functional     Method          .... DFT(GTOs)
  Functional kind                       .... Exchange
  Functional name                       .... Re-regularized SCAN exchange by Furness et al
  Functional family                     .... MGGA
  Functional refs                              
    [ 0] J. W. Furness, A. D. Kaplan, J. Ning, J. P. Perdew, and J. Sun.,  J. Phys. Chem. Lett. 11, 8208-8215 (2020), doi: 10.1021/acs.jpclett.0c02405
    [ 1] J. W. Furness, A. D. Kaplan, J. Ning, J. P. Perdew, and J. Sun.,  J. Phys. Chem. Lett. 11, 9248-9248 (2020), doi: 10.1021/acs.jpclett.0c03077
  Functional external parameters        .... 6
    Parameter  0 _c1        =  6.670000e-01 : c1 parameter        
    Parameter  1 _c2        =  8.000000e-01 : c2 parameter        
    Parameter  2 _d         =  1.240000e+00 : d parameter         
    Parameter  3 _k1        =  6.500000e-02 : k1 parameter        
    Parameter  4 _eta       =  1.000000e-03 : eta parameter       
    Parameter  5 _dp2       =  3.610000e-01 : dp2 parameter       
  Functional kind                       .... Correlation
  Functional name                       .... Re-regularized SCAN correlation by Furness et al
  Functional family                     .... MGGA
  Functional refs                              
    [ 0] J. W. Furness, A. D. Kaplan, J. Ning, J. P. Perdew, and J. Sun.,  J. Phys. Chem. Lett. 11, 8208-8215 (2020), doi: 10.1021/acs.jpclett.0c02405
    [ 1] J. W. Furness, A. D. Kaplan, J. Ning, J. P. Perdew, and J. Sun.,  J. Phys. Chem. Lett. 11, 9248-9248 (2020), doi: 10.1021/acs.jpclett.0c03077
  Functional external parameters        .... 1
    Parameter  0 _eta       =  1.000000e-03 : Regularization parameter
 Gradients option       PostSCFGGA      .... off
 RI-approximation to the Coulomb term is turned on
   Number of AuxJ basis functions       .... 156


General Settings:
 Integral files         IntName         .... reactant_optfreq
 Hartree-Fock type      HFTyp           .... RHF
 Total Charge           Charge          ....   -1
 Multiplicity           Mult            ....    1
 Number of Electrons    NEL             ....   54
 Basis Dimension        Dim             ....   94
 Nuclear Repulsion      ENuc            ....    139.9186546135 Eh

Convergence Acceleration:
 AO-DIIS                CNVDIIS         .... on
   Start iteration      DIISMaxIt       ....    12
   Startup error        DIISStart       ....  0.200000
   # of expansion vecs  DIISMaxEq       ....     5
   Bias factor          DIISBfac        ....   1.050
   Max. coefficient     DIISMaxC        ....  10.000
 MO-DIIS                CNVKDIIS        .... off
 Trust-Rad. Augm. Hess. CNVTRAH         .... auto
   Auto Start mean grad. ratio tolernc. ....  1.125000
   Auto Start start iteration           ....    50
   Auto Start num. interpolation iter.  ....    10
   Max. Number of Micro iterations      ....    24
   Max. Number of Macro iterations      .... Maxiter - #DIIS iter
   Number of Davidson start vectors     ....     2
   Converg. threshold    (grad. norm)   ....   1.000e-05
   Grad. Scal. Fac. for Micro threshold ....   0.100
   Minimum threshold for Micro iter.    ....   1.000e-02
   NR start threshold (gradient norm)   ....   1.000e-04
   Initial trust radius                 ....   0.400
   Minimum AH scaling param. (alpha)    ....   1.000
   Maximum AH scaling param. (alpha)    .... 1000.000
   Quad. conv. algorithm                .... NR
   White noise on init. David. guess    .... on
   Maximum white noise                  ....   0.010
   Pseudo random numbers                .... off
   Inactive MOs                         .... canonical
   Orbital update algorithm             .... Taylor
   Preconditioner                       .... Diag
   Full preconditioner red. dimension   ....   250
   COSX micro iterations for RIJONX calc.... off
 SOSCF                 CNVSOSCF           .... on
   Start iteration     SOSCFMaxIt         ....   150
   Startup grad/error  SOSCFStart         ....  0.003300
   Hessian update      SOSCFHessUp        .... L-BFGS
   Autom. constraints  SOSCFAutoConstrain .... off
 Level Shifting         CNVShift        .... on
   Level shift para.    LevelShift      ....    0.2500
   Turn off err/grad.   ShiftErr        ....    0.0010
 Zerner damping         CNVZerner       .... off
 Static damping         CNVDamp         .... on
   Fraction old density DampFac         ....    0.7000
   Max. Damping (<1)    DampMax         ....    0.9800
   Min. Damping (>=0)   DampMin         ....    0.0000
   Turn off err/grad.   DampErr         ....    0.1000

SCF Procedure:
 Maximum # iterations   MaxIter         ....   150
 SCF integral mode      SCFMode         .... Direct
   Integral package                     .... SHARK and LIBINT hybrid scheme
 Reset frequency        DirectResetFreq ....    20
 Integral Threshold     Thresh          ....  2.500e-11 Eh
 Primitive CutOff       TCut            ....  2.500e-12 Eh

Convergence Tolerance:
 Convergence Check Mode ConvCheckMode   .... Total+1el-Energy
 Convergence forced     ConvForced      .... 0
 Energy Change          TolE            ....  1.000e-08 Eh
 1-El. energy change                    ....  1.000e-05 Eh
 Orbital Gradient       TolG            ....  1.000e-05
 Orbital Rotation angle TolX            ....  1.000e-05
 DIIS Error             TolErr          ....  5.000e-07

------------------------------
INITIAL GUESS: MODEL POTENTIAL
------------------------------
Loading Hartree-Fock densities                     ... done
Calculating cut-offs                               ... done
Initializing the effective Hamiltonian             ... done
Setting up the integral package (SHARK)            ... done
Starting the Coulomb interaction                   ... done (   0.1 sec)
Making the grid                                    ... done (   0.3 sec)
Mapping shells                                     ... done
Starting the XC term evaluation                    ... done (   0.0 sec)
  promolecular density results
     # of electrons  =     52.998253605
     EX              =   -105.160608854
     EC              =     -2.290624314
     EX+EC           =   -107.451233167
Transforming the Hamiltonian                       ... done (   0.0 sec)
Diagonalizing the Hamiltonian                      ... done (   0.0 sec)
Back transforming the eigenvectors                 ... done (   0.0 sec)
Now organizing SCF variables                       ... done
                      ------------------
                      INITIAL GUESS DONE (   0.5 sec)
                      ------------------
             **** ENERGY FILE WAS UPDATED (reactant_optfreq.en.tmp) ****
Finished Guess after   1.0 sec
Maximum memory used throughout the entire GUESS-calculation: 7.2 MB


           ************************************************************
           *        Program running with 8 parallel MPI-processes     *
           *              working on a common directory               *
           ************************************************************

-------------------------------------------------------------------------------------------
                                      ORCA LEAN-SCF
                              memory conserving SCF solver
-------------------------------------------------------------------------------------------

----------------------------------------D-I-I-S--------------------------------------------
Iteration    Energy (Eh)           Delta-E    RMSDP     MaxDP     DIISErr   Damp  Time(sec)
-------------------------------------------------------------------------------------------
               ***  Starting incremental Fock matrix formation  ***
    1    -2713.7415627421291902     0.00e+00  1.34e-02  7.23e-02  3.66e-01  0.700   0.2
    2    -2713.8272963203053223    -8.57e-02  8.94e-03  4.67e-02  9.53e-02  0.700   0.4
                               ***Turning on AO-DIIS***
    3    -2713.8502053400297882    -2.29e-02  4.60e-03  2.98e-02  3.81e-02  0.700   0.5
    4    -2713.8669098778686930    -1.67e-02  9.24e-03  6.26e-02  3.10e-02  0.000   0.5
    5    -2713.9076359554665032    -4.07e-02  2.49e-03  1.70e-02  1.81e-02  0.000   0.5
    6    -2713.9087221428735575    -1.09e-03  1.02e-03  7.64e-03  5.85e-03  0.000   0.5
                              *** Initializing SOSCF ***
---------------------------------------S-O-S-C-F--------------------------------------
Iteration    Energy (Eh)           Delta-E    RMSDP     MaxDP     MaxGrad    Time(sec)
--------------------------------------------------------------------------------------
    7    -2713.9088610150201930    -1.39e-04  4.68e-04  3.87e-03  1.90e-03     0.6
               *** Restarting incremental Fock matrix formation ***
    8    -2713.9088821546642976    -2.11e-05  4.59e-04  3.51e-03  5.55e-04     0.5
    9    -2713.9088810410421502     1.11e-06  1.72e-04  1.26e-03  7.68e-04     0.4
   10    -2713.9088858928253103    -4.85e-06  1.23e-04  8.80e-04  3.98e-04     0.5
   11    -2713.9088854400806667     4.53e-07  6.21e-05  2.97e-04  4.72e-04     0.5
   12    -2713.9088867375830887    -1.30e-06  5.53e-05  3.74e-04  8.87e-05     0.3
   13    -2713.9088867957948423    -5.82e-08  1.97e-05  1.05e-04  7.54e-05     0.2
   14    -2713.9088868474254923    -5.16e-08  9.15e-06  7.06e-05  1.34e-05     0.4
   15    -2713.9088868487665422    -1.34e-09  4.53e-06  3.49e-05  9.57e-06     0.5
                 **** Energy Check signals convergence ****

               *****************************************************
               *                     SUCCESS                       *
               *           SCF CONVERGED AFTER  15 CYCLES          *
               *****************************************************

             **** ENERGY FILE WAS UPDATED (reactant_optfreq.en.tmp) ****

----------------
TOTAL SCF ENERGY
----------------

Total Energy       :      -2713.90888684959327 Eh          -73849.21523 eV

Components:
Nuclear Repulsion  :        139.91865461349838 Eh            3807.38016 eV
Electronic Energy  :      -2853.82754146309162 Eh          -77656.59539 eV
One Electron Energy:      -4066.38042093023887 Eh         -110651.83668 eV
Two Electron Energy:       1212.55287946714748 Eh           32995.24130 eV

Virial components:
Potential Energy   :      -5423.96918375978566 Eh         -147593.70501 eV
Kinetic Energy     :       2710.06029691019285 Eh           73744.48978 eV
Virial Ratio       :          2.00142011229189

DFT components:
N(Alpha)           :       27.000004833297 electrons
N(Beta)            :       27.000004833297 electrons
N(Total)           :       54.000009666593 electrons
E(X)               :     -106.143690879734 Eh       
E(C)               :       -2.324236055240 Eh       
E(XC)              :     -108.467926934974 Eh       

---------------
SCF CONVERGENCE
---------------

  Last Energy change         ...    1.3410e-09  Tolerance :   1.0000e-08
  Last MAX-Density change    ...    3.4929e-05  Tolerance :   1.0000e-07
  Last RMS-Density change    ...    4.5270e-06  Tolerance :   5.0000e-09
  Last DIIS Error            ...    1.9022e-03  Tolerance :   5.0000e-07
  Last Orbital Gradient      ...    9.5657e-06  Tolerance :   1.0000e-05
  Last Orbital Rotation      ...    1.5320e-05  Tolerance :   1.0000e-05


----------------
ORBITAL ENERGIES
----------------

  NO   OCC          E(Eh)            E(eV) 
   0   2.0000    -482.013035    -13116.2415 
   1   2.0000     -62.085696     -1689.4377 
   2   2.0000     -55.866042     -1520.1923 
   3   2.0000     -55.863591     -1520.1256 
   4   2.0000     -55.863550     -1520.1245 
   5   2.0000     -24.119700      -656.3304 
   6   2.0000      -9.906072      -269.5579 
   7   2.0000      -8.417265      -229.0454 
   8   2.0000      -6.220646      -169.2724 
   9   2.0000      -6.213158      -169.0686 
  10   2.0000      -6.213152      -169.0685 
  11   2.0000      -2.319223       -63.1093 
  12   2.0000      -2.317443       -63.0608 
  13   2.0000      -2.317432       -63.0605 
  14   2.0000      -2.311760       -62.9062 
  15   2.0000      -2.311758       -62.9061 
  16   2.0000      -0.752003       -20.4630 
  17   2.0000      -0.542171       -14.7532 
  18   2.0000      -0.456199       -12.4138 
  19   2.0000      -0.234243        -6.3741 
  20   2.0000      -0.230604        -6.2751 
  21   2.0000      -0.140824        -3.8320 
  22   2.0000      -0.074577        -2.0293 
  23   2.0000      -0.074268        -2.0209 
  24   2.0000      -0.031595        -0.8597 
  25   2.0000      -0.026716        -0.7270 
  26   2.0000      -0.024402        -0.6640 
  27   0.0000       0.139996         3.8095 
  28   0.0000       0.272271         7.4089 
  29   0.0000       0.345234         9.3943 
  30   0.0000       0.346296         9.4232 
  31   0.0000       0.373529        10.1643 
  32   0.0000       0.375137        10.2080 
  33   0.0000       0.382227        10.4009 
  34   0.0000       0.434264        11.8169 
  35   0.0000       0.447293        12.1715 
  36   0.0000       0.450129        12.2486 
  37   0.0000       0.537534        14.6270 
*Only the first 10 virtual orbitals were printed.

                    ********************************
                    * MULLIKEN POPULATION ANALYSIS *
                    ********************************

-----------------------
MULLIKEN ATOMIC CHARGES
-----------------------
   0 C :   -0.218818
   1 H :    0.165386
   2 H :    0.165588
   3 H :    0.192494
   4 F :   -0.733406
   5 Br:   -0.571244
Sum of atomic charges:   -1.0000000

--------------------------------
MULLIKEN REDUCED ORBITAL CHARGES
--------------------------------
  0 C s       :     3.319855  s :     3.319855
      pz      :     0.640212  p :     2.875079
      px      :     1.124809
      py      :     1.110057
      dz2     :     0.011454  d :     0.023885
      dxz     :     0.001641
      dyz     :     0.001516
      dx2y2   :     0.004982
      dxy     :     0.004291

  1 H s       :     0.815366  s :     0.815366
      pz      :     0.003939  p :     0.019249
      px      :     0.003484
      py      :     0.011825

  2 H s       :     0.815157  s :     0.815157
      pz      :     0.003947  p :     0.019254
      px      :     0.009765
      py      :     0.005543

  3 H s       :     0.786751  s :     0.786751
      pz      :     0.005511  p :     0.020755
      px      :     0.009757
      py      :     0.005487

  4 F s       :     3.981745  s :     3.981745
      pz      :     1.785515  p :     5.753511
      px      :     1.982509
      py      :     1.985487
      dz2     :    -0.000297  d :    -0.001850
      dxz     :    -0.000784
      dyz     :    -0.000735
      dx2y2   :    -0.000027
      dxy     :    -0.000007

  5 Brs       :     7.961770  s :     7.961770
      pz      :     5.598428  p :    17.588395
      px      :     5.994384
      py      :     5.995583
      dz2     :     2.012156  d :    10.021080
      dxz     :     2.004462
      dyz     :     2.004345
      dx2y2   :     2.000084
      dxy     :     2.000033



                     *******************************
                     * LOEWDIN POPULATION ANALYSIS *
                     *******************************

----------------------
LOEWDIN ATOMIC CHARGES
----------------------
   0 C :   -0.354510
   1 H :    0.153744
   2 H :    0.153830
   3 H :    0.167846
   4 F :   -0.749612
   5 Br:   -0.371298

-------------------------------
LOEWDIN REDUCED ORBITAL CHARGES
-------------------------------
  0 C s       :     3.106200  s :     3.106200
      pz      :     0.803603  p :     3.192845
      px      :     1.197819
      py      :     1.191423
      dz2     :     0.024124  d :     0.055465
      dxz     :     0.003029
      dyz     :     0.002688
      dx2y2   :     0.013614
      dxy     :     0.012012

  1 H s       :     0.799863  s :     0.799863
      pz      :     0.008103  p :     0.046393
      px      :     0.007857
      py      :     0.030433

  2 H s       :     0.799758  s :     0.799758
      pz      :     0.008122  p :     0.046412
      px      :     0.024936
      py      :     0.013354

  3 H s       :     0.781028  s :     0.781028
      pz      :     0.012279  p :     0.051126
      px      :     0.025364
      py      :     0.013484

  4 F s       :     3.944501  s :     3.944501
      pz      :     1.793045  p :     5.763873
      px      :     1.984058
      py      :     1.986770
      dz2     :     0.023820  d :     0.041238
      dxz     :     0.009197
      dyz     :     0.007631
      dx2y2   :     0.000415
      dxy     :     0.000174

  5 Brs       :     7.824905  s :     7.824905
      pz      :     5.558146  p :    17.517493
      px      :     5.979118
      py      :     5.980229
      dz2     :     2.019150  d :    10.028900
      dxz     :     2.004925
      dyz     :     2.004678
      dx2y2   :     2.000105
      dxy     :     2.000042



                      *****************************
                      * MAYER POPULATION ANALYSIS *
                      *****************************

  NA   - Mulliken gross atomic population
  ZA   - Total nuclear charge
  QA   - Mulliken gross atomic charge
  VA   - Mayer's total valence
  BVA  - Mayer's bonded valence
  FA   - Mayer's free valence

  ATOM       NA         ZA         QA         VA         BVA        FA
  0 C      6.2188     6.0000    -0.2188     3.7686     3.7686     0.0000
  1 H      0.8346     1.0000     0.1654     0.9542     0.9542    -0.0000
  2 H      0.8344     1.0000     0.1656     0.9542     0.9542    -0.0000
  3 H      0.8075     1.0000     0.1925     0.9529     0.9529     0.0000
  4 F      9.7334     9.0000    -0.7334     0.3742     0.3742     0.0000
  5 Br    35.5712    35.0000    -0.5712     0.6573     0.6573     0.0000

  Mayer bond orders larger than 0.100000
B(  0-C ,  1-H ) :   0.9650 B(  0-C ,  2-H ) :   0.9650 B(  0-C ,  3-H ) :   0.9606 
B(  0-C ,  4-F ) :   0.3040 B(  0-C ,  5-Br) :   0.5740 

-------
TIMINGS
-------

Total SCF time: 0 days 0 hours 0 min 7 sec 

Total time                  ....       7.784 sec
Sum of individual times     ....       6.996 sec  ( 89.9%)

SCF preparation             ....       0.572 sec  (  7.3%)
Fock matrix formation       ....       4.960 sec  ( 63.7%)
  Startup                   ....       0.027 sec  (  0.5% of F)
  Split-RI-J                ....       1.039 sec  ( 21.0% of F)
  XC integration            ....       3.612 sec  ( 72.8% of F)
    XC Preparation          ....       0.000 sec  (  0.0% of XC)
    Basis function eval.    ....       0.507 sec  ( 14.0% of XC)
    Density eval.           ....       0.525 sec  ( 14.5% of XC)
    XC-Functional eval.     ....       0.717 sec  ( 19.9% of XC)
    XC-Potential eval.      ....       0.589 sec  ( 16.3% of XC)
Diagonalization             ....       0.000 sec  (  0.0%)
Density matrix formation    ....       0.149 sec  (  1.9%)
Total Energy calculation    ....       0.214 sec  (  2.8%)
Population analysis         ....       0.100 sec  (  1.3%)
Orbital Transformation      ....       0.012 sec  (  0.1%)
Orbital Orthonormalization  ....       0.000 sec  (  0.0%)
DIIS solution               ....       0.507 sec  (  6.5%)
SOSCF solution              ....       0.481 sec  (  6.2%)
Finished LeanSCF after   7.8 sec

Maximum memory used throughout the entire LEANSCF-calculation: 6.5 MB


           ************************************************************
           *        Program running with 8 parallel MPI-processes     *
           *              working on a common directory               *
           ************************************************************

------------------------------------------------------------------------------
                         ORCA PROPERTY INTEGRAL CALCULATIONS
------------------------------------------------------------------------------

GBWName                                   ... reactant_optfreq.gbw
Number of atoms                           ...      6
Number of basis functions                 ...     94
Max core memory                           ...   4096 MB

Dipole integrals                          ... YES
Quadrupole integrals                      ...  NO
Linear momentum integrals                 ...  NO
Angular momentum integrals                ...  NO
Higher moments length integrals           ...  NO
Higher moments velocity integrals         ...  NO
Kinetic energy integrals                  ...  NO
GIAO right hand sides                     ...  NO
GIAO dipole derivative integrals          ...  NO
SOC integrals                             ...  NO
EPR diamagnetic integrals (GIAO)          ...  NO
EPR gauge integrals                       ...  NO
Field gradient integrals                  ...  NO (   0 nuclei)
Spin-dipole/Fermi contact integrals       ...  NO (   0 nuclei)
Contact density integrals                 ...  NO (   0 nuclei)
Nucleus-orbit integrals                   ...  NO (   0 nuclei)
Geometric perturbations                   ...  NO (   6 nuclei)

Choice of electric origin   ... Center of mass
Position of electric origin ... ( -0.4067, -0.2346, -2.2669) 
Choice of magnetic origin   ... GIAO
Position of magnetic origin ... (  0.0000,  0.0000,  0.0000) 

Calculating integrals                     ... Electric Dipole (Length)     done (  0.0 sec)

Property integrals calculated in   0.0 sec

Maximum memory used throughout the entire PROPINT-calculation: 7.0 MB


-------------------------------------------------------------------------------
                          DFT DISPERSION CORRECTION                            
                                                                               
                                DFTD4 V3.4.0                                   
-------------------------------------------------------------------------------
The R2SCAN3C composite method is recognized
Using three-body term ABC
Active option DFTDOPT                   ...         5   

-------------------------   ----------------
Dispersion correction           -0.000868409
-------------------------   ----------------

------------------   -----------------
gCP correction             0.004045553
------------------   -----------------

-------------------------   --------------------
FINAL SINGLE POINT ENERGY     -2713.905709705501
-------------------------   --------------------



           ************************************************************
           *        Program running with 8 parallel MPI-processes     *
           *              working on a common directory               *
           ************************************************************
------------------------------------------------------------------------------
                         ORCA SCF GRADIENT CALCULATION
------------------------------------------------------------------------------

Nuc. rep. gradient        (SHARK) ... done (  0.0 sec)
HCore & Overlap gradient  (SHARK) ... done (  0.0 sec)
Split-RIJ-J gradient      (SHARK) ... done (  1.1 sec)
XC gradient                       ... done (  0.3 sec)
Dispersion correction             ... done (  0.0 sec)

-------------------
DISPERSION GRADIENT
-------------------

   1   C   :    0.000000515    0.000000301    0.000003094
   2   H   :   -0.000000202   -0.000001957    0.000003463
   3   H   :   -0.000001798    0.000000811    0.000003472
   4   H   :    0.000002158    0.000001237    0.000004908
   5   F   :   -0.000000674   -0.000000388    0.000023725
   6   Br  :    0.000000001   -0.000000005   -0.000038661

Difference to translation invariance:
           :    0.0000000000    0.0000000000    0.0000000000

Difference to rotation invariance:
           :    0.0000000000    0.0000000000    0.0000000000

Norm of the Dispersion gradient    ...    0.0000461538
RMS gradient                       ...    0.0000108786
MAX gradient                       ...    0.0000386613
gCP correction                   ... done

------------------
CARTESIAN GRADIENT
------------------

   1   C   :   -0.002485953   -0.001462379   -0.014500807
   2   H   :    0.002146358   -0.003619451    0.000052018
   3   H   :   -0.002046291    0.003709236    0.000061079
   4   H   :    0.007682176    0.004437574    0.001779871
   5   F   :   -0.003801098   -0.002204618   -0.000650167
   6   Br  :   -0.001495192   -0.000860362    0.013258007

Difference to translation invariance:
           :    0.0000000000    0.0000000000    0.0000000001

Difference to rotation invariance:
           :    0.0000225103   -0.0000313677    0.0000081191

Norm of the Cartesian gradient     ...    0.0231216173
RMS gradient                       ...    0.0054498175
MAX gradient                       ...    0.0145008072

-------
TIMINGS
-------

Total SCF gradient time     ....        1.597 sec

Densities                   ....       0.000 sec  (  0.0%)
One electron gradient       ....       0.008 sec  (  0.5%)
RI-J Coulomb gradient       ....       1.101 sec  ( 68.9%)
XC gradient                 ....       0.323 sec  ( 20.2%)

Maximum memory used throughout the entire SCFGRAD-calculation: 26.7 MB
------------------------------------------------------------------------------
                         ORCA GEOMETRY RELAXATION STEP
------------------------------------------------------------------------------

Reading the OPT-File                    .... done
Getting information on internals        .... done
Copying old internal coords+grads       .... done
Making the new internal coordinates     .... (2022 redundants) done
Validating the new internal coordinates .... (2022 redundants) done
Calculating the B-matrix                .... done
Calculating the G,G- and P matrices     .... done
Transforming gradient to internals      .... done
Projecting the internal gradient        .... done
Number of atoms                         ....   6
Number of internal coordinates          ....  18
Current Energy                          .... -2713.905709706 Eh
Current gradient norm                   ....     0.023121617 Eh/bohr
Maximum allowed component of the step   ....  0.300
Current trust radius                    ....  0.300
Evaluating the initial hessian          ....  (Almloef) done
Projecting the Hessian                  .... done
Forming the augmented Hessian           .... done
Diagonalizing the augmented Hessian     .... done
Last element of RFO vector              ....  0.988012621
Lowest eigenvalues of augmented Hessian:
 -0.002579572  0.018919643  0.059318029  0.071034232  0.097409271
Length of the computed step             ....  0.156246100
The final length of the internal step   ....  0.156246100
Converting the step to Cartesian space:
 Initial RMS(Int)=    0.0368275590
Transforming coordinates:
 Iter   0:  RMS(Cart)=    0.0351777647 RMS(Int)=    0.0369126999
done
Storing new coordinates                 .... done

                                .--------------------.
          ----------------------|Geometry convergence|-------------------------
          Item                value                   Tolerance       Converged
          ---------------------------------------------------------------------
          RMS gradient        0.0043882714            0.0001000000      NO
          MAX gradient        0.0131293559            0.0003000000      NO
          RMS step            0.0368275590            0.0020000000      NO
          MAX step            0.1336799253            0.0040000000      NO
          -------------------------------------------------------------------------
          ........................................................
          Max(Bonds)      0.0707      Max(Angles)    1.81
          Max(Dihed)        0.00      Max(Improp)    0.00
          ---------------------------------------------------------------------

The optimization has not yet converged - more geometry cycles are needed


    ---------------------------------------------------------------------------
                         Redundant Internal Coordinates
                            (Angstroem and degrees)

        Definition                    Value    dE/dq     Step     New-Value
    ----------------------------------------------------------------------------
     1. B(H   1,C   0)                1.0722 -0.003879  0.0049    1.0771   
     2. B(H   2,C   0)                1.0721 -0.003883  0.0050    1.0771   
     3. B(H   3,C   0)                1.0611 -0.007455  0.0108    1.0719   
     4. B(F   4,C   0)                2.0822  0.002012 -0.0018    2.0804   
     5. B(F   4,H   3)                2.0399 -0.004181  0.0303    2.0702   
     6. B(F   4,H   2)                2.2805  0.000807 -0.0072    2.2733   
     7. B(F   4,H   1)                2.2821  0.000827 -0.0073    2.2748   
     8. B(Br  5,C   0)                2.2309 -0.013129  0.0707    2.3016   
     9. A(H   1,C   0,H   3)          118.87  0.001101   -0.13    118.74   
    10. A(H   2,C   0,H   3)          118.88  0.001157   -0.14    118.75   
    11. A(H   1,C   0,Br  5)           98.63  0.002526   -0.54     98.09   
    12. A(H   2,C   0,Br  5)           98.63  0.002523   -0.54     98.09   
    13. A(H   3,C   0,Br  5)           97.45 -0.002939    0.18     97.64   
    14. A(H   1,C   0,F   4)           86.44  0.000354   -0.46     85.98   
    15. A(H   2,C   0,F   4)           86.35  0.000341   -0.45     85.90   
    16. A(H   3,C   0,F   4)           72.89 -0.002192    1.63     74.52   
    17. A(F   4,C   0,Br  5)          170.34 -0.005131    1.81    172.16   
    18. A(H   1,C   0,H   2)          116.21 -0.003223    0.69    116.90   
    ----------------------------------------------------------------------------

Geometry step timings:
Preparation and reading OPT file:      0.000 s ( 2.863 %)
Internal coordinates            :      0.000 s ( 3.231 %)
B/P matrices and projection     :      0.000 s (12.041 %)
Hessian update/contruction      :      0.000 s (32.966 %)
Making the step                 :      0.000 s (10.573 %)
Converting the step to Cartesian:      0.000 s ( 3.891 %)
Storing new data                :      0.000 s ( 7.489 %)
Checking convergence            :      0.000 s ( 4.993 %)
Final printing                  :      0.000 s (21.439 %)
Total time                      :      0.001 s

Time for energy+gradient        :     15.888 s
Time for complete geometry iter :     16.390 s

         *************************************************************
         *                GEOMETRY OPTIMIZATION CYCLE   2            *
         *************************************************************
---------------------------------
CARTESIAN COORDINATES (ANGSTROEM)
---------------------------------
  C     -0.108421   -0.061704    0.026615
  H     -0.089378    1.007913    0.152253
  H      0.825135   -0.583813    0.152994
  H     -1.022808   -0.586905    0.218820
  F     -0.270014   -0.155667    2.098555
  Br    -0.201525   -0.116413   -2.272498

----------------------------
CARTESIAN COORDINATES (A.U.)
----------------------------
  NO LB      ZA    FRAG     MASS         X           Y           Z
   0 C     6.0000    0    12.011   -0.204887   -0.116604    0.050295
   1 H     1.0000    0     1.008   -0.168900    1.904679    0.287716
   2 H     1.0000    0     1.008    1.559280   -1.103247    0.289117
   3 H     1.0000    0     1.008   -1.932826   -1.109089    0.413510
   4 F     9.0000    0    18.998   -0.510253   -0.294167    3.965694
   5 Br   35.0000    0    79.900   -0.380827   -0.219989   -4.294399

--------------------------------
INTERNAL COORDINATES (ANGSTROEM)
--------------------------------
 C      0   0   0     0.000000000000     0.00000000     0.00000000
 H      1   0   0     1.077138836405     0.00000000     0.00000000
 H      1   2   0     1.077078175895   116.89461303     0.00000000
 H      1   2   3     1.071858306140   118.73343047   153.24667302
 F      4   1   2     2.070282103168    75.55518287   283.57149944
 Br     1   2   3     2.301647892655    98.09589353   256.61155560

---------------------------
INTERNAL COORDINATES (A.U.)
---------------------------
 C      0   0   0     0.000000000000     0.00000000     0.00000000
 H      1   0   0     2.035497409015     0.00000000     0.00000000
 H      1   2   0     2.035382777266   116.89461303     0.00000000
 H      1   2   3     2.025518652973   118.73343047   153.24667302
 F      4   1   2     3.912266194947    75.55518287   283.57149944
 Br     1   2   3     4.349484173835    98.09589353   256.61155560



           ************************************************************
           *        Program running with 8 parallel MPI-processes     *
           *              working on a common directory               *
           ************************************************************
------------------------------------------------------------------------------
                   ___                                                        
                  /   \      - P O W E R E D   B Y -                         
                 /     \                                                     
                 |  |  |   _    _      __       _____    __    __             
                 |  |  |  | |  | |    /  \     |  _  \  |  |  /  |          
                  \  \/   | |  | |   /    \    | | | |  |  | /  /          
                 / \  \   | |__| |  /  /\  \   | |_| |  |  |/  /          
                |  |  |   |  __  | /  /__\  \  |    /   |      \           
                |  |  |   | |  | | |   __   |  |    \   |  |\   \          
                \     /   | |  | | |  |  |  |  | |\  \  |  | \   \       
                 \___/    |_|  |_| |__|  |__|  |_| \__\ |__|  \__/        
                                                                              
                      - O R C A' S   B I G   F R I E N D -                    
                                      &                                       
                       - I N T E G R A L  F E E D E R -                       
                                                                              
 v1 FN, 2020, v2 2021, v3 2022-2024                                           
------------------------------------------------------------------------------


----------------------
SHARK INTEGRAL PACKAGE
----------------------

Number of atoms                             ...      6
Number of basis functions                   ...     94
Number of shells                            ...     42
Maximum angular momentum                    ...      2
Integral batch strategy                     ... SHARK/LIBINT Hybrid
RI-J (if used) integral strategy            ... SPLIT-RIJ (Revised 2003 algorithm where possible)
Printlevel                                  ...      1
Contraction scheme used                     ... SEGMENTED contraction
Prescreening option                         ... SCHWARTZ
   Thresh                                   ... 2.500e-11
   Tcut                                     ... 2.500e-12
   Tpresel                                  ... 2.500e-12 
Coulomb Range Separation                    ... NOT USED
Exchange Range Separation                   ... NOT USED
Multipole approximations                    ... NOT USED
Finite Nucleus Model                        ... NOT USED
CABS basis                                  ... NOT available
Auxiliary Coulomb fitting basis             ... AVAILABLE
   # of basis functions in Aux-J            ...    156
   # of shells in Aux-J                     ...     58
   Maximum angular momentum in Aux-J        ...      4
Auxiliary J/K fitting basis                 ... NOT available
Auxiliary Correlation fitting basis         ... NOT available
Auxiliary 'external' fitting basis          ... NOT available

Checking pre-screening integrals            ... done (  0.0 sec) Dimension = 42
   => SHARK Basis and OBASIS are compatible. Storing Pre-screening
Shell pair information
Shell pair cut-off parameter TPreSel        ...   2.5e-12
Total number of shell pairs                 ...       903
Shell pairs after pre-screening             ...       828
Total number of primitive shell pairs       ...      4124
Primitive shell pairs kept                  ...      2897
          la=0 lb=0:    224 shell pairs
          la=1 lb=0:    286 shell pairs
          la=1 lb=1:    100 shell pairs
          la=2 lb=0:    120 shell pairs
          la=2 lb=1:     79 shell pairs
          la=2 lb=2:     19 shell pairs

Checking whether 4 symmetric matrices of dimension 94 fit in memory
:Max Core in MB      =   4096.00
 MB in use           =      4.47
 MB left             =   4091.53
 MB needed           =      0.14
 Data fit in memory  = YES
Calculating RI/J V-Matrix + Cholesky decomp.... done (  0.1 sec)
Calculating Nuclear repulsion               ... done (  0.0 sec) ENN=    137.151024797532 Eh

Diagonalization of the overlap matrix:
Smallest eigenvalue                        ... 6.414e-03
Time for diagonalization                   ...    0.001 sec
Threshold for overlap eigenvalues          ... 1.000e-07
Number of eigenvalues below threshold      ... 0
Time for construction of square roots      ...    0.001 sec
Total time needed                          ...    0.003 sec

-------------------
DFT GRID GENERATION
-------------------

General Integration Accuracy     IntAcc      ... 4.388
Radial Grid Type                 RadialGrid  ... OptM3 with GC (2021)
Angular Grid (max. ang.)         AngularGrid ... 4 (Lebedev-302)
Angular grid pruning method      GridPruning ... 4 (adaptive)
Weight generation scheme         WeightScheme... mBecke (2022)
Basis function cutoff            BFCut       ... 1.0000e-11
Integration weight cutoff        WCut        ... 1.0000e-14
Partially contracted basis set               ... off
Rotationally invariant grid construction     ... off
Angular grids for H and He will be reduced by one unit
Core-polarized basis detected: some atoms will have their core
                               angular grid increased.

Total number of grid points                  ...    33378
Total number of batches                      ...      524
Average number of points per batch           ...       63
Average number of grid points per atom       ...     5563
Grids setup in   0.6 sec
Initializing property integral containers    ... done (  0.0 sec)

SHARK setup successfully completed in   1.0 seconds

Maximum memory used throughout the entire STARTUP-calculation: 13.3 MB


           ************************************************************
           *        Program running with 8 parallel MPI-processes     *
           *              working on a common directory               *
           ************************************************************
Occupation numbers will be reassigned to an Aufbau configuration
             **** ENERGY FILE WAS UPDATED (reactant_optfreq.en.tmp) ****
Finished Guess after   0.6 sec
Maximum memory used throughout the entire GUESS-calculation: 6.9 MB


           ************************************************************
           *        Program running with 8 parallel MPI-processes     *
           *              working on a common directory               *
           ************************************************************
----------------------------------------D-I-I-S--------------------------------------------
Iteration    Energy (Eh)           Delta-E    RMSDP     MaxDP     DIISErr   Damp  Time(sec)
-------------------------------------------------------------------------------------------
               ***  Starting incremental Fock matrix formation  ***
    1    -2713.9099926628146022     0.00e+00  4.52e-04  2.41e-03  9.80e-03  0.700   0.5
    2    -2713.9101440542181081    -1.51e-04  4.81e-04  2.79e-03  6.72e-03  0.700   0.5
                               ***Turning on AO-DIIS***
    3    -2713.9102610106156135    -1.17e-04  4.10e-04  2.59e-03  4.05e-03  0.700   0.5
                              *** Initializing SOSCF ***
---------------------------------------S-O-S-C-F--------------------------------------
Iteration    Energy (Eh)           Delta-E    RMSDP     MaxDP     MaxGrad    Time(sec)
--------------------------------------------------------------------------------------
    4    -2713.9103420527330854    -8.10e-05  1.07e-03  7.09e-03  3.21e-03     0.7
               *** Restarting incremental Fock matrix formation ***
    5    -2713.9105320391008718    -1.90e-04  2.07e-04  9.38e-04  4.00e-04     0.7
    6    -2713.9105287584993675     3.28e-06  1.37e-04  7.64e-04  7.06e-04     0.4
    7    -2713.9105335815302169    -4.82e-06  5.92e-05  3.34e-04  1.21e-04     0.4
    8    -2713.9105328758273572     7.06e-07  4.09e-05  2.41e-04  3.21e-04     0.5
    9    -2713.9105337086698455    -8.33e-07  5.51e-06  4.28e-05  1.38e-05     0.7
   10    -2713.9105337078181037     8.52e-10  3.09e-06  2.68e-05  1.39e-05     0.5
                 **** Energy Check signals convergence ****

               *****************************************************
               *                     SUCCESS                       *
               *           SCF CONVERGED AFTER  10 CYCLES          *
               *****************************************************

             **** ENERGY FILE WAS UPDATED (reactant_optfreq.en.tmp) ****

----------------
TOTAL SCF ENERGY
----------------

Total Energy       :      -2713.91053371064709 Eh          -73849.26005 eV

Components:
Nuclear Repulsion  :        137.15102479753196 Eh            3732.06912 eV
Electronic Energy  :      -2851.06155850817913 Eh          -77581.32917 eV
One Electron Energy:      -4060.88831289279642 Eh         -110502.38883 eV
Two Electron Energy:       1209.82675438461729 Eh           32921.05966 eV

Virial components:
Potential Energy   :      -5423.89646133895531 Eh         -147591.72613 eV
Kinetic Energy     :       2709.98592762830822 Eh           73742.46609 eV
Virial Ratio       :          2.00144820164648

DFT components:
N(Alpha)           :       27.000002566937 electrons
N(Beta)            :       27.000002566937 electrons
N(Total)           :       54.000005133873 electrons
E(X)               :     -106.123091638799 Eh       
E(C)               :       -2.322084807495 Eh       
E(XC)              :     -108.445176446293 Eh       

---------------
SCF CONVERGENCE
---------------

  Last Energy change         ...   -8.5174e-10  Tolerance :   1.0000e-08
  Last MAX-Density change    ...    2.6818e-05  Tolerance :   1.0000e-07
  Last RMS-Density change    ...    3.0891e-06  Tolerance :   5.0000e-09
  Last DIIS Error            ...    3.2144e-03  Tolerance :   5.0000e-07
  Last Orbital Gradient      ...    1.3940e-05  Tolerance :   1.0000e-05
  Last Orbital Rotation      ...    9.4971e-06  Tolerance :   1.0000e-05


Total SCF time: 0 days 0 hours 0 min 6 sec 
Finished LeanSCF after   6.9 sec

Maximum memory used throughout the entire LEANSCF-calculation: 6.5 MB


           ************************************************************
           *        Program running with 8 parallel MPI-processes     *
           *              working on a common directory               *
           ************************************************************

------------------------------------------------------------------------------
                         ORCA PROPERTY INTEGRAL CALCULATIONS
------------------------------------------------------------------------------

GBWName                                   ... reactant_optfreq.gbw
Number of atoms                           ...      6
Number of basis functions                 ...     94
Max core memory                           ...   4096 MB

Dipole integrals                          ... YES
Quadrupole integrals                      ...  NO
Linear momentum integrals                 ...  NO
Angular momentum integrals                ...  NO
Higher moments length integrals           ...  NO
Higher moments velocity integrals         ...  NO
Kinetic energy integrals                  ...  NO
GIAO right hand sides                     ...  NO
GIAO dipole derivative integrals          ...  NO
SOC integrals                             ...  NO
EPR diamagnetic integrals (GIAO)          ...  NO
EPR gauge integrals                       ...  NO
Field gradient integrals                  ...  NO (   0 nuclei)
Spin-dipole/Fermi contact integrals       ...  NO (   0 nuclei)
Contact density integrals                 ...  NO (   0 nuclei)
Nucleus-orbit integrals                   ...  NO (   0 nuclei)
Geometric perturbations                   ...  NO (   6 nuclei)

Choice of electric origin   ... Center of mass
Position of electric origin ... ( -0.3786, -0.2183, -2.3363) 
Choice of magnetic origin   ... GIAO
Position of magnetic origin ... (  0.0000,  0.0000,  0.0000) 

Calculating integrals                     ... Electric Dipole (Length)     done (  0.0 sec)

Property integrals calculated in   0.0 sec

Maximum memory used throughout the entire PROPINT-calculation: 7.0 MB


-------------------------------------------------------------------------------
                          DFT DISPERSION CORRECTION                            
                                                                               
                                DFTD4 V3.4.0                                   
-------------------------------------------------------------------------------
-------------------------   ----------------
Dispersion correction           -0.000864037
-------------------------   ----------------

------------------   -----------------
gCP correction             0.003788600
------------------   -----------------

-------------------------   --------------------
FINAL SINGLE POINT ENERGY     -2713.907609147495
-------------------------   --------------------



           ************************************************************
           *        Program running with 8 parallel MPI-processes     *
           *              working on a common directory               *
           ************************************************************
------------------------------------------------------------------------------
                         ORCA SCF GRADIENT CALCULATION
------------------------------------------------------------------------------

Nuc. rep. gradient        (SHARK) ... done (  0.0 sec)
HCore & Overlap gradient  (SHARK) ... done (  0.0 sec)
Split-RIJ-J gradient      (SHARK) ... done (  0.9 sec)
XC gradient                       ... done (  0.7 sec)
Dispersion correction             ... done (  0.1 sec)

-------------------
DISPERSION GRADIENT
-------------------

   1   C   :   -0.000000952   -0.000000555   -0.000000904
   2   H   :   -0.000000162   -0.000003189    0.000003993
   3   H   :   -0.000002841    0.000001467    0.000004000
   4   H   :    0.000003138    0.000001801    0.000005221
   5   F   :    0.000000222    0.000000132    0.000012641
   6   Br  :    0.000000594    0.000000343   -0.000024951

Difference to translation invariance:
           :    0.0000000000    0.0000000000   -0.0000000000

Difference to rotation invariance:
           :    0.0000000000   -0.0000000000    0.0000000000

Norm of the Dispersion gradient    ...    0.0000296249
RMS gradient                       ...    0.0000069827
MAX gradient                       ...    0.0000249510
gCP correction                   ... done

------------------
CARTESIAN GRADIENT
------------------

   1   C   :    0.000774747    0.000441513   -0.018884349
   2   H   :    0.001635770   -0.000019700    0.002371309
   3   H   :    0.000810270    0.001442583    0.002385246
   4   H   :    0.001532976    0.000894494    0.005411997
   5   F   :   -0.003490526   -0.002023819    0.003336306
   6   Br  :   -0.001263236   -0.000735072    0.005379490

Difference to translation invariance:
           :    0.0000000000    0.0000000000   -0.0000000001

Difference to rotation invariance:
           :   -0.0000145277   -0.0000161911    0.0000101099

Norm of the Cartesian gradient     ...    0.0215653760
RMS gradient                       ...    0.0050830079
MAX gradient                       ...    0.0188843491

-------
TIMINGS
-------

Total SCF gradient time     ....        1.798 sec

Densities                   ....       0.000 sec  (  0.0%)
One electron gradient       ....       0.011 sec  (  0.6%)
RI-J Coulomb gradient       ....       0.894 sec  ( 49.8%)
XC gradient                 ....       0.682 sec  ( 37.9%)

Maximum memory used throughout the entire SCFGRAD-calculation: 26.7 MB
------------------------------------------------------------------------------
                         ORCA GEOMETRY RELAXATION STEP
------------------------------------------------------------------------------

Reading the OPT-File                    .... done
Getting information on internals        .... done
Copying old internal coords+grads       .... done
Making the new internal coordinates     .... (2022 redundants) done
Validating the new internal coordinates .... (2022 redundants) done
Calculating the B-matrix                .... done
Calculating the G,G- and P matrices     .... done
Transforming gradient to internals      .... done
Projecting the internal gradient        .... done
Number of atoms                         ....   6
Number of internal coordinates          ....  18
Current Energy                          .... -2713.907609147 Eh
Current gradient norm                   ....     0.021565376 Eh/bohr
Maximum allowed component of the step   ....  0.300
Current trust radius                    ....  0.300
Updating the Hessian (BFGS)             .... done
Forming the augmented Hessian           .... done
Diagonalizing the augmented Hessian     .... done
Last element of RFO vector              ....  0.955570813
Lowest eigenvalues of augmented Hessian:
 -0.003086187  0.019184327  0.037920318  0.059318233  0.084321916
Length of the computed step             ....  0.308466553
Warning: the length of the step is outside the trust region - taking restricted step instead
The input lambda is                     ....     0.017248
   iter:   5  x=    0.010491  g=  335.963800 f(x)=     0.877544
   iter:  10  x=   -0.003868  g=    6.431886 f(x)=     0.001432
The output lambda is                    ....    -0.003871 (13 iterations)
The final length of the internal step   ....  0.300000000
Converting the step to Cartesian space:
 Initial RMS(Int)=    0.0707106781
Transforming coordinates:
 Iter   0:  RMS(Cart)=    0.0572263039 RMS(Int)=    0.0704331506
done
Storing new coordinates                 .... done
The predicted energy change is          ....    -0.001680976
Previously predicted energy change      ....    -0.001321274
Actually observed energy change         ....    -0.001899442
Ratio of predicted to observed change   ....     1.437584245
New trust radius                        ....     0.300000000

                                .--------------------.
          ----------------------|Geometry convergence|-------------------------
          Item                value                   Tolerance       Converged
          ---------------------------------------------------------------------
          Energy change      -0.0018994420            0.0000050000      NO
          RMS gradient        0.0028823722            0.0001000000      NO
          MAX gradient        0.0053049814            0.0003000000      NO
          RMS step            0.0707106781            0.0020000000      NO
          MAX step            0.1918063154            0.0040000000      NO
          -------------------------------------------------------------------------
          ........................................................
[...]
Rotational constants in MHz :        157260.573007          1187.139661          1187.138874 

Dipole components along the rotational axes: 
x,y,z [a.u.] :     1.042881     0.000780     0.000243 
x,y,z [Debye]:     2.650792     0.001983     0.000619 

 

Dipole moment calculation done in   0.0 sec 

-----------
SCF HESSIAN
-----------

Occupied/Occupied contributions to the Hessian:
   => Occupied/Occupied contributions              ... done (  0.0 sec)
Perturbed density contributions to the Hessian:
   => Perturbed density contributions              ... done (  0.0 sec)
Explicit contributions to the Hessian:
   => Nuclear repulsion Hessian                    ... done (  0.0 sec)
   => HCore and overlap Hessian                    ... done (  0.3 sec)
   => RI-J Hessian                                 ... done (  0.9 sec)
   => XC-Hessian                                   ... done (  3.0 sec)
   => Van der Waals-Hessian                        ... done (  0.4 sec)
   => GCP-Hessian                                  ... done (  0.1 sec)
   => Explicit contributions done
Dipole derivatives                                 ... done (  0.0 sec)
Mass weighting the Hessian           ... done
Calculating normal modes             ... done
Scaling frequencies                  ... done

-----------------------
VIBRATIONAL FREQUENCIES
-----------------------

Scaling factor for frequencies =  1.000000000  (already applied!)

     0:       0.00 cm**-1
     1:       0.00 cm**-1
     2:       0.00 cm**-1
     3:       0.00 cm**-1
     4:       0.00 cm**-1
     5:       0.00 cm**-1
     6:      92.85 cm**-1
     7:      95.35 cm**-1
     8:      96.93 cm**-1
     9:     931.09 cm**-1
    10:    1138.28 cm**-1
    11:    1138.75 cm**-1
    12:    1418.29 cm**-1
    13:    1469.19 cm**-1
    14:    1469.30 cm**-1
    15:    3047.90 cm**-1
    16:    3160.37 cm**-1
    17:    3161.39 cm**-1


------------
NORMAL MODES
------------

These modes are the Cartesian displacements weighted by the diagonal matrix
M(i,i)=1/sqrt(m[i]) where m[i] is the mass of the displaced atom
Thus, these vectors are normalized but *not* orthogonal

                  0          1          2          3          4          5    
      0       0.000000   0.000000   0.000000   0.000000   0.000000   0.000000
      1       0.000000   0.000000   0.000000   0.000000   0.000000   0.000000
      2       0.000000   0.000000   0.000000   0.000000   0.000000   0.000000
      3       0.000000   0.000000   0.000000   0.000000   0.000000   0.000000
      4       0.000000   0.000000   0.000000   0.000000   0.000000   0.000000
      5       0.000000   0.000000   0.000000   0.000000   0.000000   0.000000
      6       0.000000   0.000000   0.000000   0.000000   0.000000   0.000000
      7       0.000000   0.000000   0.000000   0.000000   0.000000   0.000000
      8       0.000000   0.000000   0.000000   0.000000   0.000000   0.000000
      9       0.000000   0.000000   0.000000   0.000000   0.000000   0.000000
     10       0.000000   0.000000   0.000000   0.000000   0.000000   0.000000
     11       0.000000   0.000000   0.000000   0.000000   0.000000   0.000000
     12       0.000000   0.000000   0.000000   0.000000   0.000000   0.000000
     13       0.000000   0.000000   0.000000   0.000000   0.000000   0.000000
     14       0.000000   0.000000   0.000000   0.000000   0.000000   0.000000
     15       0.000000   0.000000   0.000000   0.000000   0.000000   0.000000
     16       0.000000   0.000000   0.000000   0.000000   0.000000   0.000000
     17       0.000000   0.000000   0.000000   0.000000   0.000000   0.000000
                  6          7          8          9         10         11    
      0       0.015230  -0.183840  -0.274645  -0.006239   0.077203  -0.103932
      1      -0.091841   0.271897  -0.181772  -0.004311  -0.103933  -0.077156
      2      -0.425580  -0.036265   0.014796   0.657430  -0.000033  -0.001793
      3       0.020218  -0.252538  -0.369861  -0.002897  -0.148405   0.187629
      4      -0.131088   0.383302  -0.256314  -0.083189   0.094637   0.070206
      5      -0.532752   0.285049  -0.202344   0.328555   0.610988   0.459084
      6       0.020788  -0.262186  -0.381027  -0.072950  -0.043558   0.149388
      7      -0.127931   0.379746  -0.245015   0.039233   0.142202   0.163370
      8      -0.353942  -0.385008  -0.159707   0.327943  -0.699917   0.304591
      9       0.017404  -0.252944  -0.394778   0.067518  -0.131202   0.098670
     10      -0.127293   0.371100  -0.256798   0.038832   0.197454   0.089294
     11      -0.376699  -0.006966   0.400243   0.327831   0.089374  -0.755053
     12      -0.002239   0.103912   0.154154   0.004486  -0.031302   0.042120
     13       0.055059  -0.152581   0.102052   0.003058   0.042173   0.031293
     14      -0.416225  -0.035499   0.020133  -0.474207  -0.000027   0.000611
     15      -0.002494   0.012613   0.019086  -0.000024  -0.000086   0.000112
     16       0.005588  -0.018902   0.012624  -0.000014   0.000117   0.000085
     17       0.178881   0.015241  -0.007493   0.001507   0.000006   0.000016
                 12         13         14         15         16         17    
      0       0.001118   0.029931  -0.058450   0.000369   0.000398  -0.096315
      1       0.000886  -0.058541  -0.029919  -0.000017  -0.096322  -0.000394
      2      -0.092652  -0.000251  -0.001052  -0.040523  -0.000490  -0.000909
      3      -0.006692  -0.339414   0.665226  -0.002774   0.004126  -0.023241
      4       0.193234  -0.118832  -0.062471  -0.549629   0.776822   0.004979
      5       0.541131  -0.264986  -0.127182   0.167844  -0.243271  -0.001760
      6       0.163154   0.300571   0.253063  -0.478605  -0.348033   0.573600
      7      -0.105003   0.290418   0.581052   0.275696   0.177300  -0.343897
      8       0.540908   0.253325  -0.152163   0.169856   0.122541  -0.210671
      9      -0.174589  -0.378057  -0.103982   0.476659   0.339258   0.575094
     10      -0.102428   0.643482  -0.101817   0.273734   0.171562   0.343515
     11       0.537841   0.015516   0.295039   0.178964   0.126344   0.223054
     12       0.000242   0.002899  -0.005676   0.000014  -0.000005   0.001030
     13       0.000170  -0.005647  -0.002898   0.000015   0.001025   0.000004
     14      -0.027106  -0.000041  -0.000150  -0.001531   0.000011   0.000010
     15       0.000003   0.000071  -0.000137   0.000001  -0.000000   0.000035
     16       0.000006  -0.000140  -0.000071   0.000001   0.000035   0.000000
     17      -0.000063  -0.000001  -0.000004  -0.000062   0.000000   0.000000


-----------
IR SPECTRUM
-----------

 Mode   freq       eps      Int      T**2         TX        TY        TZ
       cm**-1   L/(mol*cm) km/mol    a.u.
----------------------------------------------------------------------------
  6:     92.85   0.001192    6.02  0.004006  ( 0.001837 -0.010040 -0.062465)
  7:     95.35   0.001208    6.10  0.003952  (-0.034919  0.051486 -0.009037)
  8:     96.93   0.001212    6.13  0.003903  (-0.052055 -0.034325  0.003871)
  9:    931.09   0.048534  245.27  0.016267  (-0.001216 -0.000711  0.127534)
 10:   1138.28   0.000496    2.51  0.000136  ( 0.006922 -0.009380 -0.000042)
 11:   1138.75   0.000493    2.49  0.000135  (-0.009317 -0.006953 -0.000100)
 12:   1418.29   0.000159    0.81  0.000035  (-0.000091 -0.000134  0.005921)
 13:   1469.19   0.001937    9.79  0.000411  (-0.009206  0.018072 -0.000018)
 14:   1469.30   0.001928    9.74  0.000410  ( 0.018000  0.009247  0.000173)
 15:   3047.90   0.003985   20.14  0.000408  ( 0.000191 -0.000030 -0.020199)
 16:   3160.37   0.002468   12.47  0.000244  ( 0.000067 -0.015610  0.000048)
 17:   3161.39   0.002423   12.24  0.000239  (-0.015463 -0.000065 -0.000155)

* The epsilon (eps) is given for a Dirac delta lineshape.
** The dipole moment derivative (T) already includes vibrational overlap.

The first frequency considered to be a vibration is 6
The total number of vibrations considered is 12


--------------------------
THERMOCHEMISTRY AT 298.15K
--------------------------

Temperature         ...   298.15 K
Pressure            ...     1.00 atm
Total Mass          ...   113.93 AMU
Quasi RRHO          ...     True
Cut-Off Frequency   ...     1.00 cm^-1

Throughout the following assumptions are being made:
  (1) The electronic state is orbitally nondegenerate
  (2) There are no thermally accessible electronically excited states
  (3) Hindered rotations indicated by low frequency modes are not
      treated as such but are treated as vibrations and this may
      cause some error
  (4) All equations used are the standard statistical mechanics
      equations for an ideal gas
  (5) All vibrations are strictly harmonic

freq.      92.85  E(vib)   ...       0.47 
freq.      95.35  E(vib)   ...       0.47 
freq.      96.93  E(vib)   ...       0.46 
freq.     931.09  E(vib)   ...       0.03 
freq.    1138.28  E(vib)   ...       0.01 
freq.    1138.75  E(vib)   ...       0.01 
freq.    1418.29  E(vib)   ...       0.00 
freq.    1469.19  E(vib)   ...       0.00 
freq.    1469.30  E(vib)   ...       0.00 
freq.    3047.90  E(vib)   ...       0.00 
freq.    3160.37  E(vib)   ...       0.00 
freq.    3161.39  E(vib)   ...       0.00 

------------
INNER ENERGY
------------

The inner energy is: U= E(el) + E(ZPE) + E(vib) + E(rot) + E(trans)
    E(el)   - is the total energy from the electronic structure calculation
              = E(kin-el) + E(nuc-el) + E(el-el) + E(nuc-nuc)
    E(ZPE)  - the the zero temperature vibrational energy from the frequency calculation
    E(vib)  - the the finite temperature correction to E(ZPE) due to population
              of excited vibrational states
    E(rot)  - is the rotational thermal energy
    E(trans)- is the translational thermal energy

Summary of contributions to the inner energy U:
Electronic energy                ...  -2713.95620474 Eh
Zero point energy                ...      0.03922932 Eh      24.62 kcal/mol
Thermal vibrational correction   ...      0.00234145 Eh       1.47 kcal/mol
Thermal rotational correction    ...      0.00141627 Eh       0.89 kcal/mol
Thermal translational correction ...      0.00141627 Eh       0.89 kcal/mol
-----------------------------------------------------------------------
Total thermal energy                  -2713.91180144 Eh


Summary of corrections to the electronic energy:
(perhaps to be used in another calculation)
Total thermal correction                  0.00517399 Eh       3.25 kcal/mol
Non-thermal (ZPE) correction              0.03922932 Eh      24.62 kcal/mol
-----------------------------------------------------------------------
Total correction                          0.04440330 Eh      27.86 kcal/mol


--------
ENTHALPY
--------

The enthalpy is H = U + kB*T
                kB is Boltzmann's constant
Total thermal energy              ...  -2713.91180144 Eh 
Thermal Enthalpy correction       ...      0.00094421 Eh       0.59 kcal/mol
-----------------------------------------------------------------------
Total Enthalpy                    ...  -2713.91085723 Eh


Note: Only C1 symmetry has been detected, increase convergence thresholds 
      if your molecule has a higher symmetry. Symmetry factor of 1.0 is   
      used for the rotational entropy correction. 
 

Note: Rotational entropy computed according to Herzberg 
Infrared and Raman Spectra, Chapter V,1, Van Nostrand Reinhold, 1945 
Point Group:  C1, Symmetry Number:   1  
Rotational constants in cm-1:     5.245653     0.039599     0.039599 

Vibrational entropy computed according to the QRRHO of S. Grimme
Chem.Eur.J. 2012 18 9955 using a reference frequency of 100.0 cm-1


-------
ENTROPY
-------

The entropy contributions are T*S = T*(S(el)+S(vib)+S(rot)+S(trans))
     S(el)   - electronic entropy
     S(vib)  - vibrational entropy
     S(rot)  - rotational entropy
     S(trans)- translational entropy
The entropies will be listed as multiplied by the temperature to get
units of energy

Electronic entropy                ...      0.00000000 Eh      0.00 kcal/mol
Vibrational entropy               ...      0.00468597 Eh      2.94 kcal/mol
Rotational entropy                ...      0.01177709 Eh      7.39 kcal/mol
Translational entropy             ...      0.01905598 Eh     11.96 kcal/mol
-----------------------------------------------------------------------
Final entropy term                ...      0.03551904 Eh     22.29 kcal/mol

In case the symmetry of your molecule has not been determined correctly
or in case you have a reason to use a different symmetry number we print 
out the resulting rotational entropy values for sn=1,12:

 non-linear molecules -----------------------------------
|  sn= 1 | S(rot)=       0.01177709 Eh      7.39 kcal/mol|
|  sn= 2 | S(rot)=       0.01112263 Eh      6.98 kcal/mol|
|  sn= 3 | S(rot)=       0.01073980 Eh      6.74 kcal/mol|
|  sn= 4 | S(rot)=       0.01046818 Eh      6.57 kcal/mol|
|  sn= 5 | S(rot)=       0.01025749 Eh      6.44 kcal/mol|
|  sn= 6 | S(rot)=       0.01008534 Eh      6.33 kcal/mol|
|  sn= 7 | S(rot)=       0.00993980 Eh      6.24 kcal/mol|
|  sn= 8 | S(rot)=       0.00981372 Eh      6.16 kcal/mol|
|  sn= 9 | S(rot)=       0.00970251 Eh      6.09 kcal/mol|
|  sn=10 | S(rot)=       0.00960303 Eh      6.03 kcal/mol|
|  sn=11 | S(rot)=       0.00951304 Eh      5.97 kcal/mol|
|  sn=12 | S(rot)=       0.00943089 Eh      5.92 kcal/mol|
 linear molecules ---------------------------------------
|  Dinfh | S(rot)=       0.00837453 Eh      5.26 kcal/mol|
|  Cinfv | S(rot)=       0.00902898 Eh      5.67 kcal/mol|
 --------------------------------------------------------


-------------------
GIBBS FREE ENERGY
-------------------

The Gibbs free energy is G = H - T*S

Total enthalpy                    ...  -2713.91085723 Eh 
Total entropy correction          ...     -0.03551904 Eh    -22.29 kcal/mol
-----------------------------------------------------------------------
Final Gibbs free energy         ...  -2713.94637627 Eh

For completeness - the Gibbs free energy minus the electronic energy
G-E(el)                           ...      0.00982847 Eh      6.17 kcal/mol


Maximum memory used throughout the entire PROP-calculation: 30.9 MB

--------------------------------
SUGGESTED CITATIONS FOR THIS RUN
--------------------------------

Below you find a list of papers that are relevant to this ORCA run
We neither can nor want to force you to cite these papers, but we appreciate if you do
You receive ORCA, which is the product of decades of hard work by many enthusiastic individuals, for free
The only thing we kindly ask in return is that you cite our papers,
We deeply appreciate it, if you show your appreciation for ORCA by not just citing the generic ORCA reference.

Please note that relegating all ORCA citations to the supporting information does *not* help us.
SI sections are not indexed - citations you put there will not count into any citation statistics
But we need these citations in order to attract the funding resources that allow us to do what we are doing

Therefore, if you are a happy ORCA user, please consider citing a few of the papers listed below in the main body of your paper

In addition to the list printed below, the program has created the file reactant_optfreq.bibtex that contains the list in bibtex format
You can import this file easily into all common literature databanks and citation aid programs


List of essential papers. We consider these as the minimum necessary citations

  1. Grimme, S.; Hansen, A.; Ehlert, S.; Mewes, J.
     r2SCAN-3c: A 'Swiss army knife' composite electronic-structure method
     J. Chem. Phys. 2021 154 , 064103
     doi.org/10.1063/5.0040021
  2. Neese, F.
     Software update: the ORCA program system, version 6.0
     WIRES Comput. Molec. Sci. 2025 15(1), e70019
     doi.org/10.1002/wcms.7019

List of papers to cite with high priority. The work reported in these papers was absolutely
necessary for this run to complete.
Our perspective: the developers of density functionals and basis sets usually get cited in chemistry papers
Good! But without the algorithms to do something with them, the functionals or basis sets would not do anything.
Hence, in our opinion, the algorithm design and method developments papers are equally worthy of getting cited

  1. Neese, F.
     An improvement of the resolution of the identity approximation for the formation of the Coulomb matrix
     J. Comp. Chem. 2003 24(14), 1740-1747
     doi.org/10.1002/jcc.10318
  2. Bykov, D.; Petrenko, T.; Izsak, R.; Kossmann, S.; Becker, U.; Valeev, E.; Neese, F.
     Efficient implementation of the analytic second derivatives of Hartree-Fock and hybrid DFT energies: a detailed analysis of different approximations
     Molec. Phys. 2015 113 , 1961-1977
     doi.org/10.1080/00268976.2015.1025114
  3. Caldeweyher, E.; Bannwarth, C.; Grimme, S.
     Extension of the D3 dispersion coefficient model
     J. Chem. Phys. 2017 147 , 034112
     doi.org/10.1063/1.4993215
  4. Lehtola, S.; Steigemann, C.; Oliveira, M.; Marques, M.
     Recent developments in Libxc - A comprehensive library of functionals for density functional theory
     Software X 2018 7 , 
     doi.org/10.1016/j.softx.2017.11.002
  5. Caldeweyher, E.; Ehlert, S.; Hansen, A.; Neugebauer, H.; Spicher, S.; Bannwarth, C.; Grimme, S.
     A generally applicable atomic-charge dependent London dispersion correction
     J. Chem. Phys. 2019 150 , 154122
     doi.org/10.1063/1.5090222
  6. Caldeweyher, E.; Mewes, J.; Ehlert, S.; Grimme, S.
     Extension and evaluation of the D4 London-dispersion model for periodic systems
     Phys. Chem. Chem. Phys. 2020 22(16), 8499-8512
     doi.org/10.1039/D0CP00502A
  7. Neese, F.
     The SHARK Integral Generation and Digestion System
     J. Comp. Chem. 2022 44(3), 381
     doi.org/10.1002/jcc.26942
  8. Wittmann, L.; Gordiy, I.; Friede, M.; Helmich-Paris, B.; Grimme, S.; Hansen, A.; Bursch, M.
     Extension of the D3 and D4 London Dispersion Corrections to the full Actinides Series
     Phys. Chem. Chem. Phys. 2024 26(32), 21379-21394
     doi.org/10.1039/D4CP01514B

List of suggested additional citations. These are papers that are important in the 'surrounding' of 
of this run, or papers that preceded the highly important papers. If you like your results we are grateful for a citation.

  1. Neese, F.
     The ORCA program system
     WIRES Comput. Molec. Sci. 2012 2(1), 73-78
     doi.org/10.1002/wcms.81
  2. Neese, F.
     Software update: the ORCA program system, version 4.0
     WIRES Comput. Molec. Sci. 2018 8(1), 1-6
     doi.org/10.1002/wcms.1327
  3. Neese, F.; Wennmohs, F.; Becker, U.; Riplinger, C.
     The ORCA quantum chemistry program package
     J. Chem. Phys. 2020 152(22), 224108
     doi.org/10.1063/5.0004608
  4. Neese, F.
     Software update: The ORCA program system—Version 5.0
     WIRES Comput. Molec. Sci. 2022 12(1), e1606
     doi.org/10.1002/wcms.1606

List of optional additional citations

  1. Neese, F.
     Approximate second-order SCF convergence for spin unrestricted wavefunctions
     Chem. Phys. Lett. 2000 325(1-3), 93-98
     doi.org/10.1016/s0009-2614(00)00662-x

Timings for individual modules:

Sum of individual times          ...      286.379 sec (=   4.773 min)
Startup calculation              ...       41.740 sec (=   0.696 min)  14.6 %
SCF iterations                   ...      147.179 sec (=   2.453 min)  51.4 %
Property integrals               ...       27.128 sec (=   0.452 min)   9.5 %
SCF Response                     ...        4.892 sec (=   0.082 min)   1.7 %
Property calculations            ...        5.595 sec (=   0.093 min)   2.0 %
SCF Gradient evaluation          ...       59.732 sec (=   0.996 min)  20.9 %
Geometry relaxation              ...        0.113 sec (=   0.002 min)   0.0 %
                             ****ORCA TERMINATED NORMALLY****
TOTAL RUN TIME: 0 days 0 hours 5 minutes 8 seconds 979 msec
