
                                 *****************
                                 * O   R   C   A *
                                 *****************

                                            #,                                       
                                            ###                                      
                                            ####                                     
                                            #####                                    
                                            ######                                   
                                           ########,                                 
                                     ,,################,,,,,                         
                               ,,#################################,,                 
                          ,,##########################################,,             
                       ,#########################################, ''#####,          
                    ,#############################################,,   '####,        
                  ,##################################################,,,,####,       
                ,###########''''           ''''###############################       
              ,#####''   ,,,,##########,,,,          '''####'''          '####       
            ,##' ,,,,###########################,,,                        '##       
           ' ,,###''''                  '''############,,,                           
         ,,##''                                '''############,,,,        ,,,,,,###''
      ,#''                                            '''#######################'''  
     '                                                          ''''####''''         
             ,#######,   #######,   ,#######,      ##                                
            ,#'     '#,  ##    ##  ,#'     '#,    #''#        ,####,    ,#,          
            ##       ##  ##   ,#'  ##            #'  '#       #'       ,# #          
            ##       ##  #######   ##           ,######,      #####,      #          
            '#,     ,#'  ##    ##  '#,     ,#' ,#      #,     #,   #      #          
             '#######'   ##     ##  '#######'  #'      '#     '####' #    #          



                #########################################################
                #                        -***-                          #
                #          Department of theory and spectroscopy        #
                #                                                       #
                #                      Frank Neese                      #
                #                                                       #
                #     Directorship, Architecture, Infrastructure        #
                #                    SHARK, DRIVERS                     #
                #        Core code/Algorithms in most modules           #
                #                                                       #
                #        Max Planck Institute fuer Kohlenforschung      #
                #                Kaiser Wilhelm Platz 1                 #
                #                 D-45470 Muelheim/Ruhr                 #
                #                      Germany                          #
                #                                                       #
                #                  All rights reserved                  #
                #                        -***-                          #
                #########################################################


                         Program Version 6.1.0  -  RELEASE   -
                                (GIT: $679e74b$)
                          ($2025-06-10 18:02:51 +0200$)


 With contributions from (in alphabetic order):
[Max-Planck-Institut fuer Kohlenforschung]                               
  Daniel Aravena         : Magnetic Suceptibility                        
  Michael Atanasov       : Ab Initio Ligand Field Theory (pilot matlab implementation)
  Alexander A. Auer      : GIAO ZORA, VPT2 properties, NMR spectrum      
  Ute Becker             : All parallelization in ORCA, NUMFREQ, NUMCALC 
  Giovanni Bistoni       : ED, misc. LED, open-shell LED, HFLD           
  Dmytro Bykov           : pre 5.0 version of the SCF Hessian            
  Marcos Casanova-Páez   : Triplet and SCS-CIS(D). UHF-(DLPNO)-IP/EA/STEOM-CCSD. UHF-CVS-IP/STEOM-CCSD   
  Vijay G. Chilkuri      : MRCI spin determinant printing, contributions to CSF-ICE 
  Pauline Colinet        : FMM embedding                                 
  Dipayan Datta          : RHF DLPNO-CCSD density                        
  Achintya Kumar Dutta   : EOM-CC, STEOM-CC                              
  Nicolas Foglia         : Exact transition moments, OPA infrastructure, MCD improvements    
  Dmitry Ganyushin       : Spin-Orbit,Spin-Spin,Magnetic field MRCI      
  Miquel Garcia-Rates    : C-PCM and meta-GGA Hessian, CCSD/C-PCM, Gaussian charge scheme 
  Tiago L. C. Gouveia    : GS-ROHF, GS-ROCIS                             
  Yang Guo               : DLPNO-NEVPT2, F12-NEVPT2, CIM, IAO-localization        
  Andreas Hansen         : Spin unrestricted coupled pair/coupled cluster methods 
  Ingolf Harden          : AUTO-CI MPn and infrastructure                
  Benjamin Helmich-Paris : MC-RPA, TRAH-(SCF,CASSCF), AVAS, COSX integrals, SCF dyn. polar., MC-PDFT, srDFT 
  Lee Huntington         : MR-EOM, pCC                                   
  Robert Izsak           : Overlap fitted RIJCOSX, COSX-SCS-MP3, EOM     
  Riya Kayal             : Wick's Theorem for AUTO-CI, AUTO-CI UHF-CCSDT 
  Emily Kempfer          : AUTO-CI RHF CISDT and CCSDT, approximate NEVPT4
  Christian Kollmar      : KDIIS, OOCD, Brueckner-CCSD(T), CCSD density, CASPT2, CASPT2-K, improved NEVPT2 
  Axel Koslowski         : Symmetry handling                             
  Simone Kossmann        : meta-GGA functionals, TD-DFT gradient, OOMP2, (MP2 Hessian; deprecated post 5.0) 
  Lucas Lang             : DCDCAS, Hyperfine gauge corrections, ICE-SOC+SSC
  Marvin Lechner         : AUTO-CI (C++ implementation), FIC-MRCC        
  Spencer Leger          : CASSCF response                               
  Dagmar Lenk            : GEPOL surface, SMD, ORCA-2-JSON               
  Dimitrios Liakos       : Extrapolation schemes; Compound Job, Property file
  Dimitrios Manganas     : Further ROCIS development; embedding schemes. LFT, Crystal Embedding 
  Dimitrios Pantazis     : SARC Basis sets                               
  Anastasios Papadopoulos: AUTO-CI, single reference methods and gradients 
  Taras Petrenko         : pre 6.0 DFT Hessian and TD-DFT gradient,  ECA, NRVS 
  Petra Pikulova         : Analytic Raman intensities                    
  Peter Pinski           : DLPNO-MP2, DLPNO-MP2 Gradient                 
  Shashank Vittal Rao    : ES-AILFT, MagRelax                            
  Christoph Reimann      : Effective Core Potentials                     
  Marius Retegan         : Local ZFS, SOC                                
  Christoph Riplinger    : Optimizer, TS searches, QM/MM, DLPNO-CCSD(T), (RO)-DLPNO pert. Triples 
  Michael Roemelt        : Original ROCIS implementation, recursive CI coupling coefficients
  Masaaki Saitow         : Open-shell DLPNO-CCSD energy and density      
  Barbara Sandhoefer     : DKH picture change effects                    
  Yorick L. A. Schmerwitz: GMF and freeze-and-release deltaSCF, NEB S-IDPP initial path                    
  Kantharuban Sivalingam : CASSCF convergence/infrastructure, NEVPT2, NEVPT3, NEVPT4(SD), FIC-MRCI and CEPA variants
  Bernardo de Souza      : ESD, SOC TD-DFT                               
  Georgi L. Stoychev     : AutoAux, RI-MP2 NMR, DLPNO-MP2 response, X2C  
  Van Anh Tran           : RI-MP2 g-tensors                              
  Willem Van den Heuvel  : Paramagnetic NMR                              
  Zikuan Wang            : NOTCH, Electric field optimization            
  Frank Wennmohs         : Technical directorship and infrastructure     
  Hang Xu                : AUTO-CI-Response properties                   
                                                                         
[FACCTs GmbH]                                                            
  Markus Bursch, Nicolas Foglia, Miquel Garcia-Rates, Ingolf Harden, Hagen Neugebauer, Anastasios Papadopoulos, 
  Christoph Riplinger, Bernardo de Souza, Georgi L. Stoychev                                                    
                                                                 
  APM, various basis sets, CI-OPT, improved COSX, DLPNO-Multilevel,           
  DOCKER, DRACO, updates on ESD, Fragmentator, GOAT, IRC, LR-CPCM, L-BFGS, MBIS, meta-GGA TD-DFT gradient, ML-optimized integration grids, 
  MM, NACMEs, nearIR, NEB, NEB-TS, NL-DFT gradient (VV10), 2- and 3-layer-ONIOM, interface openCOSMO-RS, QMMM,   
  Crystal-QMMM, RESP, rigid body optimization, SF, symmetry and pop. for TD-DFT, various functionals, SOLVATOR                                   
                                                                         
[Other institutions]                                                     
  V. Asgeirsson          : NEB                                           
  Christoph Bannwarth    : sTDA-DFT, sTD-DFT, PBEh-3c, B97-3c, D3        
  Giovanni Bistoni       : ETS/NOCV, ADLD/ADEX, COVALED                  
  Martin Brehm           : Molecular dynamics                            
  Ronald Cardenas        : ETS/NOCV                                      
  Martina Colucci        : COVALED                                       
  Sebastian Ehlert       : rSCAN, r2SCAN, r2SCAN-3c, D4, dhf basis sets  
  Marvin Friede          : D4 for Fr, Ra, Ac-Lr                          
  Lars Goerigk           : TD-DFT with DH, B97 family of functionals     
  Stefan Grimme          : VdW corrections, initial TS optimization, DFT functionals, gCP, sTDA/sTD-DF 
  Waldemar Hujo          : DFT-NL                                        
  H. Jonsson             : NEB                                           
  Holger Kruse           : gCP                                           
  Marcel Mueller         : wB97X-3c, vDZP basis set                      
  Hagen Neugebauer       : wr2SCAN, Native XTB                           
  Gianluca Regni         : ADLD/ADEX                                     
  Tobias Risthaus        : pre 6.0 range-separated hybrid DFT and stability analysis
  Lukas Wittmann         : regularized MP2, r2SCAN double-hybrids, wr2SCAN        
                                                                         
We gratefully acknowledge several colleagues who have allowed us to      
interface, adapt or use parts of their codes:                            
  Ed Valeev, F. Pavosevic, A. Kumar             : LibInt (2-el integral package), F12 methods 
  Garnet Chan, S. Sharma, J. Yang, R. Olivares  : DMRG                   
  Ulf Ekstrom                                   : XCFun DFT Library      
  Mihaly Kallay                                 : mrcc  (arbitrary order and MRCC methods)
  Frank Weinhold                                : gennbo (NPA and NBO analysis)           
  Simon Mueller                                 : openCOSMO-RS                            
  Christopher J. Cramer and Donald G. Truhlar   : smd solvation model                     
  S Lehtola, MJT Oliveira, MAL Marques          : LibXC Library                           
  Liviu Ungur et al                             : ANISO software                          


 Your calculation uses the libint2 library for the computation of 2-el integrals
 For citations please refer to: http://libint.valeyev.net

 Your ORCA version has been built with support for libXC version: 7.0.0
 For citations please refer to: https://libxc.gitlab.io

 This ORCA versions uses:
   CBLAS   interface :  Fast vector & matrix operations
   LAPACKE interface :  Fast linear algebra routines
   SCALAPACK package :  Parallel linear algebra routines
   Shared memory     :  Shared parallel matrices
   BLAS/LAPACK       :  OpenBLAS 0.3.29  USE64BITINT DYNAMIC_ARCH NO_AFFINITY SkylakeX SINGLE_THREADED
        Core in use  :  SkylakeX
   Copyright (c) 2011-2014, The OpenBLAS Project


  ***********************************
  * Starting time: Mon Mar 16 14:18:13 2026
  * Host name:     midway3-login4.rcc.local
  * Process ID:    92214
  * Working dir.:  /home/rzhu16/evans-polanyi-principle-validation/runs/sn2_br_f/geo_opt_reactant_product
  ***********************************

Your calculation utilizes the semiempirical GFN2-xTB method
Please cite in your paper:
Bannwarth, C.; Ehlert S.; Grimme, S. J. Chem. Theory Comput. 2019, 15, 1652.
   

================================================================================

================================================================================
                                        WARNINGS
                       Please study these warnings very carefully!
================================================================================


WARNING: Analytical Hessian for XTB is limited in the analysis of the data.
       : If you want to obtain extensive IR and deltaG analysis, please use ! XTB NumFreq. 


WARNING: Geometry Optimization
  ===> : Switching off AutoStart
         For restart on a previous wavefunction, please use MOREAD

WARNING: Found dipole moment calculation with XTB calculation
  ===> : Switching off dipole moment calculation


WARNING: Found frequency calculation in combination with XTB calculation
  ===> : Need to redirect dipole moment calculation to properties.out


================================================================================
                                       INPUT FILE
================================================================================
NAME = product_optfreq.inp
|  1> ! XTB2 Opt Freq PAL8
|  2> 
|  3> %geom
|  4>   MaxIter 500
|  5> end
|  6> 
|  7> * xyz -1 1
|  8>   C      -0.355742      0.198009      0.303536
|  9>   H      -0.466270      1.278199      0.251976
| 10>   H       0.285459     -0.159223     -0.538025
| 11>   H      -1.332409     -0.276986      0.252169
| 12>   Br      0.336400     -0.187311      2.089361
| 13>   F       0.629372     -0.350431     -2.148195
| 14> *
| 15> 
| 16>                          ****END OF INPUT****
================================================================================

                       *****************************
                       * Geometry Optimization Run *
                       *****************************

Geometry optimization settings:
Update method            Update   .... BFGS
Choice of coordinates    CoordSys .... (2022) Redundant Internals
Initial Hessian          InHess   .... Almloef's Model
Max. no of cycles        MaxIter  .... 500

Convergence Tolerances:
Energy Change            TolE     ....  5.0000e-06 Eh
Max. Gradient            TolMAXG  ....  3.0000e-04 Eh/bohr
RMS Gradient             TolRMSG  ....  1.0000e-04 Eh/bohr
Max. Displacement        TolMAXD  ....  4.0000e-03 bohr
RMS Displacement         TolRMSD  ....  2.0000e-03 bohr
Strict Convergence                .... False

------------------------------------------------------------------------------
                        ORCA OPTIMIZATION COORDINATE SETUP
------------------------------------------------------------------------------

The optimization will be done in redundant internal coordinates (2022)
Making redundant internal coordinates   ...  (2022 redundants) done
Evaluating the initial hessian          ...  (Almloef) done
Evaluating the coordinates              ...  done
Calculating the B-matrix                .... done
Calculating the G-matrix                .... done
The number of degrees of freedom        ....   15

    -----------------------------------------------------------------
                    Redundant Internal Coordinates


    -----------------------------------------------------------------
         Definition                    Initial Value    Approx d2E/dq
    -----------------------------------------------------------------
      1. B(H   1,C   0)                  1.0871         0.364019   
      2. B(H   2,C   0)                  1.1167         0.326478   
      3. B(H   3,C   0)                  1.0873         0.363741   
      4. B(Br  4,C   0)                  1.9536         0.264840   
      5. B(F   5,H   2)                  1.6576         0.037253   
      6. A(H   1,C   0,H   3)          109.9097         0.291796   
      7. A(H   1,C   0,H   2)          109.9087         0.286895   
      8. A(H   1,C   0,Br  4)          105.9838         0.325767   
      9. A(H   2,C   0,Br  4)          114.9840         0.320006   
     10. A(H   3,C   0,Br  4)          105.9779         0.325727   
     11. A(H   2,C   0,H   3)          109.9032         0.286861   
     12. A(C   0,H   2,F   5)          152.6383         0.204825   
     13. D(F   5,H   2,C   0,H   3)     60.5830         0.095830   
     14. D(F   5,H   2,C   0,Br  4)   -179.9657         0.095830   
     15. D(F   5,H   2,C   0,H   1)    -60.5027         0.095830   
    -----------------------------------------------------------------

Number of atoms                         .... 6
Number of degrees of freedom            .... 15


         *************************************************************
         *                GEOMETRY OPTIMIZATION CYCLE   1            *
         *************************************************************
---------------------------------
CARTESIAN COORDINATES (ANGSTROEM)
---------------------------------
  C    -0.355742    0.198009    0.303536
  H    -0.466270    1.278199    0.251976
  H     0.285459   -0.159223   -0.538025
  H    -1.332409   -0.276986    0.252169
  Br    0.336400   -0.187311    2.089361
  F     0.629372   -0.350431   -2.148195

----------------------------
CARTESIAN COORDINATES (A.U.)
----------------------------
  NO LB    ZA    FRAG    MASS        X           Y           Z
   0 C   6.0000    0    12.011   -0.672255    0.374183    0.573600
   1 H   1.0000    0     1.008   -0.881123    2.415446    0.476166
   2 H   1.0000    0     1.008    0.539439   -0.300888   -1.016720
   3 H   1.0000    0     1.008   -2.517888   -0.523428    0.476530
   4 Br 35.0000    0    79.900    0.635704   -0.353966    3.948320
   5 F   9.0000    0    18.998    1.189341   -0.662219   -4.059500

      -----------------------------------------------------------      
     |                   =====================                   |     
     |                           x T B                           |     
     |                   =====================                   |     
     |                         S. Grimme                         |     
     |          Mulliken Center for Theoretical Chemistry        |     
     |                    University of Bonn                     |     
      -----------------------------------------------------------      

   * xtb version 6.7.1 (edcfbbe) compiled by 'albert@albert-system' on 2024-07-22

   xtb is free software: you can redistribute it and/or modify it under
   the terms of the GNU Lesser General Public License as published by
   the Free Software Foundation, either version 3 of the License, or
   (at your option) any later version.
   
   xtb is distributed in the hope that it will be useful,
   but WITHOUT ANY WARRANTY; without even the implied warranty of
   MERCHANTABILITY or FITNESS FOR A PARTICULAR PURPOSE.  See the
   GNU Lesser General Public License for more details.
   
   Cite this work as:
   * C. Bannwarth, E. Caldeweyher, S. Ehlert, A. Hansen, P. Pracht,
     J. Seibert, S. Spicher, S. Grimme, WIREs Comput. Mol. Sci., 2020, 11,
     e01493. DOI: 10.1002/wcms.1493
   
   for GFN2-xTB:
   * C. Bannwarth, S. Ehlert and S. Grimme., J. Chem. Theory Comput., 2019,
     15, 1652-1671. DOI: 10.1021/acs.jctc.8b01176
   for GFN1-xTB:
   * S. Grimme, C. Bannwarth, P. Shushkov, J. Chem. Theory Comput., 2017,
     13, 1989-2009. DOI: 10.1021/acs.jctc.7b00118
   for GFN0-xTB:
   * P. Pracht, E. Caldeweyher, S. Ehlert, S. Grimme, ChemRxiv, 2019, preprint.
     DOI: 10.26434/chemrxiv.8326202.v1
   for GFN-FF:
   * S. Spicher and S. Grimme, Angew. Chem. Int. Ed., 2020, 59, 15665-15673.
     DOI: 10.1002/anie.202004239
   
   for ALPB and GBSA implicit solvation:
   * S. Ehlert, M. Stahn, S. Spicher, S. Grimme, J. Chem. Theory Comput.,
     2021, 17, 4250-4261. DOI: 10.1021/acs.jctc.1c00471
   
   for ddCOSMO and CPCM-X implicit solvation:
   * M. Stahn, S. Ehlert, S. Grimme, J. Phys. Chem. A,
     2023, XX, XXXX-XXXX. DOI: 10.1021/acs.jpca.3c04382
   
   for DFT-D4:
   * E. Caldeweyher, C. Bannwarth and S. Grimme, J. Chem. Phys., 2017,
     147, 034112. DOI: 10.1063/1.4993215
   * E. Caldeweyher, S. Ehlert, A. Hansen, H. Neugebauer, S. Spicher,
     C. Bannwarth and S. Grimme, J. Chem. Phys., 2019, 150, 154122.
     DOI: 10.1063/1.5090222
   * E. Caldeweyher, J.-M. Mewes, S. Ehlert and S. Grimme, Phys. Chem. Chem. Phys.
     2020, 22, 8499-8512. DOI: 10.1039/D0CP00502A
   
   for sTDA-xTB:
   * S. Grimme and C. Bannwarth, J. Chem. Phys., 2016, 145, 054103.
     DOI: 10.1063/1.4959605
   
   in the mass-spec context:
   * V. Asgeirsson, C. Bauer and S. Grimme, Chem. Sci., 2017, 8, 4879.
     DOI: 10.1039/c7sc00601b
   * J. Koopman and S. Grimme, ACS Omega 2019, 4, 12, 15120-15133.
     DOI: 10.1021/acsomega.9b02011
   
   for metadynamics refer to:
   * S. Grimme, J. Chem. Theory Comput., 2019, 155, 2847-2862
     DOI: 10.1021/acs.jctc.9b00143
   
   for SPH calculations refer to:
   * S. Spicher and S. Grimme, J. Chem. Theory Comput., 2021, 17, 1701-1714
     DOI: 10.1021/acs.jctc.0c01306
   
   for ONIOM refer to:
   * C. Plett, A. Katbashev, S. Ehlert, S. Grimme, M. Bursch,
     Phys. Chem. Chem. Phys., 2023, 25, 17860-17868. DOI: 10.1039/D3CP02178E
   
   for DIPRO refer to:
   * J. Kohn, N. Gildemeister, S. Grimme, D. Fazzi, A. Hansen,
     J. Chem. Phys., 2023, just accepted.
   
   for PTB refer to:
   * S. Grimme, M. Mueller, A. Hansen, J. Chem. Phys., 2023, 158, 124111.
     DOI: 10.1063/5.0137838
   
   with help from (in alphabetical order)
   P. Atkinson, C. Bannwarth, F. Bohle, G. Brandenburg, E. Caldeweyher
   M. Checinski, S. Dohm, S. Ehlert, S. Ehrlich, I. Gerasimov, C. Hölzer
   A. Katbashev, J. Kohn, J. Koopman, C. Lavigne, S. Lehtola, F. März, M. Müller,
   F. Musil, H. Neugebauer, J. Pisarek, C. Plett, P. Pracht, F. Pultar,
   J. Seibert, P. Shushkov, S. Spicher, M. Stahn, M. Steiner, T. Strunk,
   J. Stückrath, T. Rose, and J. Unsleber
   
 * started run on 2026/03/16 at 14:18:13.954     
   ID    Z sym.   atoms
    1    6 C      1
    2    1 H      2-4
    3   35 Br     5
    4    9 F      6

           -------------------------------------------------
          |                Calculation Setup                |
           -------------------------------------------------

          program call               : /software/orca-6.1.0-el8-x86_64/bin/otool_xtb product_optfreq_XTB.xyz --grad -c -1 -u 0 -P 8 --namespace product_optfreq --input product_optfreq_XTB.input.tmp --acc 0.200000
          hostname                   : midway3-login4.rcc.local
          calculation namespace      : product_optfreq
          coordinate file            : product_optfreq_XTB.xyz
          omp threads                :                     8


molecular fragmentation (1/2 indicates fragments):
111112
# atoms in fragment 1/2:     5     1
 fragment masses (1/2) :       94.94       19.00
CMA distance (Bohr)    :   7.506
constraining FC (au)   :  0.0500

           -------------------------------------------------
          |                 G F N 2 - x T B                 |
           -------------------------------------------------

        Reference                      10.1021/acs.jctc.8b01176
      * Hamiltonian:
        H0-scaling (s, p, d)           1.850000    2.230000    2.230000
        zeta-weighting                 0.500000
      * Dispersion:
        s8                             2.700000
        a1                             0.520000
        a2                             5.000000
        s9                             5.000000
      * Repulsion:
        kExp                           1.500000    1.000000
        rExp                           1.000000
      * Coulomb:
        alpha                          2.000000
        third order                    shell-resolved
        anisotropic                    true
        a3                             3.000000
        a5                             4.000000
        cn-shift                       1.200000
        cn-exp                         4.000000
        max-rad                        5.000000


          ...................................................
          :                      SETUP                      :
          :.................................................:
          :  # basis functions                  21          :
          :  # atomic orbitals                  20          :
          :  # shells                           10          :
          :  # electrons                        22          :
          :  max. iterations                   250          :
          :  Hamiltonian                  GFN2-xTB          :
          :  restarted?                      false          :
          :  GBSA solvation                  false          :
          :  PC potential                    false          :
          :  electronic temp.          300.0000000     K    :
          :  accuracy                    0.2000000          :
          :  -> integral cutoff          0.3198970E+02      :
          :  -> integral neglect         0.2000000E-08      :
          :  -> SCF convergence          0.2000000E-06 Eh   :
          :  -> wf. convergence          0.2000000E-04 e    :
          :  Broyden damping             0.4000000          :
          :  net charge                         -1          :
          :  unpaired electrons                  0          :
          ...................................................

 iter      E             dE          RMSdq      gap      omega  full diag
   1    -12.7097593 -0.127098E+02  0.617E+00    5.03       0.0  T
   2    -12.7350304 -0.252711E-01  0.375E+00    2.73       1.0  T
   3    -12.7387942 -0.376387E-02  0.185E+00    1.43       1.0  T
   4    -12.7405979 -0.180372E-02  0.123E+00    1.42       1.0  T
   5    -12.7414720 -0.874003E-03  0.626E-01    1.54       1.0  T
   6    -12.7416642 -0.192236E-03  0.390E-01    1.25       1.0  T
   7    -12.7419540 -0.289780E-03  0.603E-02    1.40       1.0  T
   8    -12.7419553 -0.135070E-05  0.285E-02    1.41       1.4  T
   9    -12.7419556 -0.317949E-06  0.112E-02    1.40       3.6  T
  10    -12.7419557 -0.807379E-07  0.493E-03    1.40       8.3  T
  11    -12.7419557 -0.329029E-07  0.117E-03    1.40      35.0  T
  12    -12.7419557  0.700016E-09  0.740E-04    1.40      55.2  T
  13    -12.7419557 -0.233621E-08  0.947E-05    1.40     431.0  T
  14    -12.7419557 -0.442419E-10  0.230E-05    1.40    1773.0  T

   *** convergence criteria satisfied after 14 iterations ***

         #    Occupation            Energy/Eh            Energy/eV
      -------------------------------------------------------------
         1        2.0000           -0.6951553             -18.9161
       ...           ...                  ...                  ...
         5        2.0000           -0.3327155              -9.0536
         6        2.0000           -0.3198844              -8.7045
         7        2.0000           -0.2613693              -7.1122
         8        2.0000           -0.2581548              -7.0247
         9        2.0000           -0.1131820              -3.0798
        10        2.0000           -0.1104595              -3.0058
        11        2.0000           -0.1104164              -3.0046 (HOMO)
        12                         -0.0589416              -1.6039 (LUMO)
        13                          0.1879128               5.1134
        14                          0.1884616               5.1283
        15                          0.2066544               5.6234
        16                          0.2066952               5.6245
       ...                                ...                  ...
        20                          0.5317282              14.4691
      -------------------------------------------------------------
                  HL-Gap            0.0514748 Eh            1.4007 eV
             Fermi-level           -0.0843602 Eh           -2.2956 eV

 SCC (total)                   0 d,  0 h,  0 min,  0.074 sec
 SCC setup                      ...        0 min,  0.000 sec (  0.337%)
 Dispersion                     ...        0 min,  0.000 sec (  0.086%)
 classical contributions        ...        0 min,  0.000 sec (  0.048%)
 integral evaluation            ...        0 min,  0.071 sec ( 96.292%)
 iterations                     ...        0 min,  0.002 sec (  2.278%)
 molecular gradient             ...        0 min,  0.001 sec (  0.737%)
 printout                       ...        0 min,  0.000 sec (  0.195%)

         :::::::::::::::::::::::::::::::::::::::::::::::::::::
         ::                     SUMMARY                     ::
         :::::::::::::::::::::::::::::::::::::::::::::::::::::
         :: total energy             -12.689105482153 Eh    ::
         :: gradient norm              0.001503250780 Eh/a0 ::
         :: HOMO-LUMO gap              1.400700646632 eV    ::
         ::.................................................::
         :: SCC energy               -12.741955573844 Eh    ::
         :: -> isotropic ES            0.227208276672 Eh    ::
         :: -> anisotropic ES         -0.007133236875 Eh    ::
         :: -> anisotropic XC         -0.009108933048 Eh    ::
         :: -> dispersion             -0.002271265652 Eh    ::
         :: repulsion energy           0.052850091690 Eh    ::
         :: add. restraining           0.000000000000 Eh    ::
         :: total charge              -0.999999999997 e     ::
         :::::::::::::::::::::::::::::::::::::::::::::::::::::


Property printout bound to 'properties.out'

           -------------------------------------------------
          | TOTAL ENERGY              -12.689105482153 Eh   |
          | GRADIENT NORM               0.001503250780 Eh/α |
          | HOMO-LUMO GAP               1.400700646632 eV   |
           -------------------------------------------------

------------------------------------------------------------------------
 * finished run on 2026/03/16 at 14:18:14.053     
------------------------------------------------------------------------
 total:
 * wall-time:     0 d,  0 h,  0 min,  0.098 sec
 *  cpu-time:     0 d,  0 h,  0 min,  0.320 sec
 * ratio c/w:     3.258 speedup
 SCF:
 * wall-time:     0 d,  0 h,  0 min,  0.074 sec
 *  cpu-time:     0 d,  0 h,  0 min,  0.236 sec
 * ratio c/w:     3.195 speedup


-------------------------   --------------------
FINAL SINGLE POINT ENERGY       -12.689105482150
-------------------------   --------------------


-------------
DIPOLE MOMENT
-------------
                                X             Y             Z
Total Dipole Moment    :     -1.53700       0.85600       1.22000
                        -----------------------------------------
Magnitude (a.u.)       :      2.14091
Magnitude (Debye)      :      5.44177


------------------
CARTESIAN GRADIENT
------------------

   1   C   :    0.000323235   -0.000059481   -0.000027839
   2   H   :    0.000239821   -0.000174519    0.000055393
   3   H   :    0.000180667   -0.000107297    0.000235594
   4   H   :    0.000168574   -0.000166924    0.000053274
   5   Br  :   -0.000582658    0.000322345    0.000636925
   6   F   :   -0.000329639    0.000185876   -0.000953347

Difference to translation invariance:
           :   -0.0000000000   -0.0000000000    0.0000000000

Difference to rotation invariance:
           :   -0.0000000023   -0.0000000041    0.0000000000

Norm of the Cartesian gradient     ...    0.0015032508
RMS gradient                       ...    0.0003543196
MAX gradient                       ...    0.0009533473
------------------------------------------------------------------------------
                         ORCA GEOMETRY RELAXATION STEP
------------------------------------------------------------------------------

Reading the OPT-File                    .... done
Getting information on internals        .... done
Copying old internal coords+grads       .... done
Making the new internal coordinates     .... (2022 redundants) done
Validating the new internal coordinates .... (2022 redundants) done
Calculating the B-matrix                .... done
Calculating the G,G- and P matrices     .... done
Transforming gradient to internals      .... done
Projecting the internal gradient        .... done
Number of atoms                         ....   6
Number of internal coordinates          ....  15
Current Energy                          ....   -12.689105482 Eh
Current gradient norm                   ....     0.001503251 Eh/bohr
Maximum allowed component of the step   ....  0.300
Current trust radius                    ....  0.300
Evaluating the initial hessian          ....  (Almloef) done
Projecting the Hessian                  .... done
Forming the augmented Hessian           .... done
Diagonalizing the augmented Hessian     .... done
Last element of RFO vector              ....  0.999666067
Lowest eigenvalues of augmented Hessian:
 -0.000061431  0.037271261  0.095830245  0.204842060  0.220234244
Length of the computed step             ....  0.025849573
The final length of the internal step   ....  0.025849573
Converting the step to Cartesian space:
 Initial RMS(Int)=    0.0066743310
Transforming coordinates:
 Iter   0:  RMS(Cart)=    0.0098502190 RMS(Int)=    0.0066514217
done
Storing new coordinates                 .... done

                                .--------------------.
          ----------------------|Geometry convergence|-------------------------
          Item                value                   Tolerance       Converged
          ---------------------------------------------------------------------
          RMS gradient        0.0009020186            0.0001000000      NO
          MAX gradient        0.0024175230            0.0003000000      NO
          RMS step            0.0066743310            0.0020000000      NO
          MAX step            0.0224114151            0.0040000000      NO
          -------------------------------------------------------------------------
          ........................................................
          Max(Bonds)      0.0119      Max(Angles)    0.52
          Max(Dihed)        0.07      Max(Improp)    0.00
          ---------------------------------------------------------------------

The optimization has not yet converged - more geometry cycles are needed


    ---------------------------------------------------------------------------
                         Redundant Internal Coordinates
                            (Angstroem and degrees)

        Definition                    Value    dE/dq     Step     New-Value
    ----------------------------------------------------------------------------
     1. B(H   1,C   0)                1.0871 -0.000200  0.0003    1.0873   
     2. B(H   2,C   0)                1.1167  0.000430 -0.0007    1.1160   
     3. B(H   3,C   0)                1.0873 -0.000081  0.0001    1.0874   
     4. B(Br  4,C   0)                1.9536  0.000312 -0.0006    1.9530   
     5. B(F   5,H   2)                1.6576  0.000836 -0.0119    1.6457   
     6. A(H   1,C   0,H   3)          109.91  0.000124   -0.00    109.91   
     7. A(H   1,C   0,H   2)          109.91 -0.000543    0.11    110.02   
     8. A(H   1,C   0,Br  4)          105.98 -0.000744    0.12    106.10   
     9. A(H   2,C   0,Br  4)          114.98  0.002418   -0.45    114.54   
    10. A(H   3,C   0,Br  4)          105.98 -0.000750    0.12    106.10   
    11. A(H   2,C   0,H   3)          109.90 -0.000544    0.11    110.01   
    12. A(C   0,H   2,F   5)          152.64 -0.001860    0.52    153.16   
    13. D(F   5,H   2,C   0,H   3)     60.58 -0.000270    0.07     60.65   
    14. D(F   5,H   2,C   0,Br  4)   -179.97 -0.000002    0.00   -179.97   
    15. D(F   5,H   2,C   0,H   1)    -60.50  0.000274   -0.07    -60.57   
    ----------------------------------------------------------------------------

Geometry step timings:
Preparation and reading OPT file:      0.000 s ( 3.628 %)
Internal coordinates            :      0.000 s ( 3.970 %)
B/P matrices and projection     :      0.000 s (10.678 %)
Hessian update/contruction      :      0.001 s (35.934 %)
Making the step                 :      0.000 s ( 9.514 %)
Converting the step to Cartesian:      0.000 s ( 4.107 %)
Storing new data                :      0.000 s ( 6.434 %)
Checking convergence            :      0.000 s ( 6.160 %)
Final printing                  :      0.000 s (19.302 %)
Total time                      :      0.001 s

Time for energy+gradient        :      0.111 s
Time for complete geometry iter :      0.114 s

         *************************************************************
         *                GEOMETRY OPTIMIZATION CYCLE   2            *
         *************************************************************
---------------------------------
CARTESIAN COORDINATES (ANGSTROEM)
---------------------------------
  C    -0.359172    0.199884    0.301213
  H    -0.469934    1.280463    0.252220
  H     0.281483   -0.157027   -0.539975
  H    -1.336133   -0.275046    0.252404
  Br    0.345250   -0.192260    2.080055
  F     0.635316   -0.353756   -2.135095

----------------------------
CARTESIAN COORDINATES (A.U.)
----------------------------
  NO LB    ZA    FRAG    MASS        X           Y           Z
   0 C   6.0000    0    12.011   -0.678737    0.377726    0.569210
   1 H   1.0000    0     1.008   -0.888046    2.419724    0.476627
   2 H   1.0000    0     1.008    0.531926   -0.296738   -1.020405
   3 H   1.0000    0     1.008   -2.524926   -0.519762    0.476975
   4 Br 35.0000    0    79.900    0.652427   -0.363319    3.930734
   5 F   9.0000    0    18.998    1.200573   -0.668502   -4.034745

      -----------------------------------------------------------      
     |                   =====================                   |     
     |                           x T B                           |     
     |                   =====================                   |     
     |                         S. Grimme                         |     
     |          Mulliken Center for Theoretical Chemistry        |     
     |                    University of Bonn                     |     
      -----------------------------------------------------------      

   * xtb version 6.7.1 (edcfbbe) compiled by 'albert@albert-system' on 2024-07-22

   xtb is free software: you can redistribute it and/or modify it under
   the terms of the GNU Lesser General Public License as published by
   the Free Software Foundation, either version 3 of the License, or
   (at your option) any later version.
   
   xtb is distributed in the hope that it will be useful,
   but WITHOUT ANY WARRANTY; without even the implied warranty of
   MERCHANTABILITY or FITNESS FOR A PARTICULAR PURPOSE.  See the
   GNU Lesser General Public License for more details.
   
   Cite this work as:
   * C. Bannwarth, E. Caldeweyher, S. Ehlert, A. Hansen, P. Pracht,
     J. Seibert, S. Spicher, S. Grimme, WIREs Comput. Mol. Sci., 2020, 11,
     e01493. DOI: 10.1002/wcms.1493
   
   for GFN2-xTB:
   * C. Bannwarth, S. Ehlert and S. Grimme., J. Chem. Theory Comput., 2019,
     15, 1652-1671. DOI: 10.1021/acs.jctc.8b01176
   for GFN1-xTB:
   * S. Grimme, C. Bannwarth, P. Shushkov, J. Chem. Theory Comput., 2017,
     13, 1989-2009. DOI: 10.1021/acs.jctc.7b00118
   for GFN0-xTB:
   * P. Pracht, E. Caldeweyher, S. Ehlert, S. Grimme, ChemRxiv, 2019, preprint.
     DOI: 10.26434/chemrxiv.8326202.v1
   for GFN-FF:
   * S. Spicher and S. Grimme, Angew. Chem. Int. Ed., 2020, 59, 15665-15673.
     DOI: 10.1002/anie.202004239
   
   for ALPB and GBSA implicit solvation:
   * S. Ehlert, M. Stahn, S. Spicher, S. Grimme, J. Chem. Theory Comput.,
     2021, 17, 4250-4261. DOI: 10.1021/acs.jctc.1c00471
   
   for ddCOSMO and CPCM-X implicit solvation:
   * M. Stahn, S. Ehlert, S. Grimme, J. Phys. Chem. A,
     2023, XX, XXXX-XXXX. DOI: 10.1021/acs.jpca.3c04382
   
   for DFT-D4:
   * E. Caldeweyher, C. Bannwarth and S. Grimme, J. Chem. Phys., 2017,
     147, 034112. DOI: 10.1063/1.4993215
   * E. Caldeweyher, S. Ehlert, A. Hansen, H. Neugebauer, S. Spicher,
     C. Bannwarth and S. Grimme, J. Chem. Phys., 2019, 150, 154122.
     DOI: 10.1063/1.5090222
   * E. Caldeweyher, J.-M. Mewes, S. Ehlert and S. Grimme, Phys. Chem. Chem. Phys.
     2020, 22, 8499-8512. DOI: 10.1039/D0CP00502A
   
   for sTDA-xTB:
   * S. Grimme and C. Bannwarth, J. Chem. Phys., 2016, 145, 054103.
     DOI: 10.1063/1.4959605
   
   in the mass-spec context:
   * V. Asgeirsson, C. Bauer and S. Grimme, Chem. Sci., 2017, 8, 4879.
     DOI: 10.1039/c7sc00601b
   * J. Koopman and S. Grimme, ACS Omega 2019, 4, 12, 15120-15133.
     DOI: 10.1021/acsomega.9b02011
   
   for metadynamics refer to:
   * S. Grimme, J. Chem. Theory Comput., 2019, 155, 2847-2862
     DOI: 10.1021/acs.jctc.9b00143
   
   for SPH calculations refer to:
   * S. Spicher and S. Grimme, J. Chem. Theory Comput., 2021, 17, 1701-1714
     DOI: 10.1021/acs.jctc.0c01306
   
   for ONIOM refer to:
   * C. Plett, A. Katbashev, S. Ehlert, S. Grimme, M. Bursch,
     Phys. Chem. Chem. Phys., 2023, 25, 17860-17868. DOI: 10.1039/D3CP02178E
   
   for DIPRO refer to:
   * J. Kohn, N. Gildemeister, S. Grimme, D. Fazzi, A. Hansen,
     J. Chem. Phys., 2023, just accepted.
   
   for PTB refer to:
   * S. Grimme, M. Mueller, A. Hansen, J. Chem. Phys., 2023, 158, 124111.
     DOI: 10.1063/5.0137838
   
   with help from (in alphabetical order)
   P. Atkinson, C. Bannwarth, F. Bohle, G. Brandenburg, E. Caldeweyher
   M. Checinski, S. Dohm, S. Ehlert, S. Ehrlich, I. Gerasimov, C. Hölzer
   A. Katbashev, J. Kohn, J. Koopman, C. Lavigne, S. Lehtola, F. März, M. Müller,
   F. Musil, H. Neugebauer, J. Pisarek, C. Plett, P. Pracht, F. Pultar,
   J. Seibert, P. Shushkov, S. Spicher, M. Stahn, M. Steiner, T. Strunk,
   J. Stückrath, T. Rose, and J. Unsleber
   
 * started run on 2026/03/16 at 14:18:14.068     
   ID    Z sym.   atoms
    1    6 C      1
    2    1 H      2-4
    3   35 Br     5
    4    9 F      6

           -------------------------------------------------
          |                Calculation Setup                |
           -------------------------------------------------

          program call               : /software/orca-6.1.0-el8-x86_64/bin/otool_xtb product_optfreq_XTB.xyz --grad -c -1 -u 0 -P 8 --namespace product_optfreq --input product_optfreq_XTB.input.tmp --acc 0.200000
          hostname                   : midway3-login4.rcc.local
          calculation namespace      : product_optfreq
          coordinate file            : product_optfreq_XTB.xyz
          omp threads                :                     8


molecular fragmentation (1/2 indicates fragments):
111112
# atoms in fragment 1/2:     5     1
 fragment masses (1/2) :       94.94       19.00
CMA distance (Bohr)    :   7.466
constraining FC (au)   :  0.0500

           -------------------------------------------------
          |                 G F N 2 - x T B                 |
           -------------------------------------------------

        Reference                      10.1021/acs.jctc.8b01176
      * Hamiltonian:
        H0-scaling (s, p, d)           1.850000    2.230000    2.230000
        zeta-weighting                 0.500000
      * Dispersion:
        s8                             2.700000
        a1                             0.520000
        a2                             5.000000
        s9                             5.000000
      * Repulsion:
        kExp                           1.500000    1.000000
        rExp                           1.000000
      * Coulomb:
        alpha                          2.000000
        third order                    shell-resolved
        anisotropic                    true
        a3                             3.000000
        a5                             4.000000
        cn-shift                       1.200000
        cn-exp                         4.000000
        max-rad                        5.000000

q/qsh data taken from xtbrestart
CAMM data taken from xtbrestart

          ...................................................
          :                      SETUP                      :
          :.................................................:
          :  # basis functions                  21          :
          :  # atomic orbitals                  20          :
          :  # shells                           10          :
          :  # electrons                        22          :
          :  max. iterations                   250          :
          :  Hamiltonian                  GFN2-xTB          :
          :  restarted?                       true          :
          :  GBSA solvation                  false          :
          :  PC potential                    false          :
          :  electronic temp.          300.0000000     K    :
          :  accuracy                    0.2000000          :
          :  -> integral cutoff          0.3198970E+02      :
          :  -> integral neglect         0.2000000E-08      :
          :  -> SCF convergence          0.2000000E-06 Eh   :
          :  -> wf. convergence          0.2000000E-04 e    :
          :  Broyden damping             0.4000000          :
          :  net charge                         -1          :
          :  unpaired electrons                  0          :
          ...................................................

 iter      E             dE          RMSdq      gap      omega  full diag
   1    -12.7420434 -0.127420E+02  0.476E-02    1.43       0.0  T
   2    -12.7420437 -0.314186E-06  0.261E-02    1.43       1.6  T
   3    -12.7420437 -0.373816E-07  0.718E-03    1.43       5.7  T
   4    -12.7420438 -0.495001E-07  0.486E-03    1.43       8.4  T
   5    -12.7420438 -0.116020E-07  0.248E-03    1.43      16.5  T
   6    -12.7420438 -0.411531E-08  0.119E-03    1.43      34.3  T
   7    -12.7420438 -0.650706E-09  0.126E-04    1.43     324.8  T
   8    -12.7420438 -0.835954E-11  0.750E-05    1.43     544.0  T

   *** convergence criteria satisfied after 8 iterations ***

         #    Occupation            Energy/Eh            Energy/eV
      -------------------------------------------------------------
         1        2.0000           -0.6947204             -18.9043
       ...           ...                  ...                  ...
         5        2.0000           -0.3323726              -9.0443
         6        2.0000           -0.3191129              -8.6835
         7        2.0000           -0.2609418              -7.1006
         8        2.0000           -0.2575999              -7.0097
         9        2.0000           -0.1133949              -3.0856
        10        2.0000           -0.1107535              -3.0138
        11        2.0000           -0.1107127              -3.0126 (HOMO)
        12                         -0.0581426              -1.5821 (LUMO)
        13                          0.1883606               5.1256
        14                          0.1889722               5.1422
        15                          0.2069804               5.6322
        16                          0.2074899               5.6461
       ...                                ...                  ...
        20                          0.5326384              14.4938
      -------------------------------------------------------------
                  HL-Gap            0.0525701 Eh            1.4305 eV
             Fermi-level           -0.0841076 Eh           -2.2887 eV

 SCC (total)                   0 d,  0 h,  0 min,  0.080 sec
 SCC setup                      ...        0 min,  0.000 sec (  0.268%)
 Dispersion                     ...        0 min,  0.000 sec (  0.084%)
 classical contributions        ...        0 min,  0.000 sec (  0.053%)
 integral evaluation            ...        0 min,  0.077 sec ( 97.028%)
 iterations                     ...        0 min,  0.001 sec (  1.743%)
 molecular gradient             ...        0 min,  0.000 sec (  0.598%)
 printout                       ...        0 min,  0.000 sec (  0.194%)

         :::::::::::::::::::::::::::::::::::::::::::::::::::::
         ::                     SUMMARY                     ::
         :::::::::::::::::::::::::::::::::::::::::::::::::::::
         :: total energy             -12.689153104862 Eh    ::
         :: gradient norm              0.001676179023 Eh/a0 ::
         :: HOMO-LUMO gap              1.430505690496 eV    ::
         ::.................................................::
         :: SCC energy               -12.742043590811 Eh    ::
         :: -> isotropic ES            0.226982791445 Eh    ::
         :: -> anisotropic ES         -0.007140572442 Eh    ::
         :: -> anisotropic XC         -0.009155532578 Eh    ::
         :: -> dispersion             -0.002278263261 Eh    ::
         :: repulsion energy           0.052890485949 Eh    ::
         :: add. restraining           0.000000000000 Eh    ::
         :: total charge              -0.999999999998 e     ::
         :::::::::::::::::::::::::::::::::::::::::::::::::::::


Property printout bound to 'properties.out'

           -------------------------------------------------
          | TOTAL ENERGY              -12.689153104862 Eh   |
          | GRADIENT NORM               0.001676179023 Eh/α |
          | HOMO-LUMO GAP               1.430505690496 eV   |
           -------------------------------------------------

------------------------------------------------------------------------
 * finished run on 2026/03/16 at 14:18:14.161     
------------------------------------------------------------------------
 total:
 * wall-time:     0 d,  0 h,  0 min,  0.093 sec
 *  cpu-time:     0 d,  0 h,  0 min,  0.158 sec
 * ratio c/w:     1.697 speedup
 SCF:
 * wall-time:     0 d,  0 h,  0 min,  0.080 sec
 *  cpu-time:     0 d,  0 h,  0 min,  0.092 sec
 * ratio c/w:     1.149 speedup


-------------------------   --------------------
FINAL SINGLE POINT ENERGY       -12.689153104860
-------------------------   --------------------


-------------
DIPOLE MOMENT
-------------
                                X             Y             Z
Total Dipole Moment    :     -1.55600       0.86600       1.20400
                        -----------------------------------------
Magnitude (a.u.)       :      2.14958
Magnitude (Debye)      :      5.46381


------------------
CARTESIAN GRADIENT
------------------

   1   C   :    0.000510100   -0.000255999   -0.000977778
   2   H   :    0.000167289   -0.000005161   -0.000051708
   3   H   :    0.000057200   -0.000041821    0.000856746
   4   H   :    0.000080250   -0.000150955   -0.000050650
   5   Br  :   -0.000291715    0.000160072    0.000451245
   6   F   :   -0.000523124    0.000293863   -0.000227855

Difference to translation invariance:
           :    0.0000000000   -0.0000000000   -0.0000000000

Difference to rotation invariance:
           :   -0.0000000114   -0.0000000178    0.0000000000

Norm of the Cartesian gradient     ...    0.0016761790
RMS gradient                       ...    0.0003950792
MAX gradient                       ...    0.0009777777
------------------------------------------------------------------------------
                         ORCA GEOMETRY RELAXATION STEP
------------------------------------------------------------------------------

Reading the OPT-File                    .... done
Getting information on internals        .... done
Copying old internal coords+grads       .... done
Making the new internal coordinates     .... (2022 redundants) done
Validating the new internal coordinates .... (2022 redundants) done
Calculating the B-matrix                .... done
Calculating the G,G- and P matrices     .... done
Transforming gradient to internals      .... done
Projecting the internal gradient        .... done
Number of atoms                         ....   6
Number of internal coordinates          ....  15
Current Energy                          ....   -12.689153105 Eh
Current gradient norm                   ....     0.001676179 Eh/bohr
Maximum allowed component of the step   ....  0.300
Current trust radius                    ....  0.300
Updating the Hessian (BFGS)             .... done
Forming the augmented Hessian           .... done
Diagonalizing the augmented Hessian     .... done
Last element of RFO vector              ....  0.998988819
Lowest eigenvalues of augmented Hessian:
 -0.000099801  0.031000693  0.095829882  0.103372701  0.220233019
Length of the computed step             ....  0.045004818
The final length of the internal step   ....  0.045004818
Converting the step to Cartesian space:
 Initial RMS(Int)=    0.0116201942
Transforming coordinates:
 Iter   0:  RMS(Cart)=    0.0236654358 RMS(Int)=    0.0114816658
done
Storing new coordinates                 .... done
The predicted energy change is          ....    -0.000050002
Previously predicted energy change      ....    -0.000030736
Actually observed energy change         ....    -0.000047623
Ratio of predicted to observed change   ....     1.549409338
New trust radius                        ....     0.200000000

                                .--------------------.
          ----------------------|Geometry convergence|-------------------------
          Item                value                   Tolerance       Converged
          ---------------------------------------------------------------------
          Energy change      -0.0000476227            0.0000050000      NO
          RMS gradient        0.0007034617            0.0001000000      NO
          MAX gradient        0.0019829588            0.0003000000      NO
          RMS step            0.0116201942            0.0020000000      NO
          MAX step            0.0300950637            0.0040000000      NO
          -------------------------------------------------------------------------
          ........................................................
          Max(Bonds)      0.0137      Max(Angles)    1.72
          Max(Dihed)        0.17      Max(Improp)    0.00
          ---------------------------------------------------------------------

The optimization has not yet converged - more geometry cycles are needed


    ---------------------------------------------------------------------------
                         Redundant Internal Coordinates
                            (Angstroem and degrees)

        Definition                    Value    dE/dq     Step     New-Value
    ----------------------------------------------------------------------------
     1. B(H   1,C   0)                1.0873 -0.000020  0.0003    1.0877   
     2. B(H   2,C   0)                1.1160 -0.000822  0.0023    1.1182   
     3. B(H   3,C   0)                1.0874 -0.000004  0.0001    1.0875   
     4. B(Br  4,C   0)                1.9530  0.000274 -0.0018    1.9512   
     5. B(F   5,H   2)                1.6457  0.000073 -0.0137    1.6320   
     6. A(H   1,C   0,H   3)          109.91  0.000139   -0.03    109.88   
     7. A(H   1,C   0,H   2)          110.02 -0.000417    0.29    110.31   
     8. A(H   1,C   0,Br  4)          106.10 -0.000362    0.23    106.33   
     9. A(H   2,C   0,Br  4)          114.54  0.001424   -1.02    113.52   
    10. A(H   3,C   0,Br  4)          106.10 -0.000367    0.23    106.33   
    11. A(H   2,C   0,H   3)          110.01 -0.000423    0.30    110.31   
    12. A(C   0,H   2,F   5)          153.16 -0.001983    1.72    154.88   
    13. D(F   5,H   2,C   0,H   3)     60.65 -0.000182    0.17     60.82   
    14. D(F   5,H   2,C   0,Br  4)   -179.97 -0.000003    0.00   -179.96   
    15. D(F   5,H   2,C   0,H   1)    -60.57  0.000188   -0.17    -60.75   
    ----------------------------------------------------------------------------

Geometry step timings:
Preparation and reading OPT file:      0.000 s ( 2.825 %)
Internal coordinates            :      0.000 s ( 4.387 %)
B/P matrices and projection     :      0.000 s (12.045 %)
Hessian update/contruction      :      0.000 s (29.517 %)
Making the step                 :      0.000 s ( 8.699 %)
Converting the step to Cartesian:      0.000 s ( 3.271 %)
Storing new data                :      0.000 s ( 6.543 %)
Checking convergence            :      0.000 s ( 7.658 %)
Final printing                  :      0.000 s (24.907 %)
Total time                      :      0.001 s

Time for energy+gradient        :      0.104 s
Time for complete geometry iter :      0.107 s

         *************************************************************
         *                GEOMETRY OPTIMIZATION CYCLE   3            *
         *************************************************************
---------------------------------
CARTESIAN COORDINATES (ANGSTROEM)
---------------------------------
  C    -0.369557    0.205601    0.298814
  H    -0.481145    1.286785    0.258101
  H     0.270123   -0.150719   -0.546363
  H    -1.347285   -0.268817    0.258268
  Br    0.366497   -0.204099    2.058809
  F     0.658176   -0.366494   -2.116805

----------------------------
CARTESIAN COORDINATES (A.U.)
----------------------------
  NO LB    ZA    FRAG    MASS        X           Y           Z
   0 C   6.0000    0    12.011   -0.698361    0.388529    0.564676
   1 H   1.0000    0     1.008   -0.909232    2.431671    0.487739
   2 H   1.0000    0     1.008    0.510459   -0.284817   -1.032477
   3 H   1.0000    0     1.008   -2.546000   -0.507990    0.488055
   4 Br 35.0000    0    79.900    0.692579   -0.385690    3.890585
   5 F   9.0000    0    18.998    1.243773   -0.692574   -4.000182

      -----------------------------------------------------------      
     |                   =====================                   |     
     |                           x T B                           |     
     |                   =====================                   |     
     |                         S. Grimme                         |     
     |          Mulliken Center for Theoretical Chemistry        |     
     |                    University of Bonn                     |     
      -----------------------------------------------------------      

   * xtb version 6.7.1 (edcfbbe) compiled by 'albert@albert-system' on 2024-07-22

   xtb is free software: you can redistribute it and/or modify it under
   the terms of the GNU Lesser General Public License as published by
   the Free Software Foundation, either version 3 of the License, or
   (at your option) any later version.
   
   xtb is distributed in the hope that it will be useful,
   but WITHOUT ANY WARRANTY; without even the implied warranty of
   MERCHANTABILITY or FITNESS FOR A PARTICULAR PURPOSE.  See the
   GNU Lesser General Public License for more details.
   
   Cite this work as:
   * C. Bannwarth, E. Caldeweyher, S. Ehlert, A. Hansen, P. Pracht,
     J. Seibert, S. Spicher, S. Grimme, WIREs Comput. Mol. Sci., 2020, 11,
     e01493. DOI: 10.1002/wcms.1493
   
   for GFN2-xTB:
   * C. Bannwarth, S. Ehlert and S. Grimme., J. Chem. Theory Comput., 2019,
     15, 1652-1671. DOI: 10.1021/acs.jctc.8b01176
   for GFN1-xTB:
   * S. Grimme, C. Bannwarth, P. Shushkov, J. Chem. Theory Comput., 2017,
     13, 1989-2009. DOI: 10.1021/acs.jctc.7b00118
   for GFN0-xTB:
   * P. Pracht, E. Caldeweyher, S. Ehlert, S. Grimme, ChemRxiv, 2019, preprint.
     DOI: 10.26434/chemrxiv.8326202.v1
   for GFN-FF:
   * S. Spicher and S. Grimme, Angew. Chem. Int. Ed., 2020, 59, 15665-15673.
     DOI: 10.1002/anie.202004239
   
   for ALPB and GBSA implicit solvation:
   * S. Ehlert, M. Stahn, S. Spicher, S. Grimme, J. Chem. Theory Comput.,
     2021, 17, 4250-4261. DOI: 10.1021/acs.jctc.1c00471
   
   for ddCOSMO and CPCM-X implicit solvation:
   * M. Stahn, S. Ehlert, S. Grimme, J. Phys. Chem. A,
     2023, XX, XXXX-XXXX. DOI: 10.1021/acs.jpca.3c04382
   
   for DFT-D4:
   * E. Caldeweyher, C. Bannwarth and S. Grimme, J. Chem. Phys., 2017,
     147, 034112. DOI: 10.1063/1.4993215
   * E. Caldeweyher, S. Ehlert, A. Hansen, H. Neugebauer, S. Spicher,
     C. Bannwarth and S. Grimme, J. Chem. Phys., 2019, 150, 154122.
     DOI: 10.1063/1.5090222
   * E. Caldeweyher, J.-M. Mewes, S. Ehlert and S. Grimme, Phys. Chem. Chem. Phys.
     2020, 22, 8499-8512. DOI: 10.1039/D0CP00502A
   
   for sTDA-xTB:
   * S. Grimme and C. Bannwarth, J. Chem. Phys., 2016, 145, 054103.
     DOI: 10.1063/1.4959605
   
   in the mass-spec context:
   * V. Asgeirsson, C. Bauer and S. Grimme, Chem. Sci., 2017, 8, 4879.
     DOI: 10.1039/c7sc00601b
   * J. Koopman and S. Grimme, ACS Omega 2019, 4, 12, 15120-15133.
     DOI: 10.1021/acsomega.9b02011
   
   for metadynamics refer to:
   * S. Grimme, J. Chem. Theory Comput., 2019, 155, 2847-2862
     DOI: 10.1021/acs.jctc.9b00143
   
   for SPH calculations refer to:
   * S. Spicher and S. Grimme, J. Chem. Theory Comput., 2021, 17, 1701-1714
     DOI: 10.1021/acs.jctc.0c01306
   
   for ONIOM refer to:
   * C. Plett, A. Katbashev, S. Ehlert, S. Grimme, M. Bursch,
     Phys. Chem. Chem. Phys., 2023, 25, 17860-17868. DOI: 10.1039/D3CP02178E
   
   for DIPRO refer to:
   * J. Kohn, N. Gildemeister, S. Grimme, D. Fazzi, A. Hansen,
     J. Chem. Phys., 2023, just accepted.
   
   for PTB refer to:
   * S. Grimme, M. Mueller, A. Hansen, J. Chem. Phys., 2023, 158, 124111.
     DOI: 10.1063/5.0137838
   
   with help from (in alphabetical order)
   P. Atkinson, C. Bannwarth, F. Bohle, G. Brandenburg, E. Caldeweyher
   M. Checinski, S. Dohm, S. Ehlert, S. Ehrlich, I. Gerasimov, C. Hölzer
   A. Katbashev, J. Kohn, J. Koopman, C. Lavigne, S. Lehtola, F. März, M. Müller,
   F. Musil, H. Neugebauer, J. Pisarek, C. Plett, P. Pracht, F. Pultar,
   J. Seibert, P. Shushkov, S. Spicher, M. Stahn, M. Steiner, T. Strunk,
   J. Stückrath, T. Rose, and J. Unsleber
   
 * started run on 2026/03/16 at 14:18:14.174     
   ID    Z sym.   atoms
    1    6 C      1
    2    1 H      2-4
    3   35 Br     5
    4    9 F      6

           -------------------------------------------------
          |                Calculation Setup                |
           -------------------------------------------------

          program call               : /software/orca-6.1.0-el8-x86_64/bin/otool_xtb product_optfreq_XTB.xyz --grad -c -1 -u 0 -P 8 --namespace product_optfreq --input product_optfreq_XTB.input.tmp --acc 0.200000
          hostname                   : midway3-login4.rcc.local
          calculation namespace      : product_optfreq
          coordinate file            : product_optfreq_XTB.xyz
          omp threads                :                     8


molecular fragmentation (1/2 indicates fragments):
111112
# atoms in fragment 1/2:     5     1
 fragment masses (1/2) :       94.94       19.00
CMA distance (Bohr)    :   7.400
constraining FC (au)   :  0.0500

           -------------------------------------------------
          |                 G F N 2 - x T B                 |
           -------------------------------------------------

        Reference                      10.1021/acs.jctc.8b01176
      * Hamiltonian:
        H0-scaling (s, p, d)           1.850000    2.230000    2.230000
        zeta-weighting                 0.500000
      * Dispersion:
        s8                             2.700000
        a1                             0.520000
        a2                             5.000000
        s9                             5.000000
      * Repulsion:
        kExp                           1.500000    1.000000
        rExp                           1.000000
      * Coulomb:
        alpha                          2.000000
        third order                    shell-resolved
        anisotropic                    true
        a3                             3.000000
        a5                             4.000000
        cn-shift                       1.200000
        cn-exp                         4.000000
        max-rad                        5.000000

q/qsh data taken from xtbrestart
CAMM data taken from xtbrestart

          ...................................................
          :                      SETUP                      :
          :.................................................:
          :  # basis functions                  21          :
          :  # atomic orbitals                  20          :
          :  # shells                           10          :
          :  # electrons                        22          :
          :  max. iterations                   250          :
          :  Hamiltonian                  GFN2-xTB          :
          :  restarted?                       true          :
          :  GBSA solvation                  false          :
          :  PC potential                    false          :
          :  electronic temp.          300.0000000     K    :
          :  accuracy                    0.2000000          :
          :  -> integral cutoff          0.3198970E+02      :
          :  -> integral neglect         0.2000000E-08      :
          :  -> SCF convergence          0.2000000E-06 Eh   :
          :  -> wf. convergence          0.2000000E-04 e    :
          :  Broyden damping             0.4000000          :
          :  net charge                         -1          :
          :  unpaired electrons                  0          :
          ...................................................

 iter      E             dE          RMSdq      gap      omega  full diag
   1    -12.7418637 -0.127419E+02  0.125E-01    1.47       0.0  T
   2    -12.7418658 -0.207574E-05  0.702E-02    1.46       1.0  T
   3    -12.7418659 -0.194126E-06  0.165E-02    1.45       2.5  T
   4    -12.7418662 -0.249721E-06  0.108E-02    1.45       3.8  T
   5    -12.7418662 -0.522794E-07  0.631E-03    1.45       6.5  T
   6    -12.7418663 -0.324796E-07  0.235E-03    1.45      17.4  T
   7    -12.7418663 -0.255070E-08  0.285E-04    1.45     143.5  T
   8    -12.7418663 -0.424780E-10  0.207E-04    1.45     197.1  T
   9    -12.7418663 -0.443201E-10  0.107E-04    1.45     381.4  T
  10    -12.7418663 -0.839684E-11  0.125E-05    1.45    3255.6  T

   *** convergence criteria satisfied after 10 iterations ***

         #    Occupation            Energy/Eh            Energy/eV
      -------------------------------------------------------------
         1        2.0000           -0.6942874             -18.8925
       ...           ...                  ...                  ...
         5        2.0000           -0.3323767              -9.0444
         6        2.0000           -0.3181782              -8.6581
         7        2.0000           -0.2605576              -7.0901
         8        2.0000           -0.2569129              -6.9910
         9        2.0000           -0.1131815              -3.0798
        10        2.0000           -0.1105540              -3.0083
        11        2.0000           -0.1105223              -3.0075 (HOMO)
        12                         -0.0570944              -1.5536 (LUMO)
        13                          0.1887608               5.1364
        14                          0.1894365               5.1548
        15                          0.2071348               5.6364
        16                          0.2085774               5.6757
       ...                                ...                  ...
        20                          0.5346699              14.5491
      -------------------------------------------------------------
                  HL-Gap            0.0534278 Eh            1.4538 eV
             Fermi-level           -0.0834852 Eh           -2.2717 eV

 SCC (total)                   0 d,  0 h,  0 min,  0.166 sec
 SCC setup                      ...        0 min,  0.000 sec (  0.188%)
 Dispersion                     ...        0 min,  0.000 sec (  0.054%)
 classical contributions        ...        0 min,  0.063 sec ( 37.693%)
 integral evaluation            ...        0 min,  0.101 sec ( 60.755%)
 iterations                     ...        0 min,  0.002 sec (  0.935%)
 molecular gradient             ...        0 min,  0.000 sec (  0.273%)
 printout                       ...        0 min,  0.000 sec (  0.082%)

         :::::::::::::::::::::::::::::::::::::::::::::::::::::
         ::                     SUMMARY                     ::
         :::::::::::::::::::::::::::::::::::::::::::::::::::::
         :: total energy             -12.689220459468 Eh    ::
         :: gradient norm              0.002176870002 Eh/a0 ::
         :: HOMO-LUMO gap              1.453844891495 eV    ::
         ::.................................................::
         :: SCC energy               -12.741866069932 Eh    ::
         :: -> isotropic ES            0.227059023570 Eh    ::
         :: -> anisotropic ES         -0.007131202768 Eh    ::
         :: -> anisotropic XC         -0.009246888423 Eh    ::
         :: -> dispersion             -0.002288906103 Eh    ::
         :: repulsion energy           0.052645610464 Eh    ::
         :: add. restraining           0.000000000000 Eh    ::
         :: total charge              -0.999999999999 e     ::
         :::::::::::::::::::::::::::::::::::::::::::::::::::::


Property printout bound to 'properties.out'

           -------------------------------------------------
          | TOTAL ENERGY              -12.689220459468 Eh   |
          | GRADIENT NORM               0.002176870002 Eh/α |
          | HOMO-LUMO GAP               1.453844891495 eV   |
           -------------------------------------------------

------------------------------------------------------------------------
 * finished run on 2026/03/16 at 14:18:14.353     
------------------------------------------------------------------------
 total:
 * wall-time:     0 d,  0 h,  0 min,  0.179 sec
 *  cpu-time:     0 d,  0 h,  0 min,  0.285 sec
 * ratio c/w:     1.595 speedup
 SCF:
 * wall-time:     0 d,  0 h,  0 min,  0.166 sec
 *  cpu-time:     0 d,  0 h,  0 min,  0.213 sec
 * ratio c/w:     1.278 speedup


-------------------------   --------------------
FINAL SINGLE POINT ENERGY       -12.689220459470
-------------------------   --------------------


-------------
DIPOLE MOMENT
-------------
                                X             Y             Z
Total Dipole Moment    :     -1.61600       0.90000       1.19800
                        -----------------------------------------
Magnitude (a.u.)       :      2.20378
Magnitude (Debye)      :      5.60157


------------------
CARTESIAN GRADIENT
------------------

   1   C   :   -0.000181490    0.000007785   -0.001307919
   2   H   :   -0.000089236    0.000222869   -0.000143590
   3   H   :    0.000753005   -0.000430431    0.001203071
   4   H   :   -0.000133992    0.000003617   -0.000141178
   5   Br  :    0.000260380   -0.000145572    0.000078298
   6   F   :   -0.000608667    0.000341731    0.000311318

Difference to translation invariance:
           :   -0.0000000000   -0.0000000000   -0.0000000000

Difference to rotation invariance:
           :   -0.0000000016   -0.0000000027    0.0000000001

Norm of the Cartesian gradient     ...    0.0021768700
RMS gradient                       ...    0.0005130932
MAX gradient                       ...    0.0013079194
------------------------------------------------------------------------------
                         ORCA GEOMETRY RELAXATION STEP
------------------------------------------------------------------------------

Reading the OPT-File                    .... done
Getting information on internals        .... done
Copying old internal coords+grads       .... done
Making the new internal coordinates     .... (2022 redundants) done
Validating the new internal coordinates .... (2022 redundants) done
Calculating the B-matrix                .... done
Calculating the G,G- and P matrices     .... done
Transforming gradient to internals      .... done
Projecting the internal gradient        .... done
Number of atoms                         ....   6
Number of internal coordinates          ....  15
Current Energy                          ....   -12.689220459 Eh
Current gradient norm                   ....     0.002176870 Eh/bohr
Maximum allowed component of the step   ....  0.300
Current trust radius                    ....  0.200
Updating the Hessian (BFGS)             .... done
Forming the augmented Hessian           .... done
Diagonalizing the augmented Hessian     .... done
Last element of RFO vector              ....  0.999410003
Lowest eigenvalues of augmented Hessian:
 -0.000050840  0.025631685  0.070177433  0.095830436  0.220234217
Length of the computed step             ....  0.034366255
The final length of the internal step   ....  0.034366255
Converting the step to Cartesian space:
 Initial RMS(Int)=    0.0088733288
Transforming coordinates:
 Iter   0:  RMS(Cart)=    0.0191183618 RMS(Int)=    0.0088220924
done
Storing new coordinates                 .... done
The predicted energy change is          ....    -0.000025450
Previously predicted energy change      ....    -0.000050002
Actually observed energy change         ....    -0.000067355
Ratio of predicted to observed change   ....     1.347045858
New trust radius                        ....     0.200000000

                                .--------------------.
          ----------------------|Geometry convergence|-------------------------
          Item                value                   Tolerance       Converged
          ---------------------------------------------------------------------
          Energy change      -0.0000673546            0.0000050000      NO
          RMS gradient        0.0005878786            0.0001000000      NO
          MAX gradient        0.0018103483            0.0003000000      NO
          RMS step            0.0088733288            0.0020000000      NO
          MAX step            0.0307326331            0.0040000000      NO
          -------------------------------------------------------------------------
          ........................................................
          Max(Bonds)      0.0044      Max(Angles)    1.76
          Max(Dihed)        0.12      Max(Improp)    0.00
          ---------------------------------------------------------------------

The optimization has not yet converged - more geometry cycles are needed


    ---------------------------------------------------------------------------
                         Redundant Internal Coordinates
                            (Angstroem and degrees)

        Definition                    Value    dE/dq     Step     New-Value
    ----------------------------------------------------------------------------
     1. B(H   1,C   0)                1.0877  0.000236 -0.0002    1.0875   
     2. B(H   2,C   0)                1.1182 -0.001034  0.0026    1.1208   
     3. B(H   3,C   0)                1.0875  0.000124 -0.0001    1.0874   
     4. B(Br  4,C   0)                1.9512  0.000199 -0.0017    1.9495   
     5. B(F   5,H   2)                1.6320 -0.000489 -0.0044    1.6276   
     6. A(H   1,C   0,H   3)          109.88 -0.000014   -0.01    109.87   
     7. A(H   1,C   0,H   2)          110.31  0.000006    0.19    110.50   
     8. A(H   1,C   0,Br  4)          106.33  0.000296    0.10    106.43   
     9. A(H   2,C   0,Br  4)          113.52 -0.000558   -0.56    112.95   
    10. A(H   3,C   0,Br  4)          106.33  0.000296    0.10    106.43   
    11. A(H   2,C   0,H   3)          110.31 -0.000002    0.19    110.50   
    12. A(C   0,H   2,F   5)          154.88 -0.001810    1.76    156.64   
    13. D(F   5,H   2,C   0,H   3)     60.82 -0.000006    0.12     60.94   
    14. D(F   5,H   2,C   0,Br  4)   -179.96 -0.000001    0.00   -179.96   
    15. D(F   5,H   2,C   0,H   1)    -60.75  0.000010   -0.12    -60.87   
    ----------------------------------------------------------------------------

Geometry step timings:
Preparation and reading OPT file:      0.000 s ( 2.941 %)
Internal coordinates            :      0.000 s ( 4.452 %)
B/P matrices and projection     :      0.000 s (12.798 %)
Hessian update/contruction      :      0.000 s (30.445 %)
Making the step                 :      0.000 s ( 8.188 %)
Converting the step to Cartesian:      0.000 s ( 3.100 %)
Storing new data                :      0.000 s ( 7.234 %)
Checking convergence            :      0.000 s ( 8.108 %)
Final printing                  :      0.000 s (22.655 %)
Total time                      :      0.001 s

Time for energy+gradient        :      0.189 s
Time for complete geometry iter :      0.191 s

         *************************************************************
         *                GEOMETRY OPTIMIZATION CYCLE   4            *
         *************************************************************
---------------------------------
CARTESIAN COORDINATES (ANGSTROEM)
---------------------------------
  C    -0.377825    0.210183    0.298187
  H    -0.489849    1.291437    0.265345
  H     0.258912   -0.144461   -0.553296
  H    -1.355884   -0.263863    0.265508
  Br    0.381779   -0.212583    2.043119
  F     0.679677   -0.378456   -2.108041

----------------------------
CARTESIAN COORDINATES (A.U.)
----------------------------
  NO LB    ZA    FRAG    MASS        X           Y           Z
   0 C   6.0000    0    12.011   -0.713985    0.397188    0.563492
   1 H   1.0000    0     1.008   -0.925681    2.440463    0.501430
   2 H   1.0000    0     1.008    0.489273   -0.272992   -1.045577
   3 H   1.0000    0     1.008   -2.562250   -0.498628    0.501737
   4 Br 35.0000    0    79.900    0.721458   -0.401724    3.860935
   5 F   9.0000    0    18.998    1.284404   -0.715178   -3.983620

      -----------------------------------------------------------      
     |                   =====================                   |     
     |                           x T B                           |     
     |                   =====================                   |     
     |                         S. Grimme                         |     
     |          Mulliken Center for Theoretical Chemistry        |     
     |                    University of Bonn                     |     
      -----------------------------------------------------------      

   * xtb version 6.7.1 (edcfbbe) compiled by 'albert@albert-system' on 2024-07-22

   xtb is free software: you can redistribute it and/or modify it under
   the terms of the GNU Lesser General Public License as published by
   the Free Software Foundation, either version 3 of the License, or
   (at your option) any later version.
   
   xtb is distributed in the hope that it will be useful,
   but WITHOUT ANY WARRANTY; without even the implied warranty of
   MERCHANTABILITY or FITNESS FOR A PARTICULAR PURPOSE.  See the
   GNU Lesser General Public License for more details.
   
   Cite this work as:
   * C. Bannwarth, E. Caldeweyher, S. Ehlert, A. Hansen, P. Pracht,
     J. Seibert, S. Spicher, S. Grimme, WIREs Comput. Mol. Sci., 2020, 11,
     e01493. DOI: 10.1002/wcms.1493
   
   for GFN2-xTB:
[...]
             Fermi-level           -0.0829154 Eh           -2.2562 eV

 SCC (total)                   0 d,  0 h,  0 min,  0.091 sec
 SCC setup                      ...        0 min,  0.000 sec (  0.230%)
 Dispersion                     ...        0 min,  0.000 sec (  0.085%)
 classical contributions        ...        0 min,  0.000 sec (  0.062%)
 integral evaluation            ...        0 min,  0.089 sec ( 97.953%)
 iterations                     ...        0 min,  0.001 sec (  0.931%)
 molecular gradient             ...        0 min,  0.001 sec (  0.568%)
 printout                       ...        0 min,  0.000 sec (  0.153%)

         :::::::::::::::::::::::::::::::::::::::::::::::::::::
         ::                     SUMMARY                     ::
         :::::::::::::::::::::::::::::::::::::::::::::::::::::
         :: total energy             -12.689323425350 Eh    ::
         :: gradient norm              0.000189491252 Eh/a0 ::
         :: HOMO-LUMO gap              1.488024477259 eV    ::
         ::.................................................::
         :: SCC energy               -12.741481942250 Eh    ::
         :: -> isotropic ES            0.226605766402 Eh    ::
         :: -> anisotropic ES         -0.006984393088 Eh    ::
         :: -> anisotropic XC         -0.009359235213 Eh    ::
         :: -> dispersion             -0.002301352933 Eh    ::
         :: repulsion energy           0.052158516900 Eh    ::
         :: add. restraining           0.000000000000 Eh    ::
         :: total charge              -0.999999999999 e     ::
         :::::::::::::::::::::::::::::::::::::::::::::::::::::

           ------------------------------------------------- 
          |                Numerical Hessian                |
           ------------------------------------------------- 
step length          :   0.00500
SCC accuracy         :   0.30000
Hessian scale factor :   1.00000
frozen atoms in %    :   0.00000    0
RMS gradient         :   0.00019
estimated CPU  time      0.00 min
estimated wall time      0.00 min

writing file <hessian>.

 projected vibrational frequencies (cm⁻¹)
eigval :       -0.00    -0.00    -0.00     0.00     0.00     0.00
eigval :       93.46   293.55   323.18   556.64   945.27  1010.42
eigval :     1317.40  1394.80  1437.20  2422.94  3013.12  3019.94

Property printout bound to 'properties.out'
Molecule has the following symmetry elements: (sigma) 
It seems to be the Cs point group

           -------------------------------------------------
          | TOTAL ENERGY              -12.689323425350 Eh   |
          | TOTAL ENTHALPY            -12.647629605296 Eh   |
          | TOTAL FREE ENERGY         -12.682236635385 Eh   |
          | GRADIENT NORM               0.000189479706 Eh/α |
          | HOMO-LUMO GAP               1.488024249073 eV   |
           -------------------------------------------------

------------------------------------------------------------------------
 * finished run on 2026/03/16 at 14:18:15.346     
------------------------------------------------------------------------
 total:
 * wall-time:     0 d,  0 h,  0 min,  0.185 sec
 *  cpu-time:     0 d,  0 h,  0 min,  0.343 sec
 * ratio c/w:     1.858 speedup
 SCF:
 * wall-time:     0 d,  0 h,  0 min,  0.091 sec
 *  cpu-time:     0 d,  0 h,  0 min,  0.179 sec
 * ratio c/w:     1.965 speedup
 analytical hessian:
 * wall-time:     0 d,  0 h,  0 min,  0.011 sec
 *  cpu-time:     0 d,  0 h,  0 min,  0.084 sec
 * ratio c/w:     7.847 speedup


-------------------------   --------------------
FINAL SINGLE POINT ENERGY       -12.689323425350
-------------------------   --------------------


-------------
DIPOLE MOMENT
-------------
                                X             Y             Z
Total Dipole Moment    :     -1.73700       0.96700       1.19900
                        -----------------------------------------
Magnitude (a.u.)       :      2.32161
Magnitude (Debye)      :      5.90106


-----------------------
VIBRATIONAL FREQUENCIES
-----------------------

Scaling factor for frequencies =  1.000000000  (already applied!)

     0:       0.00 cm**-1
     1:       0.00 cm**-1
     2:       0.00 cm**-1
     3:       0.00 cm**-1
     4:       0.00 cm**-1
     5:       0.00 cm**-1
     6:      93.46 cm**-1
     7:     293.55 cm**-1
     8:     323.17 cm**-1
     9:     556.64 cm**-1
    10:     945.24 cm**-1
    11:    1010.39 cm**-1
    12:    1317.36 cm**-1
    13:    1394.76 cm**-1
    14:    1437.16 cm**-1
    15:    2422.87 cm**-1
    16:    3013.03 cm**-1
    17:    3019.85 cm**-1


------------
NORMAL MODES
------------

These modes are the Cartesian displacements weighted by the diagonal matrix
M(i,i)=1/sqrt(m[i]) where m[i] is the mass of the displaced atom
Thus, these vectors are normalized but *not* orthogonal

                  0          1          2          3          4          5    
      0       0.000000   0.000000   0.000000   0.000000   0.000000   0.000000
      1       0.000000   0.000000   0.000000   0.000000   0.000000   0.000000
      2       0.000000   0.000000   0.000000   0.000000   0.000000   0.000000
      3       0.000000   0.000000   0.000000   0.000000   0.000000   0.000000
      4       0.000000   0.000000   0.000000   0.000000   0.000000   0.000000
      5       0.000000   0.000000   0.000000   0.000000   0.000000   0.000000
      6       0.000000   0.000000   0.000000   0.000000   0.000000   0.000000
      7       0.000000   0.000000   0.000000   0.000000   0.000000   0.000000
      8       0.000000   0.000000   0.000000   0.000000   0.000000   0.000000
      9       0.000000   0.000000   0.000000   0.000000   0.000000   0.000000
     10       0.000000   0.000000   0.000000   0.000000   0.000000   0.000000
     11       0.000000   0.000000   0.000000   0.000000   0.000000   0.000000
     12       0.000000   0.000000   0.000000   0.000000   0.000000   0.000000
     13       0.000000   0.000000   0.000000   0.000000   0.000000   0.000000
     14       0.000000   0.000000   0.000000   0.000000   0.000000   0.000000
     15       0.000000   0.000000   0.000000   0.000000   0.000000   0.000000
     16       0.000000   0.000000   0.000000   0.000000   0.000000   0.000000
     17       0.000000   0.000000   0.000000   0.000000   0.000000   0.000000
                  6          7          8          9         10         11    
      0      -0.331555  -0.321022   0.050156   0.196829   0.083268   0.050584
      1       0.184710   0.178598   0.090093  -0.109534  -0.046418   0.090811
      2       0.135547   0.138587   0.000026   0.537677  -0.030043  -0.000085
      3      -0.329548  -0.308884  -0.513693   0.158025  -0.039495  -0.349020
      4       0.187757   0.178272   0.035397  -0.104611  -0.033305   0.023610
      5       0.263837   0.294367   0.261495   0.378016   0.420186  -0.557471
      6      -0.417081  -0.438458   0.275442   0.155083  -0.451198  -0.170423
      7       0.232823   0.243250   0.494742  -0.086766   0.251307  -0.305714
      8       0.023930   0.029221  -0.000053   0.506721  -0.604101  -0.000171
      9      -0.332529  -0.314869   0.300519   0.172344   0.007347   0.203924
     10       0.180316   0.169532  -0.418093  -0.079292   0.051406  -0.284245
     11       0.263375   0.295097  -0.261250   0.378602   0.419899   0.557746
     12       0.036736   0.021814  -0.003420  -0.040169  -0.007096  -0.004044
     13      -0.020462  -0.012135  -0.006135   0.022358   0.003955  -0.007265
     14      -0.119517   0.055198   0.000029  -0.080634   0.000392   0.000008
     15       0.112374   0.167574  -0.020628   0.018741   0.002847   0.001769
     16      -0.062603  -0.093239  -0.037101  -0.010421  -0.001583   0.003190
     17       0.387717  -0.352590  -0.000149  -0.067842   0.004826   0.000014
                 12         13         14         15         16         17    
      0      -0.023896  -0.028846   0.063246  -0.045331   0.053613  -0.044824
      1       0.013291  -0.051821  -0.035193   0.025260  -0.030128  -0.080153
      2      -0.104431   0.000006  -0.010641   0.060118  -0.001165   0.000008
      3       0.074660   0.155823  -0.688241  -0.015549  -0.034272  -0.085971
      4       0.022421  -0.010011  -0.072419   0.044408   0.706275   0.696419
      5       0.556493  -0.408897   0.002397   0.009529  -0.014197  -0.006638
      6       0.402959   0.381070   0.141063   0.604215  -0.005421  -0.018309
      7      -0.224475   0.684014  -0.078799  -0.336590   0.002889  -0.032983
      8       0.379786   0.000006   0.104159  -0.714635   0.028445  -0.000141
      9       0.020287  -0.090707  -0.300834  -0.046009  -0.615225   0.640571
     10      -0.075148   0.127546   0.623101  -0.010227  -0.341276   0.295522
     11       0.556330   0.409023   0.002176   0.009524  -0.014075   0.006612
     12      -0.002234  -0.000811   0.001225   0.000135   0.000195  -0.000051
     13       0.001245  -0.001455  -0.000682  -0.000075  -0.000108  -0.000091
     14      -0.002827  -0.000002   0.000470   0.000168   0.000230   0.000001
     15      -0.001913  -0.002027  -0.000144  -0.000702   0.000035   0.000097
     16       0.001068  -0.003645   0.000082   0.000392  -0.000017   0.000175
     17      -0.001280  -0.000004  -0.001017  -0.001809  -0.000241   0.000001


The first frequency considered to be a vibration is 6
The total number of vibrations considered is 12


--------------------------
THERMOCHEMISTRY AT 298.15K
--------------------------

Temperature         ...   298.15 K
Pressure            ...     1.00 atm
Total Mass          ...   113.93 AMU
Quasi RRHO          ...     True
Cut-Off Frequency   ...     1.00 cm^-1

Throughout the following assumptions are being made:
  (1) The electronic state is orbitally nondegenerate
  (2) There are no thermally accessible electronically excited states
  (3) Hindered rotations indicated by low frequency modes are not
      treated as such but are treated as vibrations and this may
      cause some error
  (4) All equations used are the standard statistical mechanics
      equations for an ideal gas
  (5) All vibrations are strictly harmonic

freq.      93.46  E(vib)   ...       0.47 
freq.     293.55  E(vib)   ...       0.27 
freq.     323.17  E(vib)   ...       0.25 
freq.     556.64  E(vib)   ...       0.12 
freq.     945.24  E(vib)   ...       0.03 
freq.    1010.39  E(vib)   ...       0.02 
freq.    1317.36  E(vib)   ...       0.01 
freq.    1394.76  E(vib)   ...       0.00 
freq.    1437.16  E(vib)   ...       0.00 
freq.    2422.87  E(vib)   ...       0.00 
freq.    3013.03  E(vib)   ...       0.00 
freq.    3019.85  E(vib)   ...       0.00 

------------
INNER ENERGY
------------

The inner energy is: U= E(el) + E(ZPE) + E(vib) + E(rot) + E(trans)
    E(el)   - is the total energy from the electronic structure calculation
              = E(kin-el) + E(nuc-el) + E(el-el) + E(nuc-nuc)
    E(ZPE)  - the the zero temperature vibrational energy from the frequency calculation
    E(vib)  - the the finite temperature correction to E(ZPE) due to population
              of excited vibrational states
    E(rot)  - is the rotational thermal energy
    E(trans)- is the translational thermal energy

Summary of contributions to the inner energy U:
Electronic energy                ...    -12.68932343 Eh
Zero point energy                ...      0.03605769 Eh      22.63 kcal/mol
Thermal vibrational correction   ...      0.00185839 Eh       1.17 kcal/mol
Thermal rotational correction    ...      0.00141627 Eh       0.89 kcal/mol
Thermal translational correction ...      0.00141627 Eh       0.89 kcal/mol
-----------------------------------------------------------------------
Total thermal energy                    -12.64857480 Eh


Summary of corrections to the electronic energy:
(perhaps to be used in another calculation)
Total thermal correction                  0.00469093 Eh       2.94 kcal/mol
Non-thermal (ZPE) correction              0.03605769 Eh      22.63 kcal/mol
-----------------------------------------------------------------------
Total correction                          0.04074862 Eh      25.57 kcal/mol


--------
ENTHALPY
--------

The enthalpy is H = U + kB*T
                kB is Boltzmann's constant
Total thermal energy              ...    -12.64857480 Eh 
Thermal Enthalpy correction       ...      0.00094421 Eh       0.59 kcal/mol
-----------------------------------------------------------------------
Total Enthalpy                    ...    -12.64763059 Eh


WARNING (ORCA/SYM): The number of Z matrix atoms does not agree with
the number of centers in the basis set. The point group will therefore
be determined without considering basis set information.


Note: Only C1 symmetry has been detected, increase convergence thresholds 
      if your molecule has a higher symmetry. Symmetry factor of 1.0 is   
      used for the rotational entropy correction. 
 

Note: Rotational entropy computed according to Herzberg 
Infrared and Raman Spectra, Chapter V,1, Van Nostrand Reinhold, 1945 
Point Group:  C1, Symmetry Number:   1  
Rotational constants in cm-1:     0.963246     0.060863     0.057874 

Vibrational entropy computed according to the QRRHO of S. Grimme
Chem.Eur.J. 2012 18 9955 using a reference frequency of 100.0 cm-1


-------
ENTROPY
-------

The entropy contributions are T*S = T*(S(el)+S(vib)+S(rot)+S(trans))
     S(el)   - electronic entropy
     S(vib)  - vibrational entropy
     S(rot)  - rotational entropy
     S(trans)- translational entropy
The entropies will be listed as multiplied by the temperature to get
units of energy

Electronic entropy                ...      0.00000000 Eh      0.00 kcal/mol
Vibrational entropy               ...      0.00321271 Eh      2.02 kcal/mol
Rotational entropy                ...      0.01219514 Eh      7.65 kcal/mol
Translational entropy             ...      0.01905598 Eh     11.96 kcal/mol
-----------------------------------------------------------------------
Final entropy term                ...      0.03446383 Eh     21.63 kcal/mol

In case the symmetry of your molecule has not been determined correctly
or in case you have a reason to use a different symmetry number we print 
out the resulting rotational entropy values for sn=1,12:

 non-linear molecules -----------------------------------
|  sn= 1 | S(rot)=       0.01219514 Eh      7.65 kcal/mol|
|  sn= 2 | S(rot)=       0.01154069 Eh      7.24 kcal/mol|
|  sn= 3 | S(rot)=       0.01115785 Eh      7.00 kcal/mol|
|  sn= 4 | S(rot)=       0.01088623 Eh      6.83 kcal/mol|
|  sn= 5 | S(rot)=       0.01067554 Eh      6.70 kcal/mol|
|  sn= 6 | S(rot)=       0.01050340 Eh      6.59 kcal/mol|
|  sn= 7 | S(rot)=       0.01035785 Eh      6.50 kcal/mol|
|  sn= 8 | S(rot)=       0.01023177 Eh      6.42 kcal/mol|
|  sn= 9 | S(rot)=       0.01012057 Eh      6.35 kcal/mol|
|  sn=10 | S(rot)=       0.01002109 Eh      6.29 kcal/mol|
|  sn=11 | S(rot)=       0.00993110 Eh      6.23 kcal/mol|
|  sn=12 | S(rot)=       0.00984894 Eh      6.18 kcal/mol|
 linear molecules ---------------------------------------
|  Dinfh | S(rot)=       0.00801623 Eh      5.03 kcal/mol|
|  Cinfv | S(rot)=       0.00867069 Eh      5.44 kcal/mol|
 --------------------------------------------------------


-------------------
GIBBS FREE ENERGY
-------------------

The Gibbs free energy is G = H - T*S

Total enthalpy                    ...    -12.64763059 Eh 
Total entropy correction          ...     -0.03446383 Eh    -21.63 kcal/mol
-----------------------------------------------------------------------
Final Gibbs free energy         ...    -12.68209443 Eh

For completeness - the Gibbs free energy minus the electronic energy
G-E(el)                           ...      0.00722900 Eh      4.54 kcal/mol


--------------------------------
SUGGESTED CITATIONS FOR THIS RUN
--------------------------------

Below you find a list of papers that are relevant to this ORCA run
We neither can nor want to force you to cite these papers, but we appreciate if you do
You receive ORCA, which is the product of decades of hard work by many enthusiastic individuals, for free
The only thing we kindly ask in return is that you cite our papers,
We deeply appreciate it, if you show your appreciation for ORCA by not just citing the generic ORCA reference.

Please note that relegating all ORCA citations to the supporting information does *not* help us.
SI sections are not indexed - citations you put there will not count into any citation statistics
But we need these citations in order to attract the funding resources that allow us to do what we are doing

Therefore, if you are a happy ORCA user, please consider citing a few of the papers listed below in the main body of your paper

In addition to the list printed below, the program has created the file product_optfreq.bibtex that contains the list in bibtex format
You can import this file easily into all common literature databanks and citation aid programs


List of essential papers. We consider these as the minimum necessary citations

  1. Bannwarth, C.; Ehlert, S.; Grimme, S.
     GFN2-xTB—An Accurate and Broadly Parametrized Self-Consistent Tight-Binding Quantum Chemical Method with Multipole Electrostatics and Density-Dependent Dispersion Contributions
     J. Chem. Theory Comput. 2019 15(3), 1652-1671
     doi.org/10.1021/acs.jctc.8b01176
  2. Neese, F.
     Software update: the ORCA program system, version 6.0
     WIRES Comput. Molec. Sci. 2025 15(1), e70019
     doi.org/10.1002/wcms.7019

List of papers to cite with high priority. The work reported in these papers was absolutely
necessary for this run to complete.
Our perspective: the developers of density functionals and basis sets usually get cited in chemistry papers
Good! But without the algorithms to do something with them, the functionals or basis sets would not do anything.
Hence, in our opinion, the algorithm design and method developments papers are equally worthy of getting cited

  1. Bykov, D.; Petrenko, T.; Izsak, R.; Kossmann, S.; Becker, U.; Valeev, E.; Neese, F.
     Efficient implementation of the analytic second derivatives of Hartree-Fock and hybrid DFT energies: a detailed analysis of different approximations
     Molec. Phys. 2015 113 , 1961-1977
     doi.org/10.1080/00268976.2015.1025114
  2. Bannwarth, C.; Caldeweyher, E.; Ehlert, S.; Hansen, A.; Pracht, P.; Seibert, J.; Spicher, S.; Grimme, S.
     Extended tight-binding quantum chemistry methods
     WIRES Comput. Molec. Sci. 2020 11(2), e1493
     doi.org/10.1002/wcms.1493

List of suggested additional citations. These are papers that are important in the 'surrounding' of 
of this run, or papers that preceded the highly important papers. If you like your results we are grateful for a citation.

  1. Neese, F.
     The ORCA program system
     WIRES Comput. Molec. Sci. 2012 2(1), 73-78
     doi.org/10.1002/wcms.81
  2. Neese, F.
     Software update: the ORCA program system, version 4.0
     WIRES Comput. Molec. Sci. 2018 8(1), 1-6
     doi.org/10.1002/wcms.1327
  3. Neese, F.; Wennmohs, F.; Becker, U.; Riplinger, C.
     The ORCA quantum chemistry program package
     J. Chem. Phys. 2020 152(22), 224108
     doi.org/10.1063/5.0004608
  4. Neese, F.
     Software update: The ORCA program system—Version 5.0
     WIRES Comput. Molec. Sci. 2022 12(1), e1606
     doi.org/10.1002/wcms.1606

List of optional additional citations

  1. Neese, F.
     Approximate second-order SCF convergence for spin unrestricted wavefunctions
     Chem. Phys. Lett. 2000 325(1-3), 93-98
     doi.org/10.1016/s0009-2614(00)00662-x

Timings for individual modules:

Sum of individual times          ...        1.407 sec (=   0.023 min)
Geometry relaxation              ...        0.037 sec (=   0.001 min)   2.6 %
XTB module                       ...        1.370 sec (=   0.023 min)  97.4 %
                             ****ORCA TERMINATED NORMALLY****
TOTAL RUN TIME: 0 days 0 hours 0 minutes 2 seconds 188 msec
