
                                 *****************
                                 * O   R   C   A *
                                 *****************

                                            #,                                       
                                            ###                                      
                                            ####                                     
                                            #####                                    
                                            ######                                   
                                           ########,                                 
                                     ,,################,,,,,                         
                               ,,#################################,,                 
                          ,,##########################################,,             
                       ,#########################################, ''#####,          
                    ,#############################################,,   '####,        
                  ,##################################################,,,,####,       
                ,###########''''           ''''###############################       
              ,#####''   ,,,,##########,,,,          '''####'''          '####       
            ,##' ,,,,###########################,,,                        '##       
           ' ,,###''''                  '''############,,,                           
         ,,##''                                '''############,,,,        ,,,,,,###''
      ,#''                                            '''#######################'''  
     '                                                          ''''####''''         
             ,#######,   #######,   ,#######,      ##                                
            ,#'     '#,  ##    ##  ,#'     '#,    #''#        ,####,    ,#,          
            ##       ##  ##   ,#'  ##            #'  '#       #'       ,# #          
            ##       ##  #######   ##           ,######,      #####,      #          
            '#,     ,#'  ##    ##  '#,     ,#' ,#      #,     #,   #      #          
             '#######'   ##     ##  '#######'  #'      '#     '####' #    #          



                #########################################################
                #                        -***-                          #
                #          Department of theory and spectroscopy        #
                #                                                       #
                #                      Frank Neese                      #
                #                                                       #
                #     Directorship, Architecture, Infrastructure        #
                #                    SHARK, DRIVERS                     #
                #        Core code/Algorithms in most modules           #
                #                                                       #
                #        Max Planck Institute fuer Kohlenforschung      #
                #                Kaiser Wilhelm Platz 1                 #
                #                 D-45470 Muelheim/Ruhr                 #
                #                      Germany                          #
                #                                                       #
                #                  All rights reserved                  #
                #                        -***-                          #
                #########################################################


                         Program Version 6.1.0  -  RELEASE   -
                                (GIT: $679e74b$)
                          ($2025-06-10 18:02:51 +0200$)


 With contributions from (in alphabetic order):
[Max-Planck-Institut fuer Kohlenforschung]                               
  Daniel Aravena         : Magnetic Suceptibility                        
  Michael Atanasov       : Ab Initio Ligand Field Theory (pilot matlab implementation)
  Alexander A. Auer      : GIAO ZORA, VPT2 properties, NMR spectrum      
  Ute Becker             : All parallelization in ORCA, NUMFREQ, NUMCALC 
  Giovanni Bistoni       : ED, misc. LED, open-shell LED, HFLD           
  Dmytro Bykov           : pre 5.0 version of the SCF Hessian            
  Marcos Casanova-Páez   : Triplet and SCS-CIS(D). UHF-(DLPNO)-IP/EA/STEOM-CCSD. UHF-CVS-IP/STEOM-CCSD   
  Vijay G. Chilkuri      : MRCI spin determinant printing, contributions to CSF-ICE 
  Pauline Colinet        : FMM embedding                                 
  Dipayan Datta          : RHF DLPNO-CCSD density                        
  Achintya Kumar Dutta   : EOM-CC, STEOM-CC                              
  Nicolas Foglia         : Exact transition moments, OPA infrastructure, MCD improvements    
  Dmitry Ganyushin       : Spin-Orbit,Spin-Spin,Magnetic field MRCI      
  Miquel Garcia-Rates    : C-PCM and meta-GGA Hessian, CCSD/C-PCM, Gaussian charge scheme 
  Tiago L. C. Gouveia    : GS-ROHF, GS-ROCIS                             
  Yang Guo               : DLPNO-NEVPT2, F12-NEVPT2, CIM, IAO-localization        
  Andreas Hansen         : Spin unrestricted coupled pair/coupled cluster methods 
  Ingolf Harden          : AUTO-CI MPn and infrastructure                
  Benjamin Helmich-Paris : MC-RPA, TRAH-(SCF,CASSCF), AVAS, COSX integrals, SCF dyn. polar., MC-PDFT, srDFT 
  Lee Huntington         : MR-EOM, pCC                                   
  Robert Izsak           : Overlap fitted RIJCOSX, COSX-SCS-MP3, EOM     
  Riya Kayal             : Wick's Theorem for AUTO-CI, AUTO-CI UHF-CCSDT 
  Emily Kempfer          : AUTO-CI RHF CISDT and CCSDT, approximate NEVPT4
  Christian Kollmar      : KDIIS, OOCD, Brueckner-CCSD(T), CCSD density, CASPT2, CASPT2-K, improved NEVPT2 
  Axel Koslowski         : Symmetry handling                             
  Simone Kossmann        : meta-GGA functionals, TD-DFT gradient, OOMP2, (MP2 Hessian; deprecated post 5.0) 
  Lucas Lang             : DCDCAS, Hyperfine gauge corrections, ICE-SOC+SSC
  Marvin Lechner         : AUTO-CI (C++ implementation), FIC-MRCC        
  Spencer Leger          : CASSCF response                               
  Dagmar Lenk            : GEPOL surface, SMD, ORCA-2-JSON               
  Dimitrios Liakos       : Extrapolation schemes; Compound Job, Property file
  Dimitrios Manganas     : Further ROCIS development; embedding schemes. LFT, Crystal Embedding 
  Dimitrios Pantazis     : SARC Basis sets                               
  Anastasios Papadopoulos: AUTO-CI, single reference methods and gradients 
  Taras Petrenko         : pre 6.0 DFT Hessian and TD-DFT gradient,  ECA, NRVS 
  Petra Pikulova         : Analytic Raman intensities                    
  Peter Pinski           : DLPNO-MP2, DLPNO-MP2 Gradient                 
  Shashank Vittal Rao    : ES-AILFT, MagRelax                            
  Christoph Reimann      : Effective Core Potentials                     
  Marius Retegan         : Local ZFS, SOC                                
  Christoph Riplinger    : Optimizer, TS searches, QM/MM, DLPNO-CCSD(T), (RO)-DLPNO pert. Triples 
  Michael Roemelt        : Original ROCIS implementation, recursive CI coupling coefficients
  Masaaki Saitow         : Open-shell DLPNO-CCSD energy and density      
  Barbara Sandhoefer     : DKH picture change effects                    
  Yorick L. A. Schmerwitz: GMF and freeze-and-release deltaSCF, NEB S-IDPP initial path                    
  Kantharuban Sivalingam : CASSCF convergence/infrastructure, NEVPT2, NEVPT3, NEVPT4(SD), FIC-MRCI and CEPA variants
  Bernardo de Souza      : ESD, SOC TD-DFT                               
  Georgi L. Stoychev     : AutoAux, RI-MP2 NMR, DLPNO-MP2 response, X2C  
  Van Anh Tran           : RI-MP2 g-tensors                              
  Willem Van den Heuvel  : Paramagnetic NMR                              
  Zikuan Wang            : NOTCH, Electric field optimization            
  Frank Wennmohs         : Technical directorship and infrastructure     
  Hang Xu                : AUTO-CI-Response properties                   
                                                                         
[FACCTs GmbH]                                                            
  Markus Bursch, Nicolas Foglia, Miquel Garcia-Rates, Ingolf Harden, Hagen Neugebauer, Anastasios Papadopoulos, 
  Christoph Riplinger, Bernardo de Souza, Georgi L. Stoychev                                                    
                                                                 
  APM, various basis sets, CI-OPT, improved COSX, DLPNO-Multilevel,           
  DOCKER, DRACO, updates on ESD, Fragmentator, GOAT, IRC, LR-CPCM, L-BFGS, MBIS, meta-GGA TD-DFT gradient, ML-optimized integration grids, 
  MM, NACMEs, nearIR, NEB, NEB-TS, NL-DFT gradient (VV10), 2- and 3-layer-ONIOM, interface openCOSMO-RS, QMMM,   
  Crystal-QMMM, RESP, rigid body optimization, SF, symmetry and pop. for TD-DFT, various functionals, SOLVATOR                                   
                                                                         
[Other institutions]                                                     
  V. Asgeirsson          : NEB                                           
  Christoph Bannwarth    : sTDA-DFT, sTD-DFT, PBEh-3c, B97-3c, D3        
  Giovanni Bistoni       : ETS/NOCV, ADLD/ADEX, COVALED                  
  Martin Brehm           : Molecular dynamics                            
  Ronald Cardenas        : ETS/NOCV                                      
  Martina Colucci        : COVALED                                       
  Sebastian Ehlert       : rSCAN, r2SCAN, r2SCAN-3c, D4, dhf basis sets  
  Marvin Friede          : D4 for Fr, Ra, Ac-Lr                          
  Lars Goerigk           : TD-DFT with DH, B97 family of functionals     
  Stefan Grimme          : VdW corrections, initial TS optimization, DFT functionals, gCP, sTDA/sTD-DF 
  Waldemar Hujo          : DFT-NL                                        
  H. Jonsson             : NEB                                           
  Holger Kruse           : gCP                                           
  Marcel Mueller         : wB97X-3c, vDZP basis set                      
  Hagen Neugebauer       : wr2SCAN, Native XTB                           
  Gianluca Regni         : ADLD/ADEX                                     
  Tobias Risthaus        : pre 6.0 range-separated hybrid DFT and stability analysis
  Lukas Wittmann         : regularized MP2, r2SCAN double-hybrids, wr2SCAN        
                                                                         
We gratefully acknowledge several colleagues who have allowed us to      
interface, adapt or use parts of their codes:                            
  Ed Valeev, F. Pavosevic, A. Kumar             : LibInt (2-el integral package), F12 methods 
  Garnet Chan, S. Sharma, J. Yang, R. Olivares  : DMRG                   
  Ulf Ekstrom                                   : XCFun DFT Library      
  Mihaly Kallay                                 : mrcc  (arbitrary order and MRCC methods)
  Frank Weinhold                                : gennbo (NPA and NBO analysis)           
  Simon Mueller                                 : openCOSMO-RS                            
  Christopher J. Cramer and Donald G. Truhlar   : smd solvation model                     
  S Lehtola, MJT Oliveira, MAL Marques          : LibXC Library                           
  Liviu Ungur et al                             : ANISO software                          


 Your calculation uses the libint2 library for the computation of 2-el integrals
 For citations please refer to: http://libint.valeyev.net

 Your ORCA version has been built with support for libXC version: 7.0.0
 For citations please refer to: https://libxc.gitlab.io

 This ORCA versions uses:
   CBLAS   interface :  Fast vector & matrix operations
   LAPACKE interface :  Fast linear algebra routines
   SCALAPACK package :  Parallel linear algebra routines
   Shared memory     :  Shared parallel matrices
   BLAS/LAPACK       :  OpenBLAS 0.3.29  USE64BITINT DYNAMIC_ARCH NO_AFFINITY SkylakeX SINGLE_THREADED
        Core in use  :  SkylakeX
   Copyright (c) 2011-2014, The OpenBLAS Project


  ***********************************
  * Starting time: Thu Mar 12 12:47:39 2026
  * Host name:     midway3-login4.rcc.local
  * Process ID:    2799150
  * Working dir.:  /home/rzhu16/orca_TS_search/sn2_br_f/geo_opt_reactant_product
  ***********************************

Your calculation utilizes the semiempirical GFN2-xTB method
Please cite in your paper:
Bannwarth, C.; Ehlert S.; Grimme, S. J. Chem. Theory Comput. 2019, 15, 1652.
   

================================================================================

================================================================================
                                        WARNINGS
                       Please study these warnings very carefully!
================================================================================


WARNING: Analytical Hessian for XTB is limited in the analysis of the data.
       : If you want to obtain extensive IR and deltaG analysis, please use ! XTB NumFreq. 


WARNING: Geometry Optimization
  ===> : Switching off AutoStart
         For restart on a previous wavefunction, please use MOREAD

WARNING: Found dipole moment calculation with XTB calculation
  ===> : Switching off dipole moment calculation


WARNING: Found frequency calculation in combination with XTB calculation
  ===> : Need to redirect dipole moment calculation to properties.out


================================================================================
                                       INPUT FILE
================================================================================
NAME = product_optfreq.inp
|  1> ! XTB2 Opt Freq PAL8
|  2> 
|  3> * xyz -1 1
|  4>   C       0.109622     -0.066748     -0.026464
|  5>   H       0.095402      0.998127     -0.147430
|  6>   H       1.008948     -0.596583     -0.212215
|  7>   H      -0.828291     -0.573179     -0.144271
|  8>   Br      0.221389     -0.127620      2.213974
|  9>   F       0.297141     -0.172407     -2.079429
| 10> *
| 11> 
| 12>                          ****END OF INPUT****
================================================================================

                       *****************************
                       * Geometry Optimization Run *
                       *****************************

Geometry optimization settings:
Update method            Update   .... BFGS
Choice of coordinates    CoordSys .... (2022) Redundant Internals
Initial Hessian          InHess   .... Almloef's Model
Max. no of cycles        MaxIter  .... 50

Convergence Tolerances:
Energy Change            TolE     ....  5.0000e-06 Eh
Max. Gradient            TolMAXG  ....  3.0000e-04 Eh/bohr
RMS Gradient             TolRMSG  ....  1.0000e-04 Eh/bohr
Max. Displacement        TolMAXD  ....  4.0000e-03 bohr
RMS Displacement         TolRMSD  ....  2.0000e-03 bohr
Strict Convergence                .... False

------------------------------------------------------------------------------
                        ORCA OPTIMIZATION COORDINATE SETUP
------------------------------------------------------------------------------

The optimization will be done in redundant internal coordinates (2022)
Making redundant internal coordinates   ...  (2022 redundants) done
Evaluating the initial hessian          ...  (Almloef) done
Evaluating the coordinates              ...  done
Calculating the B-matrix                .... done
Calculating the G-matrix                .... done
The number of degrees of freedom        ....   18

    -----------------------------------------------------------------
                    Redundant Internal Coordinates


    -----------------------------------------------------------------
         Definition                    Initial Value    Approx d2E/dq
    -----------------------------------------------------------------
      1. B(H   1,C   0)                  1.0718         0.384974   
      2. B(H   2,C   0)                  1.0602         0.401766   
      3. B(H   3,C   0)                  1.0724         0.384158   
      4. B(Br  4,C   0)                  2.2440         0.091128   
      5. B(F   5,C   0)                  2.0642         0.043681   
      6. B(F   5,H   1)                  2.2679         0.010000   
      7. B(F   5,H   2)                  2.0428         0.010000   
      8. B(F   5,H   3)                  2.2742         0.010000   
      9. A(H   1,C   0,H   3)          116.4350         0.296936   
     10. A(H   2,C   0,H   3)          119.1198         0.298955   
     11. A(H   1,C   0,Br  4)           98.0646         0.277345   
     12. A(H   2,C   0,Br  4)           96.8412         0.279174   
     13. A(H   3,C   0,Br  4)           98.0726         0.277255   
     14. A(H   1,C   0,F   5)           86.5495         0.233956   
     15. A(H   2,C   0,F   5)           73.9254         0.235364   
     16. A(H   3,C   0,F   5)           86.9059         0.233887   
     17. A(Br  4,C   0,F   5)          170.7639         0.220236   
     18. A(H   1,C   0,H   2)          119.2089         0.299055   
    -----------------------------------------------------------------

Number of atoms                         .... 6
Number of degrees of freedom            .... 18


         *************************************************************
         *                GEOMETRY OPTIMIZATION CYCLE   1            *
         *************************************************************
---------------------------------
CARTESIAN COORDINATES (ANGSTROEM)
---------------------------------
  C     0.109622   -0.066748   -0.026464
  H     0.095402    0.998127   -0.147430
  H     1.008948   -0.596583   -0.212215
  H    -0.828291   -0.573179   -0.144271
  Br    0.221389   -0.127620    2.213974
  F     0.297141   -0.172407   -2.079429

----------------------------
CARTESIAN COORDINATES (A.U.)
----------------------------
  NO LB    ZA    FRAG    MASS        X           Y           Z
   0 C   6.0000    0    12.011    0.207156   -0.126135   -0.050010
   1 H   1.0000    0     1.008    0.180284    1.886187   -0.278602
   2 H   1.0000    0     1.008    1.906635   -1.127378   -0.401028
   3 H   1.0000    0     1.008   -1.565243   -1.083151   -0.272633
   4 Br 35.0000    0    79.900    0.418365   -0.241167    4.183805
   5 F   9.0000    0    18.998    0.561515   -0.325802   -3.929551

      -----------------------------------------------------------      
     |                   =====================                   |     
     |                           x T B                           |     
     |                   =====================                   |     
     |                         S. Grimme                         |     
     |          Mulliken Center for Theoretical Chemistry        |     
     |                    University of Bonn                     |     
      -----------------------------------------------------------      

   * xtb version 6.7.1 (edcfbbe) compiled by 'albert@albert-system' on 2024-07-22

   xtb is free software: you can redistribute it and/or modify it under
   the terms of the GNU Lesser General Public License as published by
   the Free Software Foundation, either version 3 of the License, or
   (at your option) any later version.
   
   xtb is distributed in the hope that it will be useful,
   but WITHOUT ANY WARRANTY; without even the implied warranty of
   MERCHANTABILITY or FITNESS FOR A PARTICULAR PURPOSE.  See the
   GNU Lesser General Public License for more details.
   
   Cite this work as:
   * C. Bannwarth, E. Caldeweyher, S. Ehlert, A. Hansen, P. Pracht,
     J. Seibert, S. Spicher, S. Grimme, WIREs Comput. Mol. Sci., 2020, 11,
     e01493. DOI: 10.1002/wcms.1493
   
   for GFN2-xTB:
   * C. Bannwarth, S. Ehlert and S. Grimme., J. Chem. Theory Comput., 2019,
     15, 1652-1671. DOI: 10.1021/acs.jctc.8b01176
   for GFN1-xTB:
   * S. Grimme, C. Bannwarth, P. Shushkov, J. Chem. Theory Comput., 2017,
     13, 1989-2009. DOI: 10.1021/acs.jctc.7b00118
   for GFN0-xTB:
   * P. Pracht, E. Caldeweyher, S. Ehlert, S. Grimme, ChemRxiv, 2019, preprint.
     DOI: 10.26434/chemrxiv.8326202.v1
   for GFN-FF:
   * S. Spicher and S. Grimme, Angew. Chem. Int. Ed., 2020, 59, 15665-15673.
     DOI: 10.1002/anie.202004239
   
   for ALPB and GBSA implicit solvation:
   * S. Ehlert, M. Stahn, S. Spicher, S. Grimme, J. Chem. Theory Comput.,
     2021, 17, 4250-4261. DOI: 10.1021/acs.jctc.1c00471
   
   for ddCOSMO and CPCM-X implicit solvation:
   * M. Stahn, S. Ehlert, S. Grimme, J. Phys. Chem. A,
     2023, XX, XXXX-XXXX. DOI: 10.1021/acs.jpca.3c04382
   
   for DFT-D4:
   * E. Caldeweyher, C. Bannwarth and S. Grimme, J. Chem. Phys., 2017,
     147, 034112. DOI: 10.1063/1.4993215
   * E. Caldeweyher, S. Ehlert, A. Hansen, H. Neugebauer, S. Spicher,
     C. Bannwarth and S. Grimme, J. Chem. Phys., 2019, 150, 154122.
     DOI: 10.1063/1.5090222
   * E. Caldeweyher, J.-M. Mewes, S. Ehlert and S. Grimme, Phys. Chem. Chem. Phys.
     2020, 22, 8499-8512. DOI: 10.1039/D0CP00502A
   
   for sTDA-xTB:
   * S. Grimme and C. Bannwarth, J. Chem. Phys., 2016, 145, 054103.
     DOI: 10.1063/1.4959605
   
   in the mass-spec context:
   * V. Asgeirsson, C. Bauer and S. Grimme, Chem. Sci., 2017, 8, 4879.
     DOI: 10.1039/c7sc00601b
   * J. Koopman and S. Grimme, ACS Omega 2019, 4, 12, 15120-15133.
     DOI: 10.1021/acsomega.9b02011
   
   for metadynamics refer to:
   * S. Grimme, J. Chem. Theory Comput., 2019, 155, 2847-2862
     DOI: 10.1021/acs.jctc.9b00143
   
   for SPH calculations refer to:
   * S. Spicher and S. Grimme, J. Chem. Theory Comput., 2021, 17, 1701-1714
     DOI: 10.1021/acs.jctc.0c01306
   
   for ONIOM refer to:
   * C. Plett, A. Katbashev, S. Ehlert, S. Grimme, M. Bursch,
     Phys. Chem. Chem. Phys., 2023, 25, 17860-17868. DOI: 10.1039/D3CP02178E
   
   for DIPRO refer to:
   * J. Kohn, N. Gildemeister, S. Grimme, D. Fazzi, A. Hansen,
     J. Chem. Phys., 2023, just accepted.
   
   for PTB refer to:
   * S. Grimme, M. Mueller, A. Hansen, J. Chem. Phys., 2023, 158, 124111.
     DOI: 10.1063/5.0137838
   
   with help from (in alphabetical order)
   P. Atkinson, C. Bannwarth, F. Bohle, G. Brandenburg, E. Caldeweyher
   M. Checinski, S. Dohm, S. Ehlert, S. Ehrlich, I. Gerasimov, C. Hölzer
   A. Katbashev, J. Kohn, J. Koopman, C. Lavigne, S. Lehtola, F. März, M. Müller,
   F. Musil, H. Neugebauer, J. Pisarek, C. Plett, P. Pracht, F. Pultar,
   J. Seibert, P. Shushkov, S. Spicher, M. Stahn, M. Steiner, T. Strunk,
   J. Stückrath, T. Rose, and J. Unsleber
   
 * started run on 2026/03/12 at 12:47:40.073     
   ID    Z sym.   atoms
    1    6 C      1
    2    1 H      2-4
    3   35 Br     5
    4    9 F      6

           -------------------------------------------------
          |                Calculation Setup                |
           -------------------------------------------------

          program call               : /software/orca-6.1.0-el8-x86_64/bin/otool_xtb product_optfreq_XTB.xyz --grad -c -1 -u 0 -P 8 --namespace product_optfreq --input product_optfreq_XTB.input.tmp --acc 0.200000
          hostname                   : midway3-login4.rcc.local
          calculation namespace      : product_optfreq
          coordinate file            : product_optfreq_XTB.xyz
          omp threads                :                     8


molecular fragmentation (1/2 indicates fragments):
111112
# atoms in fragment 1/2:     5     1
 fragment masses (1/2) :       94.94       19.00
CMA distance (Bohr)    :   7.437
constraining FC (au)   :  0.0500

           -------------------------------------------------
          |                 G F N 2 - x T B                 |
           -------------------------------------------------

        Reference                      10.1021/acs.jctc.8b01176
      * Hamiltonian:
        H0-scaling (s, p, d)           1.850000    2.230000    2.230000
        zeta-weighting                 0.500000
      * Dispersion:
        s8                             2.700000
        a1                             0.520000
        a2                             5.000000
        s9                             5.000000
      * Repulsion:
        kExp                           1.500000    1.000000
        rExp                           1.000000
      * Coulomb:
        alpha                          2.000000
        third order                    shell-resolved
        anisotropic                    true
        a3                             3.000000
        a5                             4.000000
        cn-shift                       1.200000
        cn-exp                         4.000000
        max-rad                        5.000000


          ...................................................
          :                      SETUP                      :
          :.................................................:
          :  # basis functions                  21          :
          :  # atomic orbitals                  20          :
          :  # shells                           10          :
          :  # electrons                        22          :
          :  max. iterations                   250          :
          :  Hamiltonian                  GFN2-xTB          :
          :  restarted?                      false          :
          :  GBSA solvation                  false          :
          :  PC potential                    false          :
          :  electronic temp.          300.0000000     K    :
          :  accuracy                    0.2000000          :
          :  -> integral cutoff          0.3198970E+02      :
          :  -> integral neglect         0.2000000E-08      :
          :  -> SCF convergence          0.2000000E-06 Eh   :
          :  -> wf. convergence          0.2000000E-04 e    :
          :  Broyden damping             0.4000000          :
          :  net charge                         -1          :
          :  unpaired electrons                  0          :
          ...................................................

 iter      E             dE          RMSdq      gap      omega  full diag
   1    -12.7083222 -0.127083E+02  0.638E+00    4.49       0.0  T
   2    -12.7469718 -0.386496E-01  0.383E+00    2.58       1.0  T
   3    -12.7522902 -0.531840E-02  0.195E+00    3.09       1.0  T
   4    -12.7563159 -0.402573E-02  0.912E-01    2.81       1.0  T
   5    -12.7564914 -0.175421E-03  0.496E-01    3.03       1.0  T
   6    -12.7564561  0.352848E-04  0.507E-01    2.69       1.0  T
   7    -12.7565024 -0.463643E-04  0.337E-01    2.67       1.0  T
   8    -12.7571033 -0.600823E-03  0.224E-02    2.85       1.8  T
   9    -12.7571025  0.777202E-06  0.175E-02    2.85       2.3  T
  10    -12.7571042 -0.170836E-05  0.184E-03    2.84      22.2  T
  11    -12.7571042 -0.895680E-08  0.852E-04    2.84      47.9  T
  12    -12.7571042 -0.805295E-09  0.413E-04    2.84      98.8  T
  13    -12.7571042 -0.737238E-09  0.902E-05    2.84     452.8  T
  14    -12.7571042 -0.444444E-11  0.478E-05    2.84     854.4  T

   *** convergence criteria satisfied after 14 iterations ***

         #    Occupation            Energy/Eh            Energy/eV
      -------------------------------------------------------------
         1        2.0000           -0.6515406             -17.7293
       ...           ...                  ...                  ...
         5        2.0000           -0.3297274              -8.9723
         6        2.0000           -0.2731101              -7.4317
         7        2.0000           -0.2221935              -6.0462
         8        2.0000           -0.2220587              -6.0425
         9        2.0000           -0.1789733              -4.8701
        10        2.0000           -0.1755951              -4.7782
        11        2.0000           -0.1750218              -4.7626 (HOMO)
        12                         -0.0706464              -1.9224 (LUMO)
        13                          0.2439321               6.6377
        14                          0.2444008               6.6505
        15                          0.2501892               6.8080
        16                          0.2501928               6.8081
       ...                                ...                  ...
        20                          0.4603118              12.5257
      -------------------------------------------------------------
                  HL-Gap            0.1043754 Eh            2.8402 eV
             Fermi-level           -0.1228341 Eh           -3.3425 eV

 SCC (total)                   0 d,  0 h,  0 min,  0.073 sec
 SCC setup                      ...        0 min,  0.000 sec (  0.234%)
 Dispersion                     ...        0 min,  0.000 sec (  0.073%)
 classical contributions        ...        0 min,  0.000 sec (  0.047%)
 integral evaluation            ...        0 min,  0.070 sec ( 96.269%)
 iterations                     ...        0 min,  0.002 sec (  2.422%)
 molecular gradient             ...        0 min,  0.001 sec (  0.764%)
 printout                       ...        0 min,  0.000 sec (  0.169%)

         :::::::::::::::::::::::::::::::::::::::::::::::::::::
         ::                     SUMMARY                     ::
         :::::::::::::::::::::::::::::::::::::::::::::::::::::
         :: total energy             -12.696862840974 Eh    ::
         :: gradient norm              0.016475055844 Eh/a0 ::
         :: HOMO-LUMO gap              2.840199364625 eV    ::
         ::.................................................::
         :: SCC energy               -12.757104335626 Eh    ::
         :: -> isotropic ES            0.190051592470 Eh    ::
         :: -> anisotropic ES         -0.004174429734 Eh    ::
         :: -> anisotropic XC         -0.002151546880 Eh    ::
         :: -> dispersion             -0.002215572689 Eh    ::
         :: repulsion energy           0.060241494652 Eh    ::
         :: add. restraining           0.000000000000 Eh    ::
         :: total charge              -1.000000000000 e     ::
         :::::::::::::::::::::::::::::::::::::::::::::::::::::


Property printout bound to 'properties.out'

           -------------------------------------------------
          | TOTAL ENERGY              -12.696862840974 Eh   |
          | GRADIENT NORM               0.016475055844 Eh/α |
          | HOMO-LUMO GAP               2.840199364625 eV   |
           -------------------------------------------------

------------------------------------------------------------------------
 * finished run on 2026/03/12 at 12:47:40.164     
------------------------------------------------------------------------
 total:
 * wall-time:     0 d,  0 h,  0 min,  0.090 sec
 *  cpu-time:     0 d,  0 h,  0 min,  0.482 sec
 * ratio c/w:     5.340 speedup
 SCF:
 * wall-time:     0 d,  0 h,  0 min,  0.073 sec
 *  cpu-time:     0 d,  0 h,  0 min,  0.415 sec
 * ratio c/w:     5.704 speedup


-------------------------   --------------------
FINAL SINGLE POINT ENERGY       -12.696862840970
-------------------------   --------------------


-------------
DIPOLE MOMENT
-------------
                                X             Y             Z
Total Dipole Moment    :     -0.56800       0.32700      -0.34200
                        -----------------------------------------
Magnitude (a.u.)       :      0.73927
Magnitude (Debye)      :      1.87907


------------------
CARTESIAN GRADIENT
------------------

   1   C   :    0.001438717   -0.000620599    0.010869912
   2   H   :   -0.001785123    0.000571642    0.001247125
   3   H   :   -0.004773641    0.002754323   -0.003152690
   4   H   :   -0.001616267    0.001087154    0.001341223
   5   Br  :    0.001567192   -0.000887022   -0.003111323
   6   F   :    0.005169123   -0.002905498   -0.007194246

Difference to translation invariance:
           :   -0.0000000000   -0.0000000000   -0.0000000000

Difference to rotation invariance:
           :    0.0000000053    0.0000000094    0.0000000000

Norm of the Cartesian gradient     ...    0.0164750558
RMS gradient                       ...    0.0038832079
MAX gradient                       ...    0.0108699123
------------------------------------------------------------------------------
                         ORCA GEOMETRY RELAXATION STEP
------------------------------------------------------------------------------

Reading the OPT-File                    .... done
Getting information on internals        .... done
Copying old internal coords+grads       .... done
Making the new internal coordinates     .... (2022 redundants) done
Validating the new internal coordinates .... (2022 redundants) done
Calculating the B-matrix                .... done
Calculating the G,G- and P matrices     .... done
Transforming gradient to internals      .... done
Projecting the internal gradient        .... done
Number of atoms                         ....   6
Number of internal coordinates          ....  18
Current Energy                          ....   -12.696862841 Eh
Current gradient norm                   ....     0.016475056 Eh/bohr
Maximum allowed component of the step   ....  0.300
Current trust radius                    ....  0.300
Evaluating the initial hessian          ....  (Almloef) done
Projecting the Hessian                  .... done
Forming the augmented Hessian           .... done
Diagonalizing the augmented Hessian     .... done
Last element of RFO vector              ....  0.978226140
Lowest eigenvalues of augmented Hessian:
 -0.001681033  0.020435624  0.060040507  0.072087981  0.091228672
Length of the computed step             ....  0.212161423
The final length of the internal step   ....  0.212161423
Converting the step to Cartesian space:
 Initial RMS(Int)=    0.0500069271
Transforming coordinates:
 Iter   0:  RMS(Cart)=    0.0307541399 RMS(Int)=    0.0497315473
done
Storing new coordinates                 .... done

                                .--------------------.
          ----------------------|Geometry convergence|-------------------------
          Item                value                   Tolerance       Converged
          ---------------------------------------------------------------------
          RMS gradient        0.0027366705            0.0001000000      NO
          MAX gradient        0.0046902062            0.0003000000      NO
          RMS step            0.0500069271            0.0020000000      NO
          MAX step            0.1193415840            0.0040000000      NO
          -------------------------------------------------------------------------
          ........................................................
          Max(Bonds)      0.0632      Max(Angles)    1.99
          Max(Dihed)        0.00      Max(Improp)    0.00
          ---------------------------------------------------------------------

The optimization has not yet converged - more geometry cycles are needed


    ---------------------------------------------------------------------------
                         Redundant Internal Coordinates
                            (Angstroem and degrees)

        Definition                    Value    dE/dq     Step     New-Value
    ----------------------------------------------------------------------------
     1. B(H   1,C   0)                1.0718 -0.000904  0.0002    1.0720   
     2. B(H   2,C   0)                1.0602 -0.004103  0.0065    1.0667   
     3. B(H   3,C   0)                1.0724 -0.000691 -0.0002    1.0722   
     4. B(Br  4,C   0)                2.2440 -0.003004  0.0171    2.2612   
     5. B(F   5,C   0)                2.0642  0.004690 -0.0591    2.0051   
     6. B(F   5,H   1)                2.2679  0.003243 -0.0620    2.2059   
     7. B(F   5,H   2)                2.0428 -0.003219 -0.0140    2.0288   
     8. B(F   5,H   3)                2.2742  0.003416 -0.0632    2.2111   
     9. A(H   1,C   0,H   3)          116.43 -0.002585    0.53    116.96   
    10. A(H   2,C   0,H   3)          119.12  0.000299   -0.05    119.07   
    11. A(H   1,C   0,Br  4)           98.06  0.002671   -0.38     97.68   
    12. A(H   2,C   0,Br  4)           96.84 -0.001183   -0.14     96.70   
    13. A(H   3,C   0,Br  4)           98.07  0.002725   -0.38     97.69   
    14. A(H   1,C   0,F   5)           86.55 -0.000279   -0.59     85.96   
    15. A(H   2,C   0,F   5)           73.93 -0.003240    1.99     75.91   
    16. A(H   3,C   0,F   5)           86.91 -0.000234   -0.64     86.26   
    17. A(Br  4,C   0,F   5)          170.76 -0.004423    1.85    172.61   
    18. A(H   1,C   0,H   2)          119.21  0.000425   -0.07    119.14   
    ----------------------------------------------------------------------------

Geometry step timings:
Preparation and reading OPT file:      0.000 s ( 2.727 %)
Internal coordinates            :      0.000 s ( 3.021 %)
B/P matrices and projection     :      0.000 s (12.012 %)
Hessian update/contruction      :      0.001 s (37.362 %)
Making the step                 :      0.000 s (10.096 %)
Converting the step to Cartesian:      0.000 s ( 3.390 %)
Storing new data                :      0.000 s ( 5.895 %)
Checking convergence            :      0.000 s ( 5.601 %)
Final printing                  :      0.000 s (19.602 %)
Total time                      :      0.001 s

Time for energy+gradient        :      0.100 s
Time for complete geometry iter :      0.102 s

         *************************************************************
         *                GEOMETRY OPTIMIZATION CYCLE   2            *
         *************************************************************
---------------------------------
CARTESIAN COORDINATES (ANGSTROEM)
---------------------------------
  C     0.117607   -0.071328   -0.041158
  H     0.108491    0.993750   -0.162092
  H     1.024850   -0.605601   -0.212194
  H    -0.817720   -0.581910   -0.159340
  Br    0.205217   -0.118518    2.217831
  F     0.265767   -0.154804   -2.038882

----------------------------
CARTESIAN COORDINATES (A.U.)
----------------------------
  NO LB    ZA    FRAG    MASS        X           Y           Z
   0 C   6.0000    0    12.011    0.222245   -0.134790   -0.077777
   1 H   1.0000    0     1.008    0.205019    1.877915   -0.306310
   2 H   1.0000    0     1.008    1.936686   -1.144420   -0.400988
   3 H   1.0000    0     1.008   -1.545268   -1.099650   -0.301109
   4 Br 35.0000    0    79.900    0.387804   -0.223966    4.191093
   5 F   9.0000    0    18.998    0.502226   -0.292537   -3.852929

      -----------------------------------------------------------      
     |                   =====================                   |     
     |                           x T B                           |     
     |                   =====================                   |     
     |                         S. Grimme                         |     
     |          Mulliken Center for Theoretical Chemistry        |     
     |                    University of Bonn                     |     
      -----------------------------------------------------------      

   * xtb version 6.7.1 (edcfbbe) compiled by 'albert@albert-system' on 2024-07-22

   xtb is free software: you can redistribute it and/or modify it under
   the terms of the GNU Lesser General Public License as published by
   the Free Software Foundation, either version 3 of the License, or
   (at your option) any later version.
   
   xtb is distributed in the hope that it will be useful,
   but WITHOUT ANY WARRANTY; without even the implied warranty of
   MERCHANTABILITY or FITNESS FOR A PARTICULAR PURPOSE.  See the
   GNU Lesser General Public License for more details.
   
   Cite this work as:
   * C. Bannwarth, E. Caldeweyher, S. Ehlert, A. Hansen, P. Pracht,
     J. Seibert, S. Spicher, S. Grimme, WIREs Comput. Mol. Sci., 2020, 11,
     e01493. DOI: 10.1002/wcms.1493
   
   for GFN2-xTB:
   * C. Bannwarth, S. Ehlert and S. Grimme., J. Chem. Theory Comput., 2019,
     15, 1652-1671. DOI: 10.1021/acs.jctc.8b01176
   for GFN1-xTB:
   * S. Grimme, C. Bannwarth, P. Shushkov, J. Chem. Theory Comput., 2017,
     13, 1989-2009. DOI: 10.1021/acs.jctc.7b00118
   for GFN0-xTB:
   * P. Pracht, E. Caldeweyher, S. Ehlert, S. Grimme, ChemRxiv, 2019, preprint.
     DOI: 10.26434/chemrxiv.8326202.v1
   for GFN-FF:
   * S. Spicher and S. Grimme, Angew. Chem. Int. Ed., 2020, 59, 15665-15673.
     DOI: 10.1002/anie.202004239
   
   for ALPB and GBSA implicit solvation:
   * S. Ehlert, M. Stahn, S. Spicher, S. Grimme, J. Chem. Theory Comput.,
     2021, 17, 4250-4261. DOI: 10.1021/acs.jctc.1c00471
   
   for ddCOSMO and CPCM-X implicit solvation:
   * M. Stahn, S. Ehlert, S. Grimme, J. Phys. Chem. A,
     2023, XX, XXXX-XXXX. DOI: 10.1021/acs.jpca.3c04382
   
   for DFT-D4:
   * E. Caldeweyher, C. Bannwarth and S. Grimme, J. Chem. Phys., 2017,
     147, 034112. DOI: 10.1063/1.4993215
   * E. Caldeweyher, S. Ehlert, A. Hansen, H. Neugebauer, S. Spicher,
     C. Bannwarth and S. Grimme, J. Chem. Phys., 2019, 150, 154122.
     DOI: 10.1063/1.5090222
   * E. Caldeweyher, J.-M. Mewes, S. Ehlert and S. Grimme, Phys. Chem. Chem. Phys.
     2020, 22, 8499-8512. DOI: 10.1039/D0CP00502A
   
   for sTDA-xTB:
   * S. Grimme and C. Bannwarth, J. Chem. Phys., 2016, 145, 054103.
     DOI: 10.1063/1.4959605
   
   in the mass-spec context:
   * V. Asgeirsson, C. Bauer and S. Grimme, Chem. Sci., 2017, 8, 4879.
     DOI: 10.1039/c7sc00601b
   * J. Koopman and S. Grimme, ACS Omega 2019, 4, 12, 15120-15133.
     DOI: 10.1021/acsomega.9b02011
   
   for metadynamics refer to:
   * S. Grimme, J. Chem. Theory Comput., 2019, 155, 2847-2862
     DOI: 10.1021/acs.jctc.9b00143
   
   for SPH calculations refer to:
   * S. Spicher and S. Grimme, J. Chem. Theory Comput., 2021, 17, 1701-1714
     DOI: 10.1021/acs.jctc.0c01306
   
   for ONIOM refer to:
   * C. Plett, A. Katbashev, S. Ehlert, S. Grimme, M. Bursch,
     Phys. Chem. Chem. Phys., 2023, 25, 17860-17868. DOI: 10.1039/D3CP02178E
   
   for DIPRO refer to:
   * J. Kohn, N. Gildemeister, S. Grimme, D. Fazzi, A. Hansen,
     J. Chem. Phys., 2023, just accepted.
   
   for PTB refer to:
   * S. Grimme, M. Mueller, A. Hansen, J. Chem. Phys., 2023, 158, 124111.
     DOI: 10.1063/5.0137838
   
   with help from (in alphabetical order)
   P. Atkinson, C. Bannwarth, F. Bohle, G. Brandenburg, E. Caldeweyher
   M. Checinski, S. Dohm, S. Ehlert, S. Ehrlich, I. Gerasimov, C. Hölzer
   A. Katbashev, J. Kohn, J. Koopman, C. Lavigne, S. Lehtola, F. März, M. Müller,
   F. Musil, H. Neugebauer, J. Pisarek, C. Plett, P. Pracht, F. Pultar,
   J. Seibert, P. Shushkov, S. Spicher, M. Stahn, M. Steiner, T. Strunk,
   J. Stückrath, T. Rose, and J. Unsleber
   
 * started run on 2026/03/12 at 12:47:40.177     
   ID    Z sym.   atoms
    1    6 C      1
    2    1 H      2-4
    3   35 Br     5
    4    9 F      6

           -------------------------------------------------
          |                Calculation Setup                |
           -------------------------------------------------

          program call               : /software/orca-6.1.0-el8-x86_64/bin/otool_xtb product_optfreq_XTB.xyz --grad -c -1 -u 0 -P 8 --namespace product_optfreq --input product_optfreq_XTB.input.tmp --acc 0.200000
          hostname                   : midway3-login4.rcc.local
          calculation namespace      : product_optfreq
          coordinate file            : product_optfreq_XTB.xyz
          omp threads                :                     8


molecular fragmentation (1/2 indicates fragments):
111112
# atoms in fragment 1/2:     5     1
 fragment masses (1/2) :       94.94       19.00
CMA distance (Bohr)    :   7.362
constraining FC (au)   :  0.0500

           -------------------------------------------------
          |                 G F N 2 - x T B                 |
           -------------------------------------------------

        Reference                      10.1021/acs.jctc.8b01176
      * Hamiltonian:
        H0-scaling (s, p, d)           1.850000    2.230000    2.230000
        zeta-weighting                 0.500000
      * Dispersion:
        s8                             2.700000
        a1                             0.520000
        a2                             5.000000
        s9                             5.000000
      * Repulsion:
        kExp                           1.500000    1.000000
        rExp                           1.000000
      * Coulomb:
        alpha                          2.000000
        third order                    shell-resolved
        anisotropic                    true
        a3                             3.000000
        a5                             4.000000
        cn-shift                       1.200000
        cn-exp                         4.000000
        max-rad                        5.000000

q/qsh data taken from xtbrestart
CAMM data taken from xtbrestart

          ...................................................
          :                      SETUP                      :
          :.................................................:
          :  # basis functions                  21          :
          :  # atomic orbitals                  20          :
          :  # shells                           10          :
          :  # electrons                        22          :
          :  max. iterations                   250          :
          :  Hamiltonian                  GFN2-xTB          :
          :  restarted?                       true          :
          :  GBSA solvation                  false          :
          :  PC potential                    false          :
          :  electronic temp.          300.0000000     K    :
          :  accuracy                    0.2000000          :
          :  -> integral cutoff          0.3198970E+02      :
          :  -> integral neglect         0.2000000E-08      :
          :  -> SCF convergence          0.2000000E-06 Eh   :
          :  -> wf. convergence          0.2000000E-04 e    :
          :  Broyden damping             0.4000000          :
          :  net charge                         -1          :
          :  unpaired electrons                  0          :
          ...................................................

 iter      E             dE          RMSdq      gap      omega  full diag
   1    -12.7567865 -0.127568E+02  0.476E-01    3.00       0.0  T
   2    -12.7575514 -0.764962E-03  0.145E-01    3.23       1.0  T
   3    -12.7575791 -0.277177E-04  0.678E-02    3.19       1.0  T
   4    -12.7575782  0.975375E-06  0.413E-02    3.20       1.0  T
   5    -12.7575808 -0.266254E-05  0.179E-02    3.19       2.3  T
   6    -12.7575810 -0.221389E-06  0.837E-03    3.19       4.9  T
   7    -12.7575811 -0.467029E-07  0.409E-03    3.19      10.0  T
   8    -12.7575811 -0.572732E-07  0.684E-04    3.19      59.7  T
   9    -12.7575812 -0.385860E-09  0.133E-04    3.19     308.0  T
  10    -12.7575812 -0.371969E-11  0.906E-05    3.19     450.4  T

   *** convergence criteria satisfied after 10 iterations ***

         #    Occupation            Energy/Eh            Energy/eV
      -------------------------------------------------------------
         1        2.0000           -0.6462132             -17.5844
       ...           ...                  ...                  ...
         5        2.0000           -0.3286141              -8.9420
         6        2.0000           -0.2700660              -7.3489
         7        2.0000           -0.2173899              -5.9155
         8        2.0000           -0.2172579              -5.9119
         9        2.0000           -0.1858521              -5.0573
        10        2.0000           -0.1839996              -5.0069
        11        2.0000           -0.1831147              -4.9828 (HOMO)
        12                         -0.0658482              -1.7918 (LUMO)
        13                          0.2503879               6.8134
        14                          0.2507130               6.8222
        15                          0.2560165               6.9666
        16                          0.2560428               6.9673
       ...                                ...                  ...
        20                          0.4509264              12.2703
      -------------------------------------------------------------
                  HL-Gap            0.1172665 Eh            3.1910 eV
             Fermi-level           -0.1244815 Eh           -3.3873 eV

 SCC (total)                   0 d,  0 h,  0 min,  0.078 sec
 SCC setup                      ...        0 min,  0.000 sec (  0.255%)
 Dispersion                     ...        0 min,  0.000 sec (  0.060%)
 classical contributions        ...        0 min,  0.000 sec (  0.033%)
 integral evaluation            ...        0 min,  0.076 sec ( 97.370%)
 iterations                     ...        0 min,  0.001 sec (  1.632%)
 molecular gradient             ...        0 min,  0.000 sec (  0.487%)
 printout                       ...        0 min,  0.000 sec (  0.145%)

         :::::::::::::::::::::::::::::::::::::::::::::::::::::
         ::                     SUMMARY                     ::
         :::::::::::::::::::::::::::::::::::::::::::::::::::::
         :: total energy             -12.698397526343 Eh    ::
         :: gradient norm              0.018843461269 Eh/a0 ::
         :: HOMO-LUMO gap              3.190985108754 eV    ::
         ::.................................................::
         :: SCC energy               -12.757581264951 Eh    ::
         :: -> isotropic ES            0.186733642141 Eh    ::
         :: -> anisotropic ES         -0.004137198849 Eh    ::
         :: -> anisotropic XC         -0.001889835808 Eh    ::
         :: -> dispersion             -0.002216833527 Eh    ::
         :: repulsion energy           0.059183738608 Eh    ::
         :: add. restraining           0.000000000000 Eh    ::
         :: total charge              -1.000000000000 e     ::
         :::::::::::::::::::::::::::::::::::::::::::::::::::::


Property printout bound to 'properties.out'

           -------------------------------------------------
          | TOTAL ENERGY              -12.698397526343 Eh   |
          | GRADIENT NORM               0.018843461269 Eh/α |
          | HOMO-LUMO GAP               3.190985108754 eV   |
           -------------------------------------------------

------------------------------------------------------------------------
 * finished run on 2026/03/12 at 12:47:40.273     
------------------------------------------------------------------------
 total:
 * wall-time:     0 d,  0 h,  0 min,  0.096 sec
 *  cpu-time:     0 d,  0 h,  0 min,  0.425 sec
 * ratio c/w:     4.412 speedup
 SCF:
 * wall-time:     0 d,  0 h,  0 min,  0.078 sec
 *  cpu-time:     0 d,  0 h,  0 min,  0.358 sec
 * ratio c/w:     4.600 speedup


-------------------------   --------------------
FINAL SINGLE POINT ENERGY       -12.698397526340
-------------------------   --------------------


-------------
DIPOLE MOMENT
-------------
                                X             Y             Z
Total Dipole Moment    :     -0.50500       0.29100      -0.54400
                        -----------------------------------------
Magnitude (a.u.)       :      0.79727
Magnitude (Debye)      :      2.02650


------------------
CARTESIAN GRADIENT
------------------

   1   C   :   -0.001654521    0.000964533    0.015511956
   2   H   :   -0.001475341    0.000845675   -0.000649834
   3   H   :   -0.001358136    0.000749505   -0.005883451
   4   H   :   -0.001506012    0.000800504   -0.000516540
   5   Br  :    0.001296152   -0.000729815   -0.003862905
   6   F   :    0.004697857   -0.002630402   -0.004599227

Difference to translation invariance:
           :   -0.0000000000   -0.0000000000    0.0000000000

Difference to rotation invariance:
           :    0.0000001831    0.0000003284   -0.0000000002

Norm of the Cartesian gradient     ...    0.0188434613
RMS gradient                       ...    0.0044414464
MAX gradient                       ...    0.0155119562
------------------------------------------------------------------------------
                         ORCA GEOMETRY RELAXATION STEP
------------------------------------------------------------------------------

Reading the OPT-File                    .... done
Getting information on internals        .... done
Copying old internal coords+grads       .... done
Making the new internal coordinates     .... (2022 redundants) done
Validating the new internal coordinates .... (2022 redundants) done
Calculating the B-matrix                .... done
Calculating the G,G- and P matrices     .... done
Transforming gradient to internals      .... done
Projecting the internal gradient        .... done
Number of atoms                         ....   6
Number of internal coordinates          ....  18
Current Energy                          ....   -12.698397526 Eh
Current gradient norm                   ....     0.018843461 Eh/bohr
Maximum allowed component of the step   ....  0.300
Current trust radius                    ....  0.300
Updating the Hessian (BFGS)             .... done
Forming the augmented Hessian           .... done
Diagonalizing the augmented Hessian     .... done
Last element of RFO vector              ....  0.830990428
Lowest eigenvalues of augmented Hessian:
 -0.005470745  0.009803618  0.048350065  0.060042672  0.090807734
Length of the computed step             ....  0.669426140
Warning: the length of the step is outside the trust region - taking restricted step instead
The input lambda is                     ....     0.004218
   iter:   5  x=   -0.002205  g=  791.509221 f(x)=     1.907310
   iter:  10  x=   -0.019320  g=    8.008543 f(x)=     0.009172
The output lambda is                    ....    -0.019409 (14 iterations)
The final length of the internal step   ....  0.300000000
Converting the step to Cartesian space:
 Initial RMS(Int)=    0.0707106781
Transforming coordinates:
 Iter   0:  RMS(Cart)=    0.0525612700 RMS(Int)=    0.0699851253
done
Storing new coordinates                 .... done
The predicted energy change is          ....    -0.002222049
Previously predicted energy change      ....    -0.000878350
Actually observed energy change         ....    -0.001534685
Ratio of predicted to observed change   ....     1.747236101
New trust radius                        ....     0.200000000

                                .--------------------.
          ----------------------|Geometry convergence|-------------------------
          Item                value                   Tolerance       Converged
          ---------------------------------------------------------------------
          Energy change      -0.0015346854            0.0000050000      NO
          RMS gradient        0.0026576847            0.0001000000      NO
          MAX gradient        0.0047198085            0.0003000000      NO
          RMS step            0.0707106781            0.0020000000      NO
          MAX step            0.1506552310            0.0040000000      NO
          -------------------------------------------------------------------------
          ........................................................
          Max(Bonds)      0.0797      Max(Angles)    4.92
          Max(Dihed)        0.00      Max(Improp)    0.00
          ---------------------------------------------------------------------

The optimization has not yet converged - more geometry cycles are needed


    ---------------------------------------------------------------------------
                         Redundant Internal Coordinates
                            (Angstroem and degrees)

        Definition                    Value    dE/dq     Step     New-Value
    ----------------------------------------------------------------------------
     1. B(H   1,C   0)                1.0720  0.000058 -0.0001    1.0718   
     2. B(H   2,C   0)                1.0667  0.000546  0.0070    1.0737   
     3. B(H   3,C   0)                1.0721  0.000046 -0.0006    1.0715   
     4. B(Br  4,C   0)                2.2612 -0.003794  0.0454    2.3066   
     5. B(F   5,C   0)                2.0049  0.004720 -0.0775    1.9274   
     6. B(F   5,H   1)                2.2060  0.002058 -0.0773    2.1287   
     7. B(F   5,H   2)                2.0288 -0.003975  0.0232    2.0521   
     8. B(F   5,H   3)                2.2111  0.002215 -0.0797    2.1314   
     9. A(H   1,C   0,H   3)          116.96 -0.002734    1.51    118.46   
    10. A(H   2,C   0,H   3)          119.06 -0.000146    0.17    119.23   
    11. A(H   1,C   0,Br  4)           97.69  0.003239   -1.57     96.11   
    12. A(H   2,C   0,Br  4)           96.71  0.000248   -0.87     95.84   
    13. A(H   3,C   0,Br  4)           97.70  0.003293   -1.57     96.13   
    14. A(H   1,C   0,F   5)           85.96 -0.001140   -0.54     85.42   
    15. A(H   2,C   0,F   5)           75.91 -0.004239    4.92     80.83   
    16. A(H   3,C   0,F   5)           86.26 -0.001055   -0.67     85.59   
    17. A(Br  4,C   0,F   5)          172.61 -0.003993    4.05    176.66   
    18. A(H   1,C   0,H   2)          119.13 -0.000036    0.11    119.24   
    ----------------------------------------------------------------------------

Geometry step timings:
Preparation and reading OPT file:      0.000 s ( 2.428 %)
Internal coordinates            :      0.000 s ( 3.111 %)
B/P matrices and projection     :      0.000 s (11.153 %)
Hessian update/contruction      :      0.000 s (30.577 %)
Making the step                 :      0.000 s (13.581 %)
Converting the step to Cartesian:      0.000 s ( 3.035 %)
Storing new data                :      0.000 s ( 7.056 %)
Checking convergence            :      0.000 s ( 7.511 %)
Final printing                  :      0.000 s (21.548 %)
Total time                      :      0.001 s

Time for energy+gradient        :      0.106 s
Time for complete geometry iter :      0.109 s

         *************************************************************
         *                GEOMETRY OPTIMIZATION CYCLE   3            *
         *************************************************************
---------------------------------
CARTESIAN COORDINATES (ANGSTROEM)
---------------------------------
  C     0.135101   -0.081294   -0.072994
  H     0.137418    0.985071   -0.179671
  H     1.054027   -0.621936   -0.200211
  H    -0.795512   -0.601777   -0.177784
  Br    0.170296   -0.098886    2.233275
  F     0.202882   -0.119589   -1.998450

----------------------------
CARTESIAN COORDINATES (A.U.)
----------------------------
  NO LB    ZA    FRAG    MASS        X           Y           Z
   0 C   6.0000    0    12.011    0.255304   -0.153623   -0.137938
   1 H   1.0000    0     1.008    0.259682    1.861514   -0.339529
   2 H   1.0000    0     1.008    1.991822   -1.175288   -0.378344
   3 H   1.0000    0     1.008   -1.503301   -1.137193   -0.335964
   4 Br 35.0000    0    79.900    0.321812   -0.186868    4.220278
   5 F   9.0000    0    18.998    0.383391   -0.225990   -3.776523

      -----------------------------------------------------------      
     |                   =====================                   |     
     |                           x T B                           |     
     |                   =====================                   |     
     |                         S. Grimme                         |     
     |          Mulliken Center for Theoretical Chemistry        |     
     |                    University of Bonn                     |     
      -----------------------------------------------------------      

   * xtb version 6.7.1 (edcfbbe) compiled by 'albert@albert-system' on 2024-07-22

   xtb is free software: you can redistribute it and/or modify it under
   the terms of the GNU Lesser General Public License as published by
   the Free Software Foundation, either version 3 of the License, or
   (at your option) any later version.
   
   xtb is distributed in the hope that it will be useful,
   but WITHOUT ANY WARRANTY; without even the implied warranty of
   MERCHANTABILITY or FITNESS FOR A PARTICULAR PURPOSE.  See the
   GNU Lesser General Public License for more details.
   
   Cite this work as:
   * C. Bannwarth, E. Caldeweyher, S. Ehlert, A. Hansen, P. Pracht,
     J. Seibert, S. Spicher, S. Grimme, WIREs Comput. Mol. Sci., 2020, 11,
     e01493. DOI: 10.1002/wcms.1493
   
   for GFN2-xTB:
   * C. Bannwarth, S. Ehlert and S. Grimme., J. Chem. Theory Comput., 2019,
     15, 1652-1671. DOI: 10.1021/acs.jctc.8b01176
   for GFN1-xTB:
   * S. Grimme, C. Bannwarth, P. Shushkov, J. Chem. Theory Comput., 2017,
     13, 1989-2009. DOI: 10.1021/acs.jctc.7b00118
   for GFN0-xTB:
   * P. Pracht, E. Caldeweyher, S. Ehlert, S. Grimme, ChemRxiv, 2019, preprint.
     DOI: 10.26434/chemrxiv.8326202.v1
   for GFN-FF:
   * S. Spicher and S. Grimme, Angew. Chem. Int. Ed., 2020, 59, 15665-15673.
     DOI: 10.1002/anie.202004239
   
   for ALPB and GBSA implicit solvation:
   * S. Ehlert, M. Stahn, S. Spicher, S. Grimme, J. Chem. Theory Comput.,
     2021, 17, 4250-4261. DOI: 10.1021/acs.jctc.1c00471
   
   for ddCOSMO and CPCM-X implicit solvation:
   * M. Stahn, S. Ehlert, S. Grimme, J. Phys. Chem. A,
     2023, XX, XXXX-XXXX. DOI: 10.1021/acs.jpca.3c04382
   
   for DFT-D4:
   * E. Caldeweyher, C. Bannwarth and S. Grimme, J. Chem. Phys., 2017,
     147, 034112. DOI: 10.1063/1.4993215
   * E. Caldeweyher, S. Ehlert, A. Hansen, H. Neugebauer, S. Spicher,
     C. Bannwarth and S. Grimme, J. Chem. Phys., 2019, 150, 154122.
     DOI: 10.1063/1.5090222
   * E. Caldeweyher, J.-M. Mewes, S. Ehlert and S. Grimme, Phys. Chem. Chem. Phys.
     2020, 22, 8499-8512. DOI: 10.1039/D0CP00502A
   
   for sTDA-xTB:
   * S. Grimme and C. Bannwarth, J. Chem. Phys., 2016, 145, 054103.
     DOI: 10.1063/1.4959605
   
   in the mass-spec context:
   * V. Asgeirsson, C. Bauer and S. Grimme, Chem. Sci., 2017, 8, 4879.
     DOI: 10.1039/c7sc00601b
   * J. Koopman and S. Grimme, ACS Omega 2019, 4, 12, 15120-15133.
     DOI: 10.1021/acsomega.9b02011
   
   for metadynamics refer to:
   * S. Grimme, J. Chem. Theory Comput., 2019, 155, 2847-2862
     DOI: 10.1021/acs.jctc.9b00143
   
   for SPH calculations refer to:
   * S. Spicher and S. Grimme, J. Chem. Theory Comput., 2021, 17, 1701-1714
     DOI: 10.1021/acs.jctc.0c01306
   
   for ONIOM refer to:
   * C. Plett, A. Katbashev, S. Ehlert, S. Grimme, M. Bursch,
     Phys. Chem. Chem. Phys., 2023, 25, 17860-17868. DOI: 10.1039/D3CP02178E
   
   for DIPRO refer to:
   * J. Kohn, N. Gildemeister, S. Grimme, D. Fazzi, A. Hansen,
     J. Chem. Phys., 2023, just accepted.
   
   for PTB refer to:
   * S. Grimme, M. Mueller, A. Hansen, J. Chem. Phys., 2023, 158, 124111.
     DOI: 10.1063/5.0137838
   
   with help from (in alphabetical order)
   P. Atkinson, C. Bannwarth, F. Bohle, G. Brandenburg, E. Caldeweyher
   M. Checinski, S. Dohm, S. Ehlert, S. Ehrlich, I. Gerasimov, C. Hölzer
   A. Katbashev, J. Kohn, J. Koopman, C. Lavigne, S. Lehtola, F. März, M. Müller,
   F. Musil, H. Neugebauer, J. Pisarek, C. Plett, P. Pracht, F. Pultar,
   J. Seibert, P. Shushkov, S. Spicher, M. Stahn, M. Steiner, T. Strunk,
   J. Stückrath, T. Rose, and J. Unsleber
   
 * started run on 2026/03/12 at 12:47:40.285     
   ID    Z sym.   atoms
    1    6 C      1
    2    1 H      2-4
    3   35 Br     5
    4    9 F      6

           -------------------------------------------------
          |                Calculation Setup                |
           -------------------------------------------------

          program call               : /software/orca-6.1.0-el8-x86_64/bin/otool_xtb product_optfreq_XTB.xyz --grad -c -1 -u 0 -P 8 --namespace product_optfreq --input product_optfreq_XTB.input.tmp --acc 0.200000
          hostname                   : midway3-login4.rcc.local
          calculation namespace      : product_optfreq
          coordinate file            : product_optfreq_XTB.xyz
          omp threads                :                     8


molecular fragmentation (1/2 indicates fragments):
111112
# atoms in fragment 1/2:     5     1
 fragment masses (1/2) :       94.94       19.00
CMA distance (Bohr)    :   7.300
constraining FC (au)   :  0.0500

           -------------------------------------------------
          |                 G F N 2 - x T B                 |
           -------------------------------------------------

        Reference                      10.1021/acs.jctc.8b01176
      * Hamiltonian:
        H0-scaling (s, p, d)           1.850000    2.230000    2.230000
        zeta-weighting                 0.500000
      * Dispersion:
        s8                             2.700000
        a1                             0.520000
        a2                             5.000000
        s9                             5.000000
      * Repulsion:
        kExp                           1.500000    1.000000
        rExp                           1.000000
      * Coulomb:
        alpha                          2.000000
        third order                    shell-resolved
        anisotropic                    true
        a3                             3.000000
        a5                             4.000000
        cn-shift                       1.200000
        cn-exp                         4.000000
        max-rad                        5.000000

q/qsh data taken from xtbrestart
CAMM data taken from xtbrestart

          ...................................................
          :                      SETUP                      :
          :.................................................:
          :  # basis functions                  21          :
          :  # atomic orbitals                  20          :
          :  # shells                           10          :
          :  # electrons                        22          :
          :  max. iterations                   250          :
          :  Hamiltonian                  GFN2-xTB          :
          :  restarted?                       true          :
          :  GBSA solvation                  false          :
          :  PC potential                    false          :
          :  electronic temp.          300.0000000     K    :
          :  accuracy                    0.2000000          :
          :  -> integral cutoff          0.3198970E+02      :
          :  -> integral neglect         0.2000000E-08      :
          :  -> SCF convergence          0.2000000E-06 Eh   :
          :  -> wf. convergence          0.2000000E-04 e    :
          :  Broyden damping             0.4000000          :
          :  net charge                         -1          :
          :  unpaired electrons                  0          :
          ...................................................

 iter      E             dE          RMSdq      gap      omega  full diag
   1    -12.7566517 -0.127567E+02  0.836E-01    3.39       0.0  T
   2    -12.7589360 -0.228428E-02  0.227E-01    3.66       1.0  T
   3    -12.7589812 -0.452606E-04  0.129E-01    3.63       1.0  T
   4    -12.7589805  0.713479E-06  0.888E-02    3.65       1.0  T
   5    -12.7589900 -0.942555E-05  0.453E-02    3.64       1.0  T
   6    -12.7589918 -0.180859E-05  0.139E-02    3.64       2.9  T
   7    -12.7589919 -0.143723E-06  0.692E-03    3.64       5.9  T
   8    -12.7589921 -0.141379E-06  0.894E-04    3.64      45.7  T
   9    -12.7589921 -0.586454E-09  0.195E-04    3.64     209.6  T
  10    -12.7589921 -0.159872E-10  0.117E-04    3.64     349.7  T

   *** convergence criteria satisfied after 10 iterations ***

         #    Occupation            Energy/Eh            Energy/eV
      -------------------------------------------------------------
         1        2.0000           -0.6368057             -17.3284
       ...           ...                  ...                  ...
         5        2.0000           -0.3289070              -8.9500
         6        2.0000           -0.2671682              -7.2700
         7        2.0000           -0.2093955              -5.6979
         8        2.0000           -0.2093101              -5.6956
         9        2.0000           -0.1989670              -5.4142
        10        2.0000           -0.1988271              -5.4104
        11        2.0000           -0.1949062              -5.3037 (HOMO)
        12                         -0.0611406              -1.6637 (LUMO)
        13                          0.2620012               7.1294
        14                          0.2620141               7.1298
        15                          0.2640308               7.1846
        16                          0.2660388               7.2393
       ...                                ...                  ...
        20                          0.4393758              11.9560
      -------------------------------------------------------------
                  HL-Gap            0.1337656 Eh            3.6399 eV
             Fermi-level           -0.1280234 Eh           -3.4837 eV

 SCC (total)                   0 d,  0 h,  0 min,  0.079 sec
 SCC setup                      ...        0 min,  0.000 sec (  0.230%)
 Dispersion                     ...        0 min,  0.000 sec (  0.073%)
 classical contributions        ...        0 min,  0.000 sec (  0.062%)
 integral evaluation            ...        0 min,  0.077 sec ( 97.232%)
 iterations                     ...        0 min,  0.001 sec (  1.700%)
 molecular gradient             ...        0 min,  0.000 sec (  0.533%)
 printout                       ...        0 min,  0.000 sec (  0.145%)

         :::::::::::::::::::::::::::::::::::::::::::::::::::::
         ::                     SUMMARY                     ::
         :::::::::::::::::::::::::::::::::::::::::::::::::::::
         :: total energy             -12.700832308252 Eh    ::
         :: gradient norm              0.024068526818 Eh/a0 ::
         :: HOMO-LUMO gap              3.639946469236 eV    ::
         ::.................................................::
         :: SCC energy               -12.758992156588 Eh    ::
         :: -> isotropic ES            0.181342894594 Eh    ::
         :: -> anisotropic ES         -0.003649949062 Eh    ::
         :: -> anisotropic XC         -0.001044755504 Eh    ::
         :: -> dispersion             -0.002206476578 Eh    ::
         :: repulsion energy           0.058159848336 Eh    ::
         :: add. restraining           0.000000000000 Eh    ::
         :: total charge              -1.000000000000 e     ::
         :::::::::::::::::::::::::::::::::::::::::::::::::::::


Property printout bound to 'properties.out'

           -------------------------------------------------
          | TOTAL ENERGY              -12.700832308252 Eh   |
          | GRADIENT NORM               0.024068526818 Eh/α |
          | HOMO-LUMO GAP               3.639946469236 eV   |
           -------------------------------------------------

------------------------------------------------------------------------
 * finished run on 2026/03/12 at 12:47:40.378     
------------------------------------------------------------------------
 total:
 * wall-time:     0 d,  0 h,  0 min,  0.093 sec
 *  cpu-time:     0 d,  0 h,  0 min,  0.387 sec
 * ratio c/w:     4.176 speedup
 SCF:
 * wall-time:     0 d,  0 h,  0 min,  0.080 sec
 *  cpu-time:     0 d,  0 h,  0 min,  0.332 sec
 * ratio c/w:     4.173 speedup


-------------------------   --------------------
FINAL SINGLE POINT ENERGY       -12.700832308250
-------------------------   --------------------


-------------
DIPOLE MOMENT
-------------
                                X             Y             Z
Total Dipole Moment    :     -0.37600       0.21900      -0.86000
                        -----------------------------------------
Magnitude (a.u.)       :      0.96381
Magnitude (Debye)      :      2.44982


------------------
CARTESIAN GRADIENT
------------------

   1   C   :   -0.003702276    0.001906914    0.021084073
   2   H   :   -0.000576943    0.001109321   -0.003432286
   3   H   :    0.002284962   -0.001364088   -0.006953140
   4   H   :   -0.001083720    0.000039995   -0.003303466
   5   Br  :    0.000556534   -0.000305957   -0.004209887
   6   F   :    0.002521443   -0.001386184   -0.003185293

Difference to translation invariance:
           :    0.0000000000   -0.0000000000   -0.0000000000

Difference to rotation invariance:
           :    0.0000002119    0.0000003775   -0.0000000003

Norm of the Cartesian gradient     ...    0.0240685268
RMS gradient                       ...    0.0056730062
MAX gradient                       ...    0.0210840728
------------------------------------------------------------------------------
                         ORCA GEOMETRY RELAXATION STEP
------------------------------------------------------------------------------

Reading the OPT-File                    .... done
Getting information on internals        .... done
Copying old internal coords+grads       .... done
Making the new internal coordinates     .... (2022 redundants) done
Validating the new internal coordinates .... (2022 redundants) done
Calculating the B-matrix                .... done
Calculating the G,G- and P matrices     .... done
Transforming gradient to internals      .... done
Projecting the internal gradient        .... done
Number of atoms                         ....   6
Number of internal coordinates          ....  18
Current Energy                          ....   -12.700832308 Eh
Current gradient norm                   ....     0.024068527 Eh/bohr
Maximum allowed component of the step   ....  0.300
Current trust radius                    ....  0.200
Updating the Hessian (BFGS)             .... done
Forming the augmented Hessian           .... done
Diagonalizing the augmented Hessian     .... done
Last element of RFO vector              ....  0.827787350
Lowest eigenvalues of augmented Hessian:
 -0.005730733  0.009862348  0.030409968  0.060041916  0.090943064
Length of the computed step             ....  0.677760998
Warning: the length of the step is outside the trust region - taking restricted step instead
The input lambda is                     ....     0.004184
   iter:   5  x=   -0.002373  g=  816.809006 f(x)=     2.044764
   iter:  10  x=   -0.031891  g=    3.727734 f(x)=     0.022082
   iter:  15  x=   -0.034260  g=    1.880397 f(x)=     0.000000
The output lambda is                    ....    -0.034260 (15 iterations)
The final length of the internal step   ....  0.200000000
Converting the step to Cartesian space:
 Initial RMS(Int)=    0.0471404521
Transforming coordinates:
 Iter   0:  RMS(Cart)=    0.0367614275 RMS(Int)=    0.0468707289
done
Storing new coordinates                 .... done
The predicted energy change is          ....    -0.001659837
Previously predicted energy change      ....    -0.002222049
Actually observed energy change         ....    -0.002434782
Ratio of predicted to observed change   ....     1.095737199
New trust radius                        ....     0.300000000

                                .--------------------.
          ----------------------|Geometry convergence|-------------------------
          Item                value                   Tolerance       Converged
          ---------------------------------------------------------------------
          Energy change      -0.0024347819            0.0000050000      NO
          RMS gradient        0.0030114606            0.0001000000      NO
          MAX gradient        0.0053638992            0.0003000000      NO
          RMS step            0.0471404521            0.0020000000      NO
          MAX step            0.0940431514            0.0040000000      NO
          -------------------------------------------------------------------------
          ........................................................
          Max(Bonds)      0.0498      Max(Angles)    4.22
          Max(Dihed)        0.00      Max(Improp)    0.00
          ---------------------------------------------------------------------

The optimization has not yet converged - more geometry cycles are needed


    ---------------------------------------------------------------------------
                         Redundant Internal Coordinates
                            (Angstroem and degrees)

        Definition                    Value    dE/dq     Step     New-Value
    ----------------------------------------------------------------------------
     1. B(H   1,C   0)                1.0717  0.001367 -0.0007    1.0710   
     2. B(H   2,C   0)                1.0737  0.004540  0.0017    1.0755   
     3. B(H   3,C   0)                1.0714  0.001127 -0.0008    1.0706   
     4. B(Br  4,C   0)                2.3066 -0.004198  0.0426    2.3492   
     5. B(F   5,C   0)                1.9270  0.005364 -0.0498    1.8773   
     6. B(F   5,H   1)                2.1290  0.000180 -0.0339    2.0951   
     7. B(F   5,H   2)                2.0519 -0.002868  0.0326    2.0845   
     8. B(F   5,H   3)                2.1317  0.000272 -0.0357    2.0960   
     9. A(H   1,C   0,H   3)          118.39 -0.002036    1.49    119.88   
    10. A(H   2,C   0,H   3)          119.15 -0.000861    0.36    119.52   
    11. A(H   1,C   0,Br  4)           96.15  0.003764   -2.07     94.08   
    12. A(H   2,C   0,Br  4)           95.83  0.002801   -1.19     94.64   
    13. A(H   3,C   0,Br  4)           96.16  0.003804   -2.08     94.08   
    14. A(H   1,C   0,F   5)           85.43 -0.002763    0.55     85.98   
    15. A(H   2,C   0,F   5)           80.88 -0.004869    4.22     85.10   
    16. A(H   3,C   0,F   5)           85.59 -0.002662    0.45     86.04   
    17. A(Br  4,C   0,F   5)          176.71 -0.002069    3.04    179.75   
    18. A(H   1,C   0,H   2)          119.17 -0.000822    0.32    119.49   
    ----------------------------------------------------------------------------

Geometry step timings:
Preparation and reading OPT file:      0.000 s ( 2.795 %)
Internal coordinates            :      0.000 s ( 3.607 %)
B/P matrices and projection     :      0.000 s (12.714 %)
Hessian update/contruction      :      0.000 s (27.232 %)
Making the step                 :      0.000 s (13.526 %)
Converting the step to Cartesian:      0.000 s ( 2.795 %)
Storing new data                :      0.000 s ( 6.763 %)
Checking convergence            :      0.000 s ( 6.492 %)
Final printing                  :      0.000 s (23.986 %)
Total time                      :      0.001 s

Time for energy+gradient        :      0.102 s
Time for complete geometry iter :      0.104 s

         *************************************************************
         *                GEOMETRY OPTIMIZATION CYCLE   4            *
         *************************************************************
---------------------------------
CARTESIAN COORDINATES (ANGSTROEM)
---------------------------------
  C     0.148561   -0.088894   -0.104934
  H     0.159384    0.979086   -0.183195
  H     1.073053   -0.632424   -0.187964
  H    -0.779339   -0.617181   -0.181864
  Br    0.143594   -0.083915    2.244298
  F     0.158959   -0.095082   -1.982176

----------------------------
CARTESIAN COORDINATES (A.U.)
----------------------------
  NO LB    ZA    FRAG    MASS        X           Y           Z
   0 C   6.0000    0    12.011    0.280739   -0.167986   -0.198296
[...]
 SCC setup                      ...        0 min,  0.000 sec (  0.241%)
 Dispersion                     ...        0 min,  0.000 sec (  0.065%)
 classical contributions        ...        0 min,  0.000 sec (  0.040%)
 integral evaluation            ...        0 min,  0.079 sec ( 97.948%)
 iterations                     ...        0 min,  0.001 sec (  1.023%)
 molecular gradient             ...        0 min,  0.000 sec (  0.488%)
 printout                       ...        0 min,  0.000 sec (  0.172%)

         :::::::::::::::::::::::::::::::::::::::::::::::::::::
         ::                     SUMMARY                     ::
         :::::::::::::::::::::::::::::::::::::::::::::::::::::
         :: total energy             -12.738789785076 Eh    ::
         :: gradient norm              0.000042195137 Eh/a0 ::
         :: HOMO-LUMO gap              8.879811702545 eV    ::
         ::.................................................::
         :: SCC energy               -12.798190956253 Eh    ::
         :: -> isotropic ES            0.181194006717 Eh    ::
         :: -> anisotropic ES         -0.001006999794 Eh    ::
         :: -> anisotropic XC         -0.001483603451 Eh    ::
         :: -> dispersion             -0.001908662464 Eh    ::
         :: repulsion energy           0.059401171177 Eh    ::
         :: add. restraining           0.000000000000 Eh    ::
         :: total charge              -1.000000000000 e     ::
         :::::::::::::::::::::::::::::::::::::::::::::::::::::

           ------------------------------------------------- 
          |                Numerical Hessian                |
           ------------------------------------------------- 
step length          :   0.00500
SCC accuracy         :   0.30000
Hessian scale factor :   1.00000
frozen atoms in %    :   0.00000    0
RMS gradient         :   0.00004
estimated CPU  time      0.00 min
estimated wall time      0.00 min

writing file <hessian>.

 projected vibrational frequencies (cm⁻¹)
eigval :       -0.00    -0.00    -0.00     0.00     0.00     0.00
eigval :       90.64    90.76    93.56  1000.99  1102.59  1102.67
eigval :     1386.72  1451.02  1451.04  3038.97  3045.42  3045.72

Property printout bound to 'properties.out'
Refinement of some symmetry elements was terminated before convergence was reached.
Some symmetry elements may remain unidentified.
Molecule has the following symmetry elements: (C3) 3*(sigma) 
It seems to be the C3v point group

           -------------------------------------------------
          | TOTAL ENERGY              -12.738789785076 Eh   |
          | TOTAL ENTHALPY            -12.694153461513 Eh   |
          | TOTAL FREE ENERGY         -12.729090011964 Eh   |
          | GRADIENT NORM               0.000042196724 Eh/α |
          | HOMO-LUMO GAP               8.879811646007 eV   |
           -------------------------------------------------

------------------------------------------------------------------------
 * finished run on 2026/03/12 at 12:47:43.284     
------------------------------------------------------------------------
 total:
 * wall-time:     0 d,  0 h,  0 min,  0.108 sec
 *  cpu-time:     0 d,  0 h,  0 min,  0.495 sec
 * ratio c/w:     4.571 speedup
 SCF:
 * wall-time:     0 d,  0 h,  0 min,  0.081 sec
 *  cpu-time:     0 d,  0 h,  0 min,  0.347 sec
 * ratio c/w:     4.300 speedup
 analytical hessian:
 * wall-time:     0 d,  0 h,  0 min,  0.010 sec
 *  cpu-time:     0 d,  0 h,  0 min,  0.081 sec
 * ratio c/w:     7.810 speedup


-------------------------   --------------------
FINAL SINGLE POINT ENERGY       -12.738789785080
-------------------------   --------------------


-------------
DIPOLE MOMENT
-------------
                                X             Y             Z
Total Dipole Moment    :     -0.23100       0.13700      -4.05200
                        -----------------------------------------
Magnitude (a.u.)       :      4.06089
Magnitude (Debye)      :     10.32196


-----------------------
VIBRATIONAL FREQUENCIES
-----------------------

Scaling factor for frequencies =  1.000000000  (already applied!)

     0:       0.00 cm**-1
     1:       0.00 cm**-1
     2:       0.00 cm**-1
     3:       0.00 cm**-1
     4:       0.00 cm**-1
     5:       0.00 cm**-1
     6:      90.64 cm**-1
     7:      90.76 cm**-1
     8:      93.56 cm**-1
     9:    1000.99 cm**-1
    10:    1102.56 cm**-1
    11:    1102.64 cm**-1
    12:    1386.68 cm**-1
    13:    1450.98 cm**-1
    14:    1451.00 cm**-1
    15:    3038.88 cm**-1
    16:    3045.34 cm**-1
    17:    3045.63 cm**-1


------------
NORMAL MODES
------------

These modes are the Cartesian displacements weighted by the diagonal matrix
M(i,i)=1/sqrt(m[i]) where m[i] is the mass of the displaced atom
Thus, these vectors are normalized but *not* orthogonal

                  0          1          2          3          4          5    
      0       0.000000   0.000000   0.000000   0.000000   0.000000   0.000000
      1       0.000000   0.000000   0.000000   0.000000   0.000000   0.000000
      2       0.000000   0.000000   0.000000   0.000000   0.000000   0.000000
      3       0.000000   0.000000   0.000000   0.000000   0.000000   0.000000
      4       0.000000   0.000000   0.000000   0.000000   0.000000   0.000000
      5       0.000000   0.000000   0.000000   0.000000   0.000000   0.000000
      6       0.000000   0.000000   0.000000   0.000000   0.000000   0.000000
      7       0.000000   0.000000   0.000000   0.000000   0.000000   0.000000
      8       0.000000   0.000000   0.000000   0.000000   0.000000   0.000000
      9       0.000000   0.000000   0.000000   0.000000   0.000000   0.000000
     10       0.000000   0.000000   0.000000   0.000000   0.000000   0.000000
     11       0.000000   0.000000   0.000000   0.000000   0.000000   0.000000
     12       0.000000   0.000000   0.000000   0.000000   0.000000   0.000000
     13       0.000000   0.000000   0.000000   0.000000   0.000000   0.000000
     14       0.000000   0.000000   0.000000   0.000000   0.000000   0.000000
     15       0.000000   0.000000   0.000000   0.000000   0.000000   0.000000
     16       0.000000   0.000000   0.000000   0.000000   0.000000   0.000000
     17       0.000000   0.000000   0.000000   0.000000   0.000000   0.000000
                  6          7          8          9         10         11    
      0       0.306078   0.124141   0.012779   0.007355   0.109755   0.079847
      1      -0.124174   0.306195   0.003142  -0.004268  -0.079833   0.109761
      2       0.006639   0.002789  -0.443703  -0.556293   0.002027   0.000236
      3       0.419216   0.174920   0.015407   0.005342  -0.211701  -0.165086
      4      -0.172601   0.425682   0.005333  -0.014205   0.082977  -0.112406
      5       0.151356  -0.357904  -0.444259  -0.413807  -0.438528   0.607184
      6       0.432927   0.169456   0.015016  -0.004201  -0.121698  -0.148575
      7      -0.177854   0.422879   0.005866   0.001784   0.101971  -0.222472
      8      -0.374750   0.058851  -0.439535  -0.414665   0.742106   0.072564
      9       0.422192   0.172492   0.015794   0.015149  -0.168668  -0.051686
     10      -0.166513   0.426058   0.006078   0.001623   0.180280  -0.167383
     11       0.249155   0.306207  -0.425386  -0.414532  -0.312889  -0.680225
     12      -0.021261  -0.008610  -0.002923   0.000002  -0.000014  -0.000010
     13       0.008624  -0.021286   0.001026  -0.000004   0.000010  -0.000013
     14      -0.001037  -0.001461   0.188249  -0.000139  -0.000001  -0.000001
     15      -0.171706  -0.069700   0.001762  -0.005525  -0.042693  -0.031055
     16       0.069666  -0.171692  -0.007216   0.003288   0.031053  -0.042691
     17      -0.001204   0.004001  -0.441736   0.418236  -0.000784  -0.000121
                 12         13         14         15         16         17    
      0       0.001480  -0.020626   0.060647  -0.003079   0.049423  -0.074803
      1      -0.000846  -0.060644  -0.020636   0.001513   0.074878   0.049394
      2      -0.114532   0.000079   0.000907   0.037967   0.000240  -0.002671
      3      -0.008549   0.226439  -0.700581  -0.003532   0.022243  -0.039225
      4      -0.193670  -0.120124  -0.033639  -0.562456  -0.649367  -0.400311
      5       0.539403   0.312832   0.093342  -0.169299  -0.215198  -0.134149
      6      -0.178246   0.388451   0.035928  -0.451807  -0.013600   0.674704
      7       0.104314   0.608114  -0.193993   0.265543   0.060279  -0.393997
      8       0.535094  -0.065014  -0.315902  -0.170155  -0.015074   0.279446
      9       0.165661  -0.320576  -0.200444   0.493267  -0.606358   0.269161
     10       0.101429   0.377187   0.521955   0.278246  -0.316489   0.196950
     11       0.539891  -0.249612   0.209389  -0.170817   0.227127  -0.111292
     12       0.000003  -0.000018   0.000054  -0.000000  -0.000013   0.000020
     13      -0.000002  -0.000054  -0.000018  -0.000000  -0.000020  -0.000013
     14      -0.000231   0.000001   0.000001   0.000057   0.000000  -0.000002
     15       0.000173  -0.002498   0.007331  -0.000066   0.000523  -0.000790
     16      -0.000097  -0.007336  -0.002492   0.000034   0.000793   0.000522
     17      -0.012275   0.000043   0.000120   0.002831   0.000014  -0.000109


The first frequency considered to be a vibration is 6
The total number of vibrations considered is 12


--------------------------
THERMOCHEMISTRY AT 298.15K
--------------------------

Temperature         ...   298.15 K
Pressure            ...     1.00 atm
Total Mass          ...   113.93 AMU
Quasi RRHO          ...     True
Cut-Off Frequency   ...     1.00 cm^-1

Throughout the following assumptions are being made:
  (1) The electronic state is orbitally nondegenerate
  (2) There are no thermally accessible electronically excited states
  (3) Hindered rotations indicated by low frequency modes are not
      treated as such but are treated as vibrations and this may
      cause some error
  (4) All equations used are the standard statistical mechanics
      equations for an ideal gas
  (5) All vibrations are strictly harmonic

freq.      90.64  E(vib)   ...       0.47 
freq.      90.76  E(vib)   ...       0.47 
freq.      93.56  E(vib)   ...       0.47 
freq.    1000.99  E(vib)   ...       0.02 
freq.    1102.56  E(vib)   ...       0.02 
freq.    1102.64  E(vib)   ...       0.02 
freq.    1386.68  E(vib)   ...       0.00 
freq.    1450.98  E(vib)   ...       0.00 
freq.    1451.00  E(vib)   ...       0.00 
freq.    3038.88  E(vib)   ...       0.00 
freq.    3045.34  E(vib)   ...       0.00 
freq.    3045.63  E(vib)   ...       0.00 

------------
INNER ENERGY
------------

The inner energy is: U= E(el) + E(ZPE) + E(vib) + E(rot) + E(trans)
    E(el)   - is the total energy from the electronic structure calculation
              = E(kin-el) + E(nuc-el) + E(el-el) + E(nuc-nuc)
    E(ZPE)  - the the zero temperature vibrational energy from the frequency calculation
    E(vib)  - the the finite temperature correction to E(ZPE) due to population
              of excited vibrational states
    E(rot)  - is the rotational thermal energy
    E(trans)- is the translational thermal energy

Summary of contributions to the inner energy U:
Electronic energy                ...    -12.73878979 Eh
Zero point energy                ...      0.03850027 Eh      24.16 kcal/mol
Thermal vibrational correction   ...      0.00235825 Eh       1.48 kcal/mol
Thermal rotational correction    ...      0.00141627 Eh       0.89 kcal/mol
Thermal translational correction ...      0.00141627 Eh       0.89 kcal/mol
-----------------------------------------------------------------------
Total thermal energy                    -12.69509873 Eh


Summary of corrections to the electronic energy:
(perhaps to be used in another calculation)
Total thermal correction                  0.00519079 Eh       3.26 kcal/mol
Non-thermal (ZPE) correction              0.03850027 Eh      24.16 kcal/mol
-----------------------------------------------------------------------
Total correction                          0.04369106 Eh      27.42 kcal/mol


--------
ENTHALPY
--------

The enthalpy is H = U + kB*T
                kB is Boltzmann's constant
Total thermal energy              ...    -12.69509873 Eh 
Thermal Enthalpy correction       ...      0.00094421 Eh       0.59 kcal/mol
-----------------------------------------------------------------------
Total Enthalpy                    ...    -12.69415452 Eh


WARNING (ORCA/SYM): The number of Z matrix atoms does not agree with
the number of centers in the basis set. The point group will therefore
be determined without considering basis set information.


Note: Only C1 symmetry has been detected, increase convergence thresholds 
      if your molecule has a higher symmetry. Symmetry factor of 1.0 is   
      used for the rotational entropy correction. 
 

Note: Rotational entropy computed according to Herzberg 
Infrared and Raman Spectra, Chapter V,1, Van Nostrand Reinhold, 1945 
Point Group:  C1, Symmetry Number:   1  
Rotational constants in cm-1:     5.248676     0.042360     0.042360 

Vibrational entropy computed according to the QRRHO of S. Grimme
Chem.Eur.J. 2012 18 9955 using a reference frequency of 100.0 cm-1


-------
ENTROPY
-------

The entropy contributions are T*S = T*(S(el)+S(vib)+S(rot)+S(trans))
     S(el)   - electronic entropy
     S(vib)  - vibrational entropy
     S(rot)  - rotational entropy
     S(trans)- translational entropy
The entropies will be listed as multiplied by the temperature to get
units of energy

Electronic entropy                ...      0.00000000 Eh      0.00 kcal/mol
Vibrational entropy               ...      0.00472090 Eh      2.96 kcal/mol
Rotational entropy                ...      0.01171317 Eh      7.35 kcal/mol
Translational entropy             ...      0.01905598 Eh     11.96 kcal/mol
-----------------------------------------------------------------------
Final entropy term                ...      0.03549005 Eh     22.27 kcal/mol

In case the symmetry of your molecule has not been determined correctly
or in case you have a reason to use a different symmetry number we print 
out the resulting rotational entropy values for sn=1,12:

 non-linear molecules -----------------------------------
|  sn= 1 | S(rot)=       0.01171317 Eh      7.35 kcal/mol|
|  sn= 2 | S(rot)=       0.01105871 Eh      6.94 kcal/mol|
|  sn= 3 | S(rot)=       0.01067588 Eh      6.70 kcal/mol|
|  sn= 4 | S(rot)=       0.01040426 Eh      6.53 kcal/mol|
|  sn= 5 | S(rot)=       0.01019357 Eh      6.40 kcal/mol|
|  sn= 6 | S(rot)=       0.01002143 Eh      6.29 kcal/mol|
|  sn= 7 | S(rot)=       0.00987588 Eh      6.20 kcal/mol|
|  sn= 8 | S(rot)=       0.00974980 Eh      6.12 kcal/mol|
|  sn= 9 | S(rot)=       0.00963859 Eh      6.05 kcal/mol|
|  sn=10 | S(rot)=       0.00953911 Eh      5.99 kcal/mol|
|  sn=11 | S(rot)=       0.00944912 Eh      5.93 kcal/mol|
|  sn=12 | S(rot)=       0.00936697 Eh      5.88 kcal/mol|
 linear molecules ---------------------------------------
|  Dinfh | S(rot)=       0.00831088 Eh      5.22 kcal/mol|
|  Cinfv | S(rot)=       0.00896534 Eh      5.63 kcal/mol|
 --------------------------------------------------------


-------------------
GIBBS FREE ENERGY
-------------------

The Gibbs free energy is G = H - T*S

Total enthalpy                    ...    -12.69415452 Eh 
Total entropy correction          ...     -0.03549005 Eh    -22.27 kcal/mol
-----------------------------------------------------------------------
Final Gibbs free energy         ...    -12.72964457 Eh

For completeness - the Gibbs free energy minus the electronic energy
G-E(el)                           ...      0.00914522 Eh      5.74 kcal/mol


--------------------------------
SUGGESTED CITATIONS FOR THIS RUN
--------------------------------

Below you find a list of papers that are relevant to this ORCA run
We neither can nor want to force you to cite these papers, but we appreciate if you do
You receive ORCA, which is the product of decades of hard work by many enthusiastic individuals, for free
The only thing we kindly ask in return is that you cite our papers,
We deeply appreciate it, if you show your appreciation for ORCA by not just citing the generic ORCA reference.

Please note that relegating all ORCA citations to the supporting information does *not* help us.
SI sections are not indexed - citations you put there will not count into any citation statistics
But we need these citations in order to attract the funding resources that allow us to do what we are doing

Therefore, if you are a happy ORCA user, please consider citing a few of the papers listed below in the main body of your paper

In addition to the list printed below, the program has created the file product_optfreq.bibtex that contains the list in bibtex format
You can import this file easily into all common literature databanks and citation aid programs


List of essential papers. We consider these as the minimum necessary citations

  1. Bannwarth, C.; Ehlert, S.; Grimme, S.
     GFN2-xTB—An Accurate and Broadly Parametrized Self-Consistent Tight-Binding Quantum Chemical Method with Multipole Electrostatics and Density-Dependent Dispersion Contributions
     J. Chem. Theory Comput. 2019 15(3), 1652-1671
     doi.org/10.1021/acs.jctc.8b01176
  2. Neese, F.
     Software update: the ORCA program system, version 6.0
     WIRES Comput. Molec. Sci. 2025 15(1), e70019
     doi.org/10.1002/wcms.7019

List of papers to cite with high priority. The work reported in these papers was absolutely
necessary for this run to complete.
Our perspective: the developers of density functionals and basis sets usually get cited in chemistry papers
Good! But without the algorithms to do something with them, the functionals or basis sets would not do anything.
Hence, in our opinion, the algorithm design and method developments papers are equally worthy of getting cited

  1. Bykov, D.; Petrenko, T.; Izsak, R.; Kossmann, S.; Becker, U.; Valeev, E.; Neese, F.
     Efficient implementation of the analytic second derivatives of Hartree-Fock and hybrid DFT energies: a detailed analysis of different approximations
     Molec. Phys. 2015 113 , 1961-1977
     doi.org/10.1080/00268976.2015.1025114
  2. Bannwarth, C.; Caldeweyher, E.; Ehlert, S.; Hansen, A.; Pracht, P.; Seibert, J.; Spicher, S.; Grimme, S.
     Extended tight-binding quantum chemistry methods
     WIRES Comput. Molec. Sci. 2020 11(2), e1493
     doi.org/10.1002/wcms.1493

List of suggested additional citations. These are papers that are important in the 'surrounding' of 
of this run, or papers that preceded the highly important papers. If you like your results we are grateful for a citation.

  1. Neese, F.
     The ORCA program system
     WIRES Comput. Molec. Sci. 2012 2(1), 73-78
     doi.org/10.1002/wcms.81
  2. Neese, F.
     Software update: the ORCA program system, version 4.0
     WIRES Comput. Molec. Sci. 2018 8(1), 1-6
     doi.org/10.1002/wcms.1327
  3. Neese, F.; Wennmohs, F.; Becker, U.; Riplinger, C.
     The ORCA quantum chemistry program package
     J. Chem. Phys. 2020 152(22), 224108
     doi.org/10.1063/5.0004608
  4. Neese, F.
     Software update: The ORCA program system—Version 5.0
     WIRES Comput. Molec. Sci. 2022 12(1), e1606
     doi.org/10.1002/wcms.1606

List of optional additional citations

  1. Neese, F.
     Approximate second-order SCF convergence for spin unrestricted wavefunctions
     Chem. Phys. Lett. 2000 325(1-3), 93-98
     doi.org/10.1016/s0009-2614(00)00662-x

Timings for individual modules:

Sum of individual times          ...        3.117 sec (=   0.052 min)
Geometry relaxation              ...        0.040 sec (=   0.001 min)   1.3 %
XTB module                       ...        3.077 sec (=   0.051 min)  98.7 %
                             ****ORCA TERMINATED NORMALLY****
TOTAL RUN TIME: 0 days 0 hours 0 minutes 3 seconds 612 msec
