
                                 *****************
                                 * O   R   C   A *
                                 *****************

                                            #,                                       
                                            ###                                      
                                            ####                                     
                                            #####                                    
                                            ######                                   
                                           ########,                                 
                                     ,,################,,,,,                         
                               ,,#################################,,                 
                          ,,##########################################,,             
                       ,#########################################, ''#####,          
                    ,#############################################,,   '####,        
                  ,##################################################,,,,####,       
                ,###########''''           ''''###############################       
              ,#####''   ,,,,##########,,,,          '''####'''          '####       
            ,##' ,,,,###########################,,,                        '##       
           ' ,,###''''                  '''############,,,                           
         ,,##''                                '''############,,,,        ,,,,,,###''
      ,#''                                            '''#######################'''  
     '                                                          ''''####''''         
             ,#######,   #######,   ,#######,      ##                                
            ,#'     '#,  ##    ##  ,#'     '#,    #''#        ,####,    ,#,          
            ##       ##  ##   ,#'  ##            #'  '#       #'       ,# #          
            ##       ##  #######   ##           ,######,      #####,      #          
            '#,     ,#'  ##    ##  '#,     ,#' ,#      #,     #,   #      #          
             '#######'   ##     ##  '#######'  #'      '#     '####' #    #          



                #########################################################
                #                        -***-                          #
                #          Department of theory and spectroscopy        #
                #                                                       #
                #                      Frank Neese                      #
                #                                                       #
                #     Directorship, Architecture, Infrastructure        #
                #                    SHARK, DRIVERS                     #
                #        Core code/Algorithms in most modules           #
                #                                                       #
                #        Max Planck Institute fuer Kohlenforschung      #
                #                Kaiser Wilhelm Platz 1                 #
                #                 D-45470 Muelheim/Ruhr                 #
                #                      Germany                          #
                #                                                       #
                #                  All rights reserved                  #
                #                        -***-                          #
                #########################################################


                         Program Version 6.1.0  -  RELEASE   -
                                (GIT: $679e74b$)
                          ($2025-06-10 18:02:51 +0200$)


 With contributions from (in alphabetic order):
[Max-Planck-Institut fuer Kohlenforschung]                               
  Daniel Aravena         : Magnetic Suceptibility                        
  Michael Atanasov       : Ab Initio Ligand Field Theory (pilot matlab implementation)
  Alexander A. Auer      : GIAO ZORA, VPT2 properties, NMR spectrum      
  Ute Becker             : All parallelization in ORCA, NUMFREQ, NUMCALC 
  Giovanni Bistoni       : ED, misc. LED, open-shell LED, HFLD           
  Dmytro Bykov           : pre 5.0 version of the SCF Hessian            
  Marcos Casanova-Páez   : Triplet and SCS-CIS(D). UHF-(DLPNO)-IP/EA/STEOM-CCSD. UHF-CVS-IP/STEOM-CCSD   
  Vijay G. Chilkuri      : MRCI spin determinant printing, contributions to CSF-ICE 
  Pauline Colinet        : FMM embedding                                 
  Dipayan Datta          : RHF DLPNO-CCSD density                        
  Achintya Kumar Dutta   : EOM-CC, STEOM-CC                              
  Nicolas Foglia         : Exact transition moments, OPA infrastructure, MCD improvements    
  Dmitry Ganyushin       : Spin-Orbit,Spin-Spin,Magnetic field MRCI      
  Miquel Garcia-Rates    : C-PCM and meta-GGA Hessian, CCSD/C-PCM, Gaussian charge scheme 
  Tiago L. C. Gouveia    : GS-ROHF, GS-ROCIS                             
  Yang Guo               : DLPNO-NEVPT2, F12-NEVPT2, CIM, IAO-localization        
  Andreas Hansen         : Spin unrestricted coupled pair/coupled cluster methods 
  Ingolf Harden          : AUTO-CI MPn and infrastructure                
  Benjamin Helmich-Paris : MC-RPA, TRAH-(SCF,CASSCF), AVAS, COSX integrals, SCF dyn. polar., MC-PDFT, srDFT 
  Lee Huntington         : MR-EOM, pCC                                   
  Robert Izsak           : Overlap fitted RIJCOSX, COSX-SCS-MP3, EOM     
  Riya Kayal             : Wick's Theorem for AUTO-CI, AUTO-CI UHF-CCSDT 
  Emily Kempfer          : AUTO-CI RHF CISDT and CCSDT, approximate NEVPT4
  Christian Kollmar      : KDIIS, OOCD, Brueckner-CCSD(T), CCSD density, CASPT2, CASPT2-K, improved NEVPT2 
  Axel Koslowski         : Symmetry handling                             
  Simone Kossmann        : meta-GGA functionals, TD-DFT gradient, OOMP2, (MP2 Hessian; deprecated post 5.0) 
  Lucas Lang             : DCDCAS, Hyperfine gauge corrections, ICE-SOC+SSC
  Marvin Lechner         : AUTO-CI (C++ implementation), FIC-MRCC        
  Spencer Leger          : CASSCF response                               
  Dagmar Lenk            : GEPOL surface, SMD, ORCA-2-JSON               
  Dimitrios Liakos       : Extrapolation schemes; Compound Job, Property file
  Dimitrios Manganas     : Further ROCIS development; embedding schemes. LFT, Crystal Embedding 
  Dimitrios Pantazis     : SARC Basis sets                               
  Anastasios Papadopoulos: AUTO-CI, single reference methods and gradients 
  Taras Petrenko         : pre 6.0 DFT Hessian and TD-DFT gradient,  ECA, NRVS 
  Petra Pikulova         : Analytic Raman intensities                    
  Peter Pinski           : DLPNO-MP2, DLPNO-MP2 Gradient                 
  Shashank Vittal Rao    : ES-AILFT, MagRelax                            
  Christoph Reimann      : Effective Core Potentials                     
  Marius Retegan         : Local ZFS, SOC                                
  Christoph Riplinger    : Optimizer, TS searches, QM/MM, DLPNO-CCSD(T), (RO)-DLPNO pert. Triples 
  Michael Roemelt        : Original ROCIS implementation, recursive CI coupling coefficients
  Masaaki Saitow         : Open-shell DLPNO-CCSD energy and density      
  Barbara Sandhoefer     : DKH picture change effects                    
  Yorick L. A. Schmerwitz: GMF and freeze-and-release deltaSCF, NEB S-IDPP initial path                    
  Kantharuban Sivalingam : CASSCF convergence/infrastructure, NEVPT2, NEVPT3, NEVPT4(SD), FIC-MRCI and CEPA variants
  Bernardo de Souza      : ESD, SOC TD-DFT                               
  Georgi L. Stoychev     : AutoAux, RI-MP2 NMR, DLPNO-MP2 response, X2C  
  Van Anh Tran           : RI-MP2 g-tensors                              
  Willem Van den Heuvel  : Paramagnetic NMR                              
  Zikuan Wang            : NOTCH, Electric field optimization            
  Frank Wennmohs         : Technical directorship and infrastructure     
  Hang Xu                : AUTO-CI-Response properties                   
                                                                         
[FACCTs GmbH]                                                            
  Markus Bursch, Nicolas Foglia, Miquel Garcia-Rates, Ingolf Harden, Hagen Neugebauer, Anastasios Papadopoulos, 
  Christoph Riplinger, Bernardo de Souza, Georgi L. Stoychev                                                    
                                                                 
  APM, various basis sets, CI-OPT, improved COSX, DLPNO-Multilevel,           
  DOCKER, DRACO, updates on ESD, Fragmentator, GOAT, IRC, LR-CPCM, L-BFGS, MBIS, meta-GGA TD-DFT gradient, ML-optimized integration grids, 
  MM, NACMEs, nearIR, NEB, NEB-TS, NL-DFT gradient (VV10), 2- and 3-layer-ONIOM, interface openCOSMO-RS, QMMM,   
  Crystal-QMMM, RESP, rigid body optimization, SF, symmetry and pop. for TD-DFT, various functionals, SOLVATOR                                   
                                                                         
[Other institutions]                                                     
  V. Asgeirsson          : NEB                                           
  Christoph Bannwarth    : sTDA-DFT, sTD-DFT, PBEh-3c, B97-3c, D3        
  Giovanni Bistoni       : ETS/NOCV, ADLD/ADEX, COVALED                  
  Martin Brehm           : Molecular dynamics                            
  Ronald Cardenas        : ETS/NOCV                                      
  Martina Colucci        : COVALED                                       
  Sebastian Ehlert       : rSCAN, r2SCAN, r2SCAN-3c, D4, dhf basis sets  
  Marvin Friede          : D4 for Fr, Ra, Ac-Lr                          
  Lars Goerigk           : TD-DFT with DH, B97 family of functionals     
  Stefan Grimme          : VdW corrections, initial TS optimization, DFT functionals, gCP, sTDA/sTD-DF 
  Waldemar Hujo          : DFT-NL                                        
  H. Jonsson             : NEB                                           
  Holger Kruse           : gCP                                           
  Marcel Mueller         : wB97X-3c, vDZP basis set                      
  Hagen Neugebauer       : wr2SCAN, Native XTB                           
  Gianluca Regni         : ADLD/ADEX                                     
  Tobias Risthaus        : pre 6.0 range-separated hybrid DFT and stability analysis
  Lukas Wittmann         : regularized MP2, r2SCAN double-hybrids, wr2SCAN        
                                                                         
We gratefully acknowledge several colleagues who have allowed us to      
interface, adapt or use parts of their codes:                            
  Ed Valeev, F. Pavosevic, A. Kumar             : LibInt (2-el integral package), F12 methods 
  Garnet Chan, S. Sharma, J. Yang, R. Olivares  : DMRG                   
  Ulf Ekstrom                                   : XCFun DFT Library      
  Mihaly Kallay                                 : mrcc  (arbitrary order and MRCC methods)
  Frank Weinhold                                : gennbo (NPA and NBO analysis)           
  Simon Mueller                                 : openCOSMO-RS                            
  Christopher J. Cramer and Donald G. Truhlar   : smd solvation model                     
  S Lehtola, MJT Oliveira, MAL Marques          : LibXC Library                           
  Liviu Ungur et al                             : ANISO software                          


 Your calculation uses the libint2 library for the computation of 2-el integrals
 For citations please refer to: http://libint.valeyev.net

 Your ORCA version has been built with support for libXC version: 7.0.0
 For citations please refer to: https://libxc.gitlab.io

 This ORCA versions uses:
   CBLAS   interface :  Fast vector & matrix operations
   LAPACKE interface :  Fast linear algebra routines
   SCALAPACK package :  Parallel linear algebra routines
   Shared memory     :  Shared parallel matrices
   BLAS/LAPACK       :  OpenBLAS 0.3.29  USE64BITINT DYNAMIC_ARCH NO_AFFINITY SkylakeX SINGLE_THREADED
        Core in use  :  SkylakeX
   Copyright (c) 2011-2014, The OpenBLAS Project


  ***********************************
  * Starting time: Thu Mar 12 12:47:37 2026
  * Host name:     midway3-login4.rcc.local
  * Process ID:    2798942
  * Working dir.:  /home/rzhu16/orca_TS_search/sn2_br_f/geo_opt_reactant_product
  ***********************************

Your calculation utilizes the semiempirical GFN2-xTB method
Please cite in your paper:
Bannwarth, C.; Ehlert S.; Grimme, S. J. Chem. Theory Comput. 2019, 15, 1652.
   

================================================================================

================================================================================
                                        WARNINGS
                       Please study these warnings very carefully!
================================================================================


WARNING: Analytical Hessian for XTB is limited in the analysis of the data.
       : If you want to obtain extensive IR and deltaG analysis, please use ! XTB NumFreq. 


WARNING: Geometry Optimization
  ===> : Switching off AutoStart
         For restart on a previous wavefunction, please use MOREAD

WARNING: Found dipole moment calculation with XTB calculation
  ===> : Switching off dipole moment calculation


WARNING: Found frequency calculation in combination with XTB calculation
  ===> : Need to redirect dipole moment calculation to properties.out


================================================================================
                                       INPUT FILE
================================================================================
NAME = reactant_optfreq.inp
|  1> ! XTB2 Opt Freq PAL8
|  2> 
|  3> * xyz -1 1
|  4>   C      -0.352293      0.207123      0.308143
|  5>   H      -0.452816      1.288436      0.267091
|  6>   H       0.279689     -0.150217     -0.540630
|  7>   H      -1.332718     -0.258721      0.259936
|  8>   Br      0.344277     -0.197280      2.089021
|  9>   F       0.609651     -0.350930     -2.157165
| 10> *
| 11> 
| 12>                          ****END OF INPUT****
================================================================================

                       *****************************
                       * Geometry Optimization Run *
                       *****************************

Geometry optimization settings:
Update method            Update   .... BFGS
Choice of coordinates    CoordSys .... (2022) Redundant Internals
Initial Hessian          InHess   .... Almloef's Model
Max. no of cycles        MaxIter  .... 50

Convergence Tolerances:
Energy Change            TolE     ....  5.0000e-06 Eh
Max. Gradient            TolMAXG  ....  3.0000e-04 Eh/bohr
RMS Gradient             TolRMSG  ....  1.0000e-04 Eh/bohr
Max. Displacement        TolMAXD  ....  4.0000e-03 bohr
RMS Displacement         TolRMSD  ....  2.0000e-03 bohr
Strict Convergence                .... False

------------------------------------------------------------------------------
                        ORCA OPTIMIZATION COORDINATE SETUP
------------------------------------------------------------------------------

The optimization will be done in redundant internal coordinates (2022)
Making redundant internal coordinates   ...  (2022 redundants) done
Evaluating the initial hessian          ...  (Almloef) done
Evaluating the coordinates              ...  done
Calculating the B-matrix                .... done
Calculating the G-matrix                .... done
The number of degrees of freedom        ....   15

    -----------------------------------------------------------------
                    Redundant Internal Coordinates


    -----------------------------------------------------------------
         Definition                    Initial Value    Approx d2E/dq
    -----------------------------------------------------------------
      1. B(H   1,C   0)                  1.0868         0.364424   
      2. B(H   2,C   0)                  1.1169         0.326193   
      3. B(H   3,C   0)                  1.0865         0.364707   
      4. B(Br  4,C   0)                  1.9546         0.263951   
      5. B(F   5,H   2)                  1.6620         0.036645   
      6. A(H   1,C   0,H   3)          109.9655         0.291969   
      7. A(H   1,C   0,H   2)          109.9966         0.286906   
      8. A(H   1,C   0,Br  4)          105.8578         0.325647   
      9. A(H   2,C   0,Br  4)          115.1224         0.319785   
     10. A(H   3,C   0,Br  4)          105.8604         0.325689   
     11. A(H   2,C   0,H   3)          109.8575         0.286941   
     12. A(C   0,H   2,F   5)          152.8847         0.204372   
     13. D(F   5,H   2,C   0,H   3)     59.4126         0.095630   
     14. D(F   5,H   2,C   0,Br  4)    178.7716         0.095630   
     15. D(F   5,H   2,C   0,H   1)    -61.7694         0.095630   
    -----------------------------------------------------------------

Number of atoms                         .... 6
Number of degrees of freedom            .... 15


         *************************************************************
         *                GEOMETRY OPTIMIZATION CYCLE   1            *
         *************************************************************
---------------------------------
CARTESIAN COORDINATES (ANGSTROEM)
---------------------------------
  C    -0.352293    0.207123    0.308143
  H    -0.452816    1.288436    0.267091
  H     0.279689   -0.150217   -0.540630
  H    -1.332718   -0.258721    0.259936
  Br    0.344277   -0.197280    2.089021
  F     0.609651   -0.350930   -2.157165

----------------------------
CARTESIAN COORDINATES (A.U.)
----------------------------
  NO LB    ZA    FRAG    MASS        X           Y           Z
   0 C   6.0000    0    12.011   -0.665737    0.391406    0.582306
   1 H   1.0000    0     1.008   -0.855698    2.434791    0.504729
   2 H   1.0000    0     1.008    0.528536   -0.283869   -1.021643
   3 H   1.0000    0     1.008   -2.518472   -0.488912    0.491208
   4 Br 35.0000    0    79.900    0.650589   -0.372805    3.947678
   5 F   9.0000    0    18.998    1.152073   -0.663162   -4.076451

      -----------------------------------------------------------      
     |                   =====================                   |     
     |                           x T B                           |     
     |                   =====================                   |     
     |                         S. Grimme                         |     
     |          Mulliken Center for Theoretical Chemistry        |     
     |                    University of Bonn                     |     
      -----------------------------------------------------------      

   * xtb version 6.7.1 (edcfbbe) compiled by 'albert@albert-system' on 2024-07-22

   xtb is free software: you can redistribute it and/or modify it under
   the terms of the GNU Lesser General Public License as published by
   the Free Software Foundation, either version 3 of the License, or
   (at your option) any later version.
   
   xtb is distributed in the hope that it will be useful,
   but WITHOUT ANY WARRANTY; without even the implied warranty of
   MERCHANTABILITY or FITNESS FOR A PARTICULAR PURPOSE.  See the
   GNU Lesser General Public License for more details.
   
   Cite this work as:
   * C. Bannwarth, E. Caldeweyher, S. Ehlert, A. Hansen, P. Pracht,
     J. Seibert, S. Spicher, S. Grimme, WIREs Comput. Mol. Sci., 2020, 11,
     e01493. DOI: 10.1002/wcms.1493
   
   for GFN2-xTB:
   * C. Bannwarth, S. Ehlert and S. Grimme., J. Chem. Theory Comput., 2019,
     15, 1652-1671. DOI: 10.1021/acs.jctc.8b01176
   for GFN1-xTB:
   * S. Grimme, C. Bannwarth, P. Shushkov, J. Chem. Theory Comput., 2017,
     13, 1989-2009. DOI: 10.1021/acs.jctc.7b00118
   for GFN0-xTB:
   * P. Pracht, E. Caldeweyher, S. Ehlert, S. Grimme, ChemRxiv, 2019, preprint.
     DOI: 10.26434/chemrxiv.8326202.v1
   for GFN-FF:
   * S. Spicher and S. Grimme, Angew. Chem. Int. Ed., 2020, 59, 15665-15673.
     DOI: 10.1002/anie.202004239
   
   for ALPB and GBSA implicit solvation:
   * S. Ehlert, M. Stahn, S. Spicher, S. Grimme, J. Chem. Theory Comput.,
     2021, 17, 4250-4261. DOI: 10.1021/acs.jctc.1c00471
   
   for ddCOSMO and CPCM-X implicit solvation:
   * M. Stahn, S. Ehlert, S. Grimme, J. Phys. Chem. A,
     2023, XX, XXXX-XXXX. DOI: 10.1021/acs.jpca.3c04382
   
   for DFT-D4:
   * E. Caldeweyher, C. Bannwarth and S. Grimme, J. Chem. Phys., 2017,
     147, 034112. DOI: 10.1063/1.4993215
   * E. Caldeweyher, S. Ehlert, A. Hansen, H. Neugebauer, S. Spicher,
     C. Bannwarth and S. Grimme, J. Chem. Phys., 2019, 150, 154122.
     DOI: 10.1063/1.5090222
   * E. Caldeweyher, J.-M. Mewes, S. Ehlert and S. Grimme, Phys. Chem. Chem. Phys.
     2020, 22, 8499-8512. DOI: 10.1039/D0CP00502A
   
   for sTDA-xTB:
   * S. Grimme and C. Bannwarth, J. Chem. Phys., 2016, 145, 054103.
     DOI: 10.1063/1.4959605
   
   in the mass-spec context:
   * V. Asgeirsson, C. Bauer and S. Grimme, Chem. Sci., 2017, 8, 4879.
     DOI: 10.1039/c7sc00601b
   * J. Koopman and S. Grimme, ACS Omega 2019, 4, 12, 15120-15133.
     DOI: 10.1021/acsomega.9b02011
   
   for metadynamics refer to:
   * S. Grimme, J. Chem. Theory Comput., 2019, 155, 2847-2862
     DOI: 10.1021/acs.jctc.9b00143
   
   for SPH calculations refer to:
   * S. Spicher and S. Grimme, J. Chem. Theory Comput., 2021, 17, 1701-1714
     DOI: 10.1021/acs.jctc.0c01306
   
   for ONIOM refer to:
   * C. Plett, A. Katbashev, S. Ehlert, S. Grimme, M. Bursch,
     Phys. Chem. Chem. Phys., 2023, 25, 17860-17868. DOI: 10.1039/D3CP02178E
   
   for DIPRO refer to:
   * J. Kohn, N. Gildemeister, S. Grimme, D. Fazzi, A. Hansen,
     J. Chem. Phys., 2023, just accepted.
   
   for PTB refer to:
   * S. Grimme, M. Mueller, A. Hansen, J. Chem. Phys., 2023, 158, 124111.
     DOI: 10.1063/5.0137838
   
   with help from (in alphabetical order)
   P. Atkinson, C. Bannwarth, F. Bohle, G. Brandenburg, E. Caldeweyher
   M. Checinski, S. Dohm, S. Ehlert, S. Ehrlich, I. Gerasimov, C. Hölzer
   A. Katbashev, J. Kohn, J. Koopman, C. Lavigne, S. Lehtola, F. März, M. Müller,
   F. Musil, H. Neugebauer, J. Pisarek, C. Plett, P. Pracht, F. Pultar,
   J. Seibert, P. Shushkov, S. Spicher, M. Stahn, M. Steiner, T. Strunk,
   J. Stückrath, T. Rose, and J. Unsleber
   
 * started run on 2026/03/12 at 12:47:38.302     
   ID    Z sym.   atoms
    1    6 C      1
    2    1 H      2-4
    3   35 Br     5
    4    9 F      6

           -------------------------------------------------
          |                Calculation Setup                |
           -------------------------------------------------

          program call               : /software/orca-6.1.0-el8-x86_64/bin/otool_xtb reactant_optfreq_XTB.xyz --grad -c -1 -u 0 -P 8 --namespace reactant_optfreq --input reactant_optfreq_XTB.input.tmp --acc 0.200000
          hostname                   : midway3-login4.rcc.local
          calculation namespace      : reactant_optfreq
          coordinate file            : reactant_optfreq_XTB.xyz
          omp threads                :                     8


molecular fragmentation (1/2 indicates fragments):
111112
# atoms in fragment 1/2:     5     1
 fragment masses (1/2) :       94.94       19.00
CMA distance (Bohr)    :   7.518
constraining FC (au)   :  0.0500

           -------------------------------------------------
          |                 G F N 2 - x T B                 |
           -------------------------------------------------

        Reference                      10.1021/acs.jctc.8b01176
      * Hamiltonian:
        H0-scaling (s, p, d)           1.850000    2.230000    2.230000
        zeta-weighting                 0.500000
      * Dispersion:
        s8                             2.700000
        a1                             0.520000
        a2                             5.000000
        s9                             5.000000
      * Repulsion:
        kExp                           1.500000    1.000000
        rExp                           1.000000
      * Coulomb:
        alpha                          2.000000
        third order                    shell-resolved
        anisotropic                    true
        a3                             3.000000
        a5                             4.000000
        cn-shift                       1.200000
        cn-exp                         4.000000
        max-rad                        5.000000


          ...................................................
          :                      SETUP                      :
          :.................................................:
          :  # basis functions                  21          :
          :  # atomic orbitals                  20          :
          :  # shells                           10          :
          :  # electrons                        22          :
          :  max. iterations                   250          :
          :  Hamiltonian                  GFN2-xTB          :
          :  restarted?                      false          :
          :  GBSA solvation                  false          :
          :  PC potential                    false          :
          :  electronic temp.          300.0000000     K    :
          :  accuracy                    0.2000000          :
          :  -> integral cutoff          0.3198970E+02      :
          :  -> integral neglect         0.2000000E-08      :
          :  -> SCF convergence          0.2000000E-06 Eh   :
          :  -> wf. convergence          0.2000000E-04 e    :
          :  Broyden damping             0.4000000          :
          :  net charge                         -1          :
          :  unpaired electrons                  0          :
          ...................................................

 iter      E             dE          RMSdq      gap      omega  full diag
   1    -12.7097474 -0.127097E+02  0.615E+00    5.03       0.0  T
   2    -12.7350748 -0.253274E-01  0.374E+00    2.71       1.0  T
   3    -12.7388630 -0.378824E-02  0.184E+00    1.41       1.0  T
   4    -12.7406645 -0.180146E-02  0.122E+00    1.40       1.0  T
   5    -12.7415346 -0.870101E-03  0.626E-01    1.53       1.0  T
   6    -12.7417159 -0.181337E-03  0.397E-01    1.23       1.0  T
   7    -12.7420194 -0.303485E-03  0.606E-02    1.38       1.0  T
   8    -12.7420208 -0.139215E-05  0.288E-02    1.39       1.4  T
   9    -12.7420211 -0.329352E-06  0.113E-02    1.38       3.6  T
  10    -12.7420212 -0.815575E-07  0.499E-03    1.39       8.2  T
  11    -12.7420212 -0.344290E-07  0.120E-03    1.38      34.0  T
  12    -12.7420212  0.813154E-09  0.763E-04    1.38      53.5  T
  13    -12.7420212 -0.252937E-08  0.985E-05    1.38     414.6  T
  14    -12.7420212 -0.483613E-10  0.239E-05    1.38    1707.8  T

   *** convergence criteria satisfied after 14 iterations ***

         #    Occupation            Energy/Eh            Energy/eV
      -------------------------------------------------------------
         1        2.0000           -0.6952952             -18.9199
       ...           ...                  ...                  ...
         5        2.0000           -0.3328126              -9.0563
         6        2.0000           -0.3202421              -8.7142
         7        2.0000           -0.2615314              -7.1166
         8        2.0000           -0.2583624              -7.0304
         9        2.0000           -0.1130619              -3.0766
        10        2.0000           -0.1102889              -3.0011
        11        2.0000           -0.1102467              -3.0000 (HOMO)
        12                         -0.0594177              -1.6168 (LUMO)
        13                          0.1877997               5.1103
        14                          0.1883082               5.1241
        15                          0.2064453               5.6177
        16                          0.2065905               5.6216
       ...                                ...                  ...
        20                          0.5306853              14.4407
      -------------------------------------------------------------
                  HL-Gap            0.0508290 Eh            1.3831 eV
             Fermi-level           -0.0845139 Eh           -2.2997 eV

 SCC (total)                   0 d,  0 h,  0 min,  0.142 sec
 SCC setup                      ...        0 min,  0.000 sec (  0.136%)
 Dispersion                     ...        0 min,  0.000 sec (  0.042%)
 classical contributions        ...        0 min,  0.000 sec (  0.029%)
 integral evaluation            ...        0 min,  0.140 sec ( 97.956%)
 iterations                     ...        0 min,  0.002 sec (  1.448%)
 molecular gradient             ...        0 min,  0.000 sec (  0.286%)
 printout                       ...        0 min,  0.000 sec (  0.090%)

         :::::::::::::::::::::::::::::::::::::::::::::::::::::
         ::                     SUMMARY                     ::
         :::::::::::::::::::::::::::::::::::::::::::::::::::::
         :: total energy             -12.689092588571 Eh    ::
         :: gradient norm              0.001925959219 Eh/a0 ::
         :: HOMO-LUMO gap              1.383128320402 eV    ::
         ::.................................................::
         :: SCC energy               -12.742021065917 Eh    ::
         :: -> isotropic ES            0.227324531434 Eh    ::
         :: -> anisotropic ES         -0.007120331685 Eh    ::
         :: -> anisotropic XC         -0.009069240560 Eh    ::
         :: -> dispersion             -0.002268442911 Eh    ::
         :: repulsion energy           0.052928477346 Eh    ::
         :: add. restraining           0.000000000000 Eh    ::
         :: total charge              -0.999999999995 e     ::
         :::::::::::::::::::::::::::::::::::::::::::::::::::::


Property printout bound to 'properties.out'

           -------------------------------------------------
          | TOTAL ENERGY              -12.689092588571 Eh   |
          | GRADIENT NORM               0.001925959219 Eh/α |
          | HOMO-LUMO GAP               1.383128320402 eV   |
           -------------------------------------------------

------------------------------------------------------------------------
 * finished run on 2026/03/12 at 12:47:38.467     
------------------------------------------------------------------------
 total:
 * wall-time:     0 d,  0 h,  0 min,  0.165 sec
 *  cpu-time:     0 d,  0 h,  0 min,  0.748 sec
 * ratio c/w:     4.539 speedup
 SCF:
 * wall-time:     0 d,  0 h,  0 min,  0.143 sec
 *  cpu-time:     0 d,  0 h,  0 min,  0.685 sec
 * ratio c/w:     4.803 speedup


-------------------------   --------------------
FINAL SINGLE POINT ENERGY       -12.689092588570
-------------------------   --------------------


-------------
DIPOLE MOMENT
-------------
                                X             Y             Z
Total Dipole Moment    :     -1.51500       0.87400       1.24000
                        -----------------------------------------
Magnitude (a.u.)       :      2.14399
Magnitude (Debye)      :      5.44959


------------------
CARTESIAN GRADIENT
------------------

   1   C   :   -0.000114859    0.000014440   -0.000052364
   2   H   :    0.000288727   -0.000349446    0.000247065
   3   H   :    0.000175583   -0.000011775    0.000099249
   4   H   :    0.000585849   -0.000065321    0.000176698
   5   Br  :   -0.000688268    0.000359515    0.000820523
   6   F   :   -0.000247032    0.000052587   -0.001291171

Difference to translation invariance:
           :   -0.0000000000   -0.0000000000    0.0000000000

Difference to rotation invariance:
           :   -0.0000000020   -0.0000000044   -0.0000000002

Norm of the Cartesian gradient     ...    0.0019259592
RMS gradient                       ...    0.0004539529
MAX gradient                       ...    0.0012911706
------------------------------------------------------------------------------
                         ORCA GEOMETRY RELAXATION STEP
------------------------------------------------------------------------------

Reading the OPT-File                    .... done
Getting information on internals        .... done
Copying old internal coords+grads       .... done
Making the new internal coordinates     .... (2022 redundants) done
Validating the new internal coordinates .... (2022 redundants) done
Calculating the B-matrix                .... done
Calculating the G,G- and P matrices     .... done
Transforming gradient to internals      .... done
Projecting the internal gradient        .... done
Number of atoms                         ....   6
Number of internal coordinates          ....  15
Current Energy                          ....   -12.689092589 Eh
Current gradient norm                   ....     0.001925959 Eh/bohr
Maximum allowed component of the step   ....  0.300
Current trust radius                    ....  0.300
Evaluating the initial hessian          ....  (Almloef) done
Projecting the Hessian                  .... done
Forming the augmented Hessian           .... done
Diagonalizing the augmented Hessian     .... done
Last element of RFO vector              ....  0.999373261
Lowest eigenvalues of augmented Hessian:
 -0.000090522  0.036684059  0.095629618  0.204385837  0.219878821
Length of the computed step             ....  0.035421133
The final length of the internal step   ....  0.035421133
Converting the step to Cartesian space:
 Initial RMS(Int)=    0.0091456971
Transforming coordinates:
 Iter   0:  RMS(Cart)=    0.0117661743 RMS(Int)=    0.0091226557
done
Storing new coordinates                 .... done

                                .--------------------.
          ----------------------|Geometry convergence|-------------------------
          Item                value                   Tolerance       Converged
          ---------------------------------------------------------------------
          RMS gradient        0.0010370536            0.0001000000      NO
          MAX gradient        0.0028052371            0.0003000000      NO
          RMS step            0.0091456971            0.0020000000      NO
          MAX step            0.0326778583            0.0040000000      NO
          -------------------------------------------------------------------------
          ........................................................
          Max(Bonds)      0.0173      Max(Angles)    0.52
          Max(Dihed)        0.07      Max(Improp)    0.00
          ---------------------------------------------------------------------

The optimization has not yet converged - more geometry cycles are needed


    ---------------------------------------------------------------------------
                         Redundant Internal Coordinates
                            (Angstroem and degrees)

        Definition                    Value    dE/dq     Step     New-Value
    ----------------------------------------------------------------------------
     1. B(H   1,C   0)                1.0868 -0.000384  0.0006    1.0873   
     2. B(H   2,C   0)                1.1169  0.000852 -0.0014    1.1155   
     3. B(H   3,C   0)                1.0865 -0.000508  0.0007    1.0873   
     4. B(Br  4,C   0)                1.9546  0.000428 -0.0009    1.9537   
     5. B(F   5,H   2)                1.6620  0.001200 -0.0173    1.6447   
     6. A(H   1,C   0,H   3)          109.97  0.000147   -0.01    109.96   
     7. A(H   1,C   0,H   2)          110.00 -0.000403    0.08    110.08   
     8. A(H   1,C   0,Br  4)          105.86 -0.001003    0.16    106.02   
     9. A(H   2,C   0,Br  4)          115.12  0.002805   -0.52    114.61   
    10. A(H   3,C   0,Br  4)          105.86 -0.001008    0.17    106.03   
    11. A(H   2,C   0,H   3)          109.86 -0.000600    0.12    109.98   
    12. A(C   0,H   2,F   5)          152.88 -0.001681    0.47    153.36   
    13. D(F   5,H   2,C   0,H   3)     59.41 -0.000233    0.07     59.48   
    14. D(F   5,H   2,C   0,Br  4)    178.77 -0.000082    0.03    178.80   
    15. D(F   5,H   2,C   0,H   1)    -61.77  0.000230   -0.05    -61.82   
    ----------------------------------------------------------------------------

Geometry step timings:
Preparation and reading OPT file:      0.000 s ( 4.379 %)
Internal coordinates            :      0.000 s ( 4.307 %)
B/P matrices and projection     :      0.000 s (10.625 %)
Hessian update/contruction      :      0.000 s (33.453 %)
Making the step                 :      0.000 s (11.558 %)
Converting the step to Cartesian:      0.000 s ( 4.738 %)
Storing new data                :      0.000 s ( 6.676 %)
Checking convergence            :      0.000 s ( 5.097 %)
Final printing                  :      0.000 s (18.665 %)
Total time                      :      0.001 s

Time for energy+gradient        :      0.174 s
Time for complete geometry iter :      0.177 s

         *************************************************************
         *                GEOMETRY OPTIMIZATION CYCLE   2            *
         *************************************************************
---------------------------------
CARTESIAN COORDINATES (ANGSTROEM)
---------------------------------
  C    -0.355611    0.208775    0.305009
  H    -0.456022    1.290724    0.265728
  H     0.275804   -0.148243   -0.542502
  H    -1.337041   -0.256899    0.259037
  Br    0.354268   -0.202777    2.078036
  F     0.614392   -0.353168   -2.138913

----------------------------
CARTESIAN COORDINATES (A.U.)
----------------------------
  NO LB    ZA    FRAG    MASS        X           Y           Z
   0 C   6.0000    0    12.011   -0.672008    0.394528    0.576384
   1 H   1.0000    0     1.008   -0.861757    2.439115    0.502153
   2 H   1.0000    0     1.008    0.521194   -0.280139   -1.025180
   3 H   1.0000    0     1.008   -2.526642   -0.485469    0.489510
   4 Br 35.0000    0    79.900    0.669469   -0.383194    3.926919
   5 F   9.0000    0    18.998    1.161033   -0.667391   -4.041960

      -----------------------------------------------------------      
     |                   =====================                   |     
     |                           x T B                           |     
     |                   =====================                   |     
     |                         S. Grimme                         |     
     |          Mulliken Center for Theoretical Chemistry        |     
     |                    University of Bonn                     |     
      -----------------------------------------------------------      

   * xtb version 6.7.1 (edcfbbe) compiled by 'albert@albert-system' on 2024-07-22

   xtb is free software: you can redistribute it and/or modify it under
   the terms of the GNU Lesser General Public License as published by
   the Free Software Foundation, either version 3 of the License, or
   (at your option) any later version.
   
   xtb is distributed in the hope that it will be useful,
   but WITHOUT ANY WARRANTY; without even the implied warranty of
   MERCHANTABILITY or FITNESS FOR A PARTICULAR PURPOSE.  See the
   GNU Lesser General Public License for more details.
   
   Cite this work as:
   * C. Bannwarth, E. Caldeweyher, S. Ehlert, A. Hansen, P. Pracht,
     J. Seibert, S. Spicher, S. Grimme, WIREs Comput. Mol. Sci., 2020, 11,
     e01493. DOI: 10.1002/wcms.1493
   
   for GFN2-xTB:
   * C. Bannwarth, S. Ehlert and S. Grimme., J. Chem. Theory Comput., 2019,
     15, 1652-1671. DOI: 10.1021/acs.jctc.8b01176
   for GFN1-xTB:
   * S. Grimme, C. Bannwarth, P. Shushkov, J. Chem. Theory Comput., 2017,
     13, 1989-2009. DOI: 10.1021/acs.jctc.7b00118
   for GFN0-xTB:
   * P. Pracht, E. Caldeweyher, S. Ehlert, S. Grimme, ChemRxiv, 2019, preprint.
     DOI: 10.26434/chemrxiv.8326202.v1
   for GFN-FF:
   * S. Spicher and S. Grimme, Angew. Chem. Int. Ed., 2020, 59, 15665-15673.
     DOI: 10.1002/anie.202004239
   
   for ALPB and GBSA implicit solvation:
   * S. Ehlert, M. Stahn, S. Spicher, S. Grimme, J. Chem. Theory Comput.,
     2021, 17, 4250-4261. DOI: 10.1021/acs.jctc.1c00471
   
   for ddCOSMO and CPCM-X implicit solvation:
   * M. Stahn, S. Ehlert, S. Grimme, J. Phys. Chem. A,
     2023, XX, XXXX-XXXX. DOI: 10.1021/acs.jpca.3c04382
   
   for DFT-D4:
   * E. Caldeweyher, C. Bannwarth and S. Grimme, J. Chem. Phys., 2017,
     147, 034112. DOI: 10.1063/1.4993215
   * E. Caldeweyher, S. Ehlert, A. Hansen, H. Neugebauer, S. Spicher,
     C. Bannwarth and S. Grimme, J. Chem. Phys., 2019, 150, 154122.
     DOI: 10.1063/1.5090222
   * E. Caldeweyher, J.-M. Mewes, S. Ehlert and S. Grimme, Phys. Chem. Chem. Phys.
     2020, 22, 8499-8512. DOI: 10.1039/D0CP00502A
   
   for sTDA-xTB:
   * S. Grimme and C. Bannwarth, J. Chem. Phys., 2016, 145, 054103.
     DOI: 10.1063/1.4959605
   
   in the mass-spec context:
   * V. Asgeirsson, C. Bauer and S. Grimme, Chem. Sci., 2017, 8, 4879.
     DOI: 10.1039/c7sc00601b
   * J. Koopman and S. Grimme, ACS Omega 2019, 4, 12, 15120-15133.
     DOI: 10.1021/acsomega.9b02011
   
   for metadynamics refer to:
   * S. Grimme, J. Chem. Theory Comput., 2019, 155, 2847-2862
     DOI: 10.1021/acs.jctc.9b00143
   
   for SPH calculations refer to:
   * S. Spicher and S. Grimme, J. Chem. Theory Comput., 2021, 17, 1701-1714
     DOI: 10.1021/acs.jctc.0c01306
   
   for ONIOM refer to:
   * C. Plett, A. Katbashev, S. Ehlert, S. Grimme, M. Bursch,
     Phys. Chem. Chem. Phys., 2023, 25, 17860-17868. DOI: 10.1039/D3CP02178E
   
   for DIPRO refer to:
   * J. Kohn, N. Gildemeister, S. Grimme, D. Fazzi, A. Hansen,
     J. Chem. Phys., 2023, just accepted.
   
   for PTB refer to:
   * S. Grimme, M. Mueller, A. Hansen, J. Chem. Phys., 2023, 158, 124111.
     DOI: 10.1063/5.0137838
   
   with help from (in alphabetical order)
   P. Atkinson, C. Bannwarth, F. Bohle, G. Brandenburg, E. Caldeweyher
   M. Checinski, S. Dohm, S. Ehlert, S. Ehrlich, I. Gerasimov, C. Hölzer
   A. Katbashev, J. Kohn, J. Koopman, C. Lavigne, S. Lehtola, F. März, M. Müller,
   F. Musil, H. Neugebauer, J. Pisarek, C. Plett, P. Pracht, F. Pultar,
   J. Seibert, P. Shushkov, S. Spicher, M. Stahn, M. Steiner, T. Strunk,
   J. Stückrath, T. Rose, and J. Unsleber
   
 * started run on 2026/03/12 at 12:47:38.479     
   ID    Z sym.   atoms
    1    6 C      1
    2    1 H      2-4
    3   35 Br     5
    4    9 F      6

           -------------------------------------------------
          |                Calculation Setup                |
           -------------------------------------------------

          program call               : /software/orca-6.1.0-el8-x86_64/bin/otool_xtb reactant_optfreq_XTB.xyz --grad -c -1 -u 0 -P 8 --namespace reactant_optfreq --input reactant_optfreq_XTB.input.tmp --acc 0.200000
          hostname                   : midway3-login4.rcc.local
          calculation namespace      : reactant_optfreq
          coordinate file            : reactant_optfreq_XTB.xyz
          omp threads                :                     8


molecular fragmentation (1/2 indicates fragments):
111112
# atoms in fragment 1/2:     5     1
 fragment masses (1/2) :       94.94       19.00
CMA distance (Bohr)    :   7.465
constraining FC (au)   :  0.0500

           -------------------------------------------------
          |                 G F N 2 - x T B                 |
           -------------------------------------------------

        Reference                      10.1021/acs.jctc.8b01176
      * Hamiltonian:
        H0-scaling (s, p, d)           1.850000    2.230000    2.230000
        zeta-weighting                 0.500000
      * Dispersion:
        s8                             2.700000
        a1                             0.520000
        a2                             5.000000
        s9                             5.000000
      * Repulsion:
        kExp                           1.500000    1.000000
        rExp                           1.000000
      * Coulomb:
        alpha                          2.000000
        third order                    shell-resolved
        anisotropic                    true
        a3                             3.000000
        a5                             4.000000
        cn-shift                       1.200000
        cn-exp                         4.000000
        max-rad                        5.000000

q/qsh data taken from xtbrestart
CAMM data taken from xtbrestart

          ...................................................
          :                      SETUP                      :
          :.................................................:
          :  # basis functions                  21          :
          :  # atomic orbitals                  20          :
          :  # shells                           10          :
          :  # electrons                        22          :
          :  max. iterations                   250          :
          :  Hamiltonian                  GFN2-xTB          :
          :  restarted?                       true          :
          :  GBSA solvation                  false          :
          :  PC potential                    false          :
          :  electronic temp.          300.0000000     K    :
          :  accuracy                    0.2000000          :
          :  -> integral cutoff          0.3198970E+02      :
          :  -> integral neglect         0.2000000E-08      :
          :  -> SCF convergence          0.2000000E-06 Eh   :
          :  -> wf. convergence          0.2000000E-04 e    :
          :  Broyden damping             0.4000000          :
          :  net charge                         -1          :
          :  unpaired electrons                  0          :
          ...................................................

 iter      E             dE          RMSdq      gap      omega  full diag
   1    -12.7420872 -0.127421E+02  0.566E-02    1.42       0.0  T
   2    -12.7420882 -0.100122E-05  0.299E-02    1.43       1.4  T
   3    -12.7420883 -0.711379E-07  0.916E-03    1.43       4.5  T
   4    -12.7420884 -0.649850E-07  0.603E-03    1.43       6.8  T
   5    -12.7420884 -0.161648E-07  0.371E-03    1.43      11.0  T
   6    -12.7420884 -0.888895E-08  0.162E-03    1.43      25.2  T
   7    -12.7420884 -0.130805E-08  0.165E-04    1.43     247.0  T
   8    -12.7420884 -0.126565E-10  0.940E-05    1.43     434.3  T

   *** convergence criteria satisfied after 8 iterations ***

         #    Occupation            Energy/Eh            Energy/eV
      -------------------------------------------------------------
         1        2.0000           -0.6946463             -18.9023
       ...           ...                  ...                  ...
         5        2.0000           -0.3322250              -9.0403
         6        2.0000           -0.3190886              -8.6828
         7        2.0000           -0.2608797              -7.0989
         8        2.0000           -0.2575542              -7.0084
         9        2.0000           -0.1135062              -3.0887
        10        2.0000           -0.1108644              -3.0168
        11        2.0000           -0.1108239              -3.0157 (HOMO)
        12                         -0.0582419              -1.5848 (LUMO)
        13                          0.1884525               5.1281
        14                          0.1890598               5.1446
        15                          0.2070983               5.6354
        16                          0.2075424               5.6475
       ...                                ...                  ...
        20                          0.5319997              14.4764
      -------------------------------------------------------------
                  HL-Gap            0.0525820 Eh            1.4308 eV
             Fermi-level           -0.0842126 Eh           -2.2915 eV

 SCC (total)                   0 d,  0 h,  0 min,  0.084 sec
 SCC setup                      ...        0 min,  0.000 sec (  0.217%)
 Dispersion                     ...        0 min,  0.000 sec (  0.073%)
 classical contributions        ...        0 min,  0.000 sec (  0.045%)
 integral evaluation            ...        0 min,  0.082 sec ( 97.160%)
 iterations                     ...        0 min,  0.001 sec (  1.724%)
 molecular gradient             ...        0 min,  0.000 sec (  0.578%)
 printout                       ...        0 min,  0.000 sec (  0.181%)

         :::::::::::::::::::::::::::::::::::::::::::::::::::::
         ::                     SUMMARY                     ::
         :::::::::::::::::::::::::::::::::::::::::::::::::::::
         :: total energy             -12.689155085813 Eh    ::
         :: gradient norm              0.002083846851 Eh/a0 ::
         :: HOMO-LUMO gap              1.430828683285 eV    ::
         ::.................................................::
         :: SCC energy               -12.742088219481 Eh    ::
         :: -> isotropic ES            0.226888647477 Eh    ::
         :: -> anisotropic ES         -0.007129800433 Eh    ::
         :: -> anisotropic XC         -0.009128659224 Eh    ::
         :: -> dispersion             -0.002278202404 Eh    ::
         :: repulsion energy           0.052933133668 Eh    ::
         :: add. restraining           0.000000000000 Eh    ::
         :: total charge              -0.999999999998 e     ::
         :::::::::::::::::::::::::::::::::::::::::::::::::::::


Property printout bound to 'properties.out'

           -------------------------------------------------
          | TOTAL ENERGY              -12.689155085813 Eh   |
          | GRADIENT NORM               0.002083846851 Eh/α |
          | HOMO-LUMO GAP               1.430828683285 eV   |
           -------------------------------------------------

------------------------------------------------------------------------
 * finished run on 2026/03/12 at 12:47:38.591     
------------------------------------------------------------------------
 total:
 * wall-time:     0 d,  0 h,  0 min,  0.111 sec
 *  cpu-time:     0 d,  0 h,  0 min,  0.475 sec
 * ratio c/w:     4.269 speedup
 SCF:
 * wall-time:     0 d,  0 h,  0 min,  0.084 sec
 *  cpu-time:     0 d,  0 h,  0 min,  0.414 sec
 * ratio c/w:     4.912 speedup


-------------------------   --------------------
FINAL SINGLE POINT ENERGY       -12.689155085810
-------------------------   --------------------


-------------
DIPOLE MOMENT
-------------
                                X             Y             Z
Total Dipole Moment    :     -1.53100       0.88200       1.21300
                        -----------------------------------------
Magnitude (a.u.)       :      2.14319
Magnitude (Debye)      :      5.44755


------------------
CARTESIAN GRADIENT
------------------

   1   C   :    0.000573783   -0.000327732   -0.001395559
   2   H   :    0.000233543   -0.000031796    0.000047119
   3   H   :   -0.000096509    0.000175280    0.000973943
   4   H   :    0.000157553   -0.000206344   -0.000011197
   5   Br  :   -0.000317991    0.000158906    0.000571629
   6   F   :   -0.000550379    0.000231686   -0.000185934

Difference to translation invariance:
           :   -0.0000000000    0.0000000000    0.0000000000

Difference to rotation invariance:
           :    0.0000000076    0.0000000043   -0.0000000008

Norm of the Cartesian gradient     ...    0.0020838469
RMS gradient                       ...    0.0004911674
MAX gradient                       ...    0.0013955591
------------------------------------------------------------------------------
                         ORCA GEOMETRY RELAXATION STEP
------------------------------------------------------------------------------

Reading the OPT-File                    .... done
Getting information on internals        .... done
Copying old internal coords+grads       .... done
Making the new internal coordinates     .... (2022 redundants) done
Validating the new internal coordinates .... (2022 redundants) done
Calculating the B-matrix                .... done
Calculating the G,G- and P matrices     .... done
Transforming gradient to internals      .... done
Projecting the internal gradient        .... done
Number of atoms                         ....   6
Number of internal coordinates          ....  15
Current Energy                          ....   -12.689155086 Eh
Current gradient norm                   ....     0.002083847 Eh/bohr
Maximum allowed component of the step   ....  0.300
Current trust radius                    ....  0.300
Updating the Hessian (BFGS)             .... done
Forming the augmented Hessian           .... done
Diagonalizing the augmented Hessian     .... done
Last element of RFO vector              ....  0.999458891
Lowest eigenvalues of augmented Hessian:
 -0.000072814  0.032821155  0.095561610  0.136669736  0.219865147
Length of the computed step             ....  0.032910436
The final length of the internal step   ....  0.032910436
Converting the step to Cartesian space:
 Initial RMS(Int)=    0.0084974380
Transforming coordinates:
 Iter   0:  RMS(Cart)=    0.0167241704 RMS(Int)=    0.0084267527
done
Storing new coordinates                 .... done
The predicted energy change is          ....    -0.000036446
Previously predicted energy change      ....    -0.000045318
Actually observed energy change         ....    -0.000062497
Ratio of predicted to observed change   ....     1.379095900
New trust radius                        ....     0.300000000

                                .--------------------.
          ----------------------|Geometry convergence|-------------------------
          Item                value                   Tolerance       Converged
          ---------------------------------------------------------------------
          Energy change      -0.0000624972            0.0000050000      NO
          RMS gradient        0.0007506041            0.0001000000      NO
          MAX gradient        0.0019312445            0.0003000000      NO
          RMS step            0.0084974380            0.0020000000      NO
          MAX step            0.0206171188            0.0040000000      NO
          -------------------------------------------------------------------------
          ........................................................
          Max(Bonds)      0.0109      Max(Angles)    1.14
          Max(Dihed)        0.12      Max(Improp)    0.00
          ---------------------------------------------------------------------

The optimization has not yet converged - more geometry cycles are needed


    ---------------------------------------------------------------------------
                         Redundant Internal Coordinates
                            (Angstroem and degrees)

        Definition                    Value    dE/dq     Step     New-Value
    ----------------------------------------------------------------------------
     1. B(H   1,C   0)                1.0873 -0.000055  0.0005    1.0878   
     2. B(H   2,C   0)                1.1155 -0.001095  0.0020    1.1176   
     3. B(H   3,C   0)                1.0873 -0.000053  0.0006    1.0878   
     4. B(Br  4,C   0)                1.9537  0.000370 -0.0017    1.9520   
     5. B(F   5,H   2)                1.6447  0.000038 -0.0109    1.6338   
     6. A(H   1,C   0,H   3)          109.96  0.000211   -0.05    109.90   
     7. A(H   1,C   0,H   2)          110.08 -0.000354    0.16    110.24   
     8. A(H   1,C   0,Br  4)          106.02 -0.000480    0.21    106.23   
     9. A(H   2,C   0,Br  4)          114.61  0.001573   -0.76    113.84   
    10. A(H   3,C   0,Br  4)          106.03 -0.000480    0.22    106.25   
    11. A(H   2,C   0,H   3)          109.98 -0.000480    0.23    110.21   
    12. A(C   0,H   2,F   5)          153.36 -0.001931    1.14    154.49   
    13. D(F   5,H   2,C   0,H   3)     59.48 -0.000151    0.12     59.60   
    14. D(F   5,H   2,C   0,Br  4)    178.80 -0.000059    0.06    178.86   
    15. D(F   5,H   2,C   0,H   1)    -61.82  0.000127   -0.07    -61.89   
    ----------------------------------------------------------------------------

Geometry step timings:
Preparation and reading OPT file:      0.000 s ( 2.955 %)
Internal coordinates            :      0.000 s ( 3.908 %)
B/P matrices and projection     :      0.000 s (13.155 %)
Hessian update/contruction      :      0.000 s (31.554 %)
Making the step                 :      0.000 s ( 8.389 %)
Converting the step to Cartesian:      0.000 s ( 3.241 %)
Storing new data                :      0.000 s ( 7.626 %)
Checking convergence            :      0.000 s ( 7.531 %)
Final printing                  :      0.000 s (21.640 %)
Total time                      :      0.001 s

Time for energy+gradient        :      0.121 s
Time for complete geometry iter :      0.123 s

         *************************************************************
         *                GEOMETRY OPTIMIZATION CYCLE   3            *
         *************************************************************
---------------------------------
CARTESIAN COORDINATES (ANGSTROEM)
---------------------------------
  C    -0.362974    0.212554    0.303603
  H    -0.463593    1.295093    0.268873
  H     0.268333   -0.144460   -0.546659
  H    -1.345701   -0.252177    0.263029
  Br    0.369567   -0.211198    2.062630
  F     0.630158   -0.361401   -2.125080

----------------------------
CARTESIAN COORDINATES (A.U.)
----------------------------
  NO LB    ZA    FRAG    MASS        X           Y           Z
   0 C   6.0000    0    12.011   -0.685921    0.401669    0.573726
   1 H   1.0000    0     1.008   -0.876064    2.447371    0.508097
   2 H   1.0000    0     1.008    0.507076   -0.272990   -1.033035
   3 H   1.0000    0     1.008   -2.543006   -0.476546    0.497053
   4 Br 35.0000    0    79.900    0.698381   -0.399106    3.897806
   5 F   9.0000    0    18.998    1.190826   -0.682949   -4.015819

      -----------------------------------------------------------      
     |                   =====================                   |     
     |                           x T B                           |     
     |                   =====================                   |     
     |                         S. Grimme                         |     
     |          Mulliken Center for Theoretical Chemistry        |     
     |                    University of Bonn                     |     
      -----------------------------------------------------------      

   * xtb version 6.7.1 (edcfbbe) compiled by 'albert@albert-system' on 2024-07-22

   xtb is free software: you can redistribute it and/or modify it under
   the terms of the GNU Lesser General Public License as published by
   the Free Software Foundation, either version 3 of the License, or
   (at your option) any later version.
   
   xtb is distributed in the hope that it will be useful,
   but WITHOUT ANY WARRANTY; without even the implied warranty of
   MERCHANTABILITY or FITNESS FOR A PARTICULAR PURPOSE.  See the
   GNU Lesser General Public License for more details.
   
   Cite this work as:
   * C. Bannwarth, E. Caldeweyher, S. Ehlert, A. Hansen, P. Pracht,
     J. Seibert, S. Spicher, S. Grimme, WIREs Comput. Mol. Sci., 2020, 11,
     e01493. DOI: 10.1002/wcms.1493
   
   for GFN2-xTB:
   * C. Bannwarth, S. Ehlert and S. Grimme., J. Chem. Theory Comput., 2019,
     15, 1652-1671. DOI: 10.1021/acs.jctc.8b01176
   for GFN1-xTB:
   * S. Grimme, C. Bannwarth, P. Shushkov, J. Chem. Theory Comput., 2017,
     13, 1989-2009. DOI: 10.1021/acs.jctc.7b00118
   for GFN0-xTB:
   * P. Pracht, E. Caldeweyher, S. Ehlert, S. Grimme, ChemRxiv, 2019, preprint.
     DOI: 10.26434/chemrxiv.8326202.v1
   for GFN-FF:
   * S. Spicher and S. Grimme, Angew. Chem. Int. Ed., 2020, 59, 15665-15673.
     DOI: 10.1002/anie.202004239
   
   for ALPB and GBSA implicit solvation:
   * S. Ehlert, M. Stahn, S. Spicher, S. Grimme, J. Chem. Theory Comput.,
     2021, 17, 4250-4261. DOI: 10.1021/acs.jctc.1c00471
   
   for ddCOSMO and CPCM-X implicit solvation:
   * M. Stahn, S. Ehlert, S. Grimme, J. Phys. Chem. A,
     2023, XX, XXXX-XXXX. DOI: 10.1021/acs.jpca.3c04382
   
   for DFT-D4:
   * E. Caldeweyher, C. Bannwarth and S. Grimme, J. Chem. Phys., 2017,
     147, 034112. DOI: 10.1063/1.4993215
   * E. Caldeweyher, S. Ehlert, A. Hansen, H. Neugebauer, S. Spicher,
     C. Bannwarth and S. Grimme, J. Chem. Phys., 2019, 150, 154122.
     DOI: 10.1063/1.5090222
   * E. Caldeweyher, J.-M. Mewes, S. Ehlert and S. Grimme, Phys. Chem. Chem. Phys.
     2020, 22, 8499-8512. DOI: 10.1039/D0CP00502A
   
   for sTDA-xTB:
   * S. Grimme and C. Bannwarth, J. Chem. Phys., 2016, 145, 054103.
     DOI: 10.1063/1.4959605
   
   in the mass-spec context:
   * V. Asgeirsson, C. Bauer and S. Grimme, Chem. Sci., 2017, 8, 4879.
     DOI: 10.1039/c7sc00601b
   * J. Koopman and S. Grimme, ACS Omega 2019, 4, 12, 15120-15133.
     DOI: 10.1021/acsomega.9b02011
   
   for metadynamics refer to:
   * S. Grimme, J. Chem. Theory Comput., 2019, 155, 2847-2862
     DOI: 10.1021/acs.jctc.9b00143
   
   for SPH calculations refer to:
   * S. Spicher and S. Grimme, J. Chem. Theory Comput., 2021, 17, 1701-1714
     DOI: 10.1021/acs.jctc.0c01306
   
   for ONIOM refer to:
   * C. Plett, A. Katbashev, S. Ehlert, S. Grimme, M. Bursch,
     Phys. Chem. Chem. Phys., 2023, 25, 17860-17868. DOI: 10.1039/D3CP02178E
   
   for DIPRO refer to:
   * J. Kohn, N. Gildemeister, S. Grimme, D. Fazzi, A. Hansen,
     J. Chem. Phys., 2023, just accepted.
   
   for PTB refer to:
   * S. Grimme, M. Mueller, A. Hansen, J. Chem. Phys., 2023, 158, 124111.
     DOI: 10.1063/5.0137838
   
   with help from (in alphabetical order)
   P. Atkinson, C. Bannwarth, F. Bohle, G. Brandenburg, E. Caldeweyher
   M. Checinski, S. Dohm, S. Ehlert, S. Ehrlich, I. Gerasimov, C. Hölzer
   A. Katbashev, J. Kohn, J. Koopman, C. Lavigne, S. Lehtola, F. März, M. Müller,
   F. Musil, H. Neugebauer, J. Pisarek, C. Plett, P. Pracht, F. Pultar,
   J. Seibert, P. Shushkov, S. Spicher, M. Stahn, M. Steiner, T. Strunk,
   J. Stückrath, T. Rose, and J. Unsleber
   
 * started run on 2026/03/12 at 12:47:38.602     
   ID    Z sym.   atoms
    1    6 C      1
    2    1 H      2-4
    3   35 Br     5
    4    9 F      6

           -------------------------------------------------
          |                Calculation Setup                |
           -------------------------------------------------

          program call               : /software/orca-6.1.0-el8-x86_64/bin/otool_xtb reactant_optfreq_XTB.xyz --grad -c -1 -u 0 -P 8 --namespace reactant_optfreq --input reactant_optfreq_XTB.input.tmp --acc 0.200000
          hostname                   : midway3-login4.rcc.local
          calculation namespace      : reactant_optfreq
          coordinate file            : reactant_optfreq_XTB.xyz
          omp threads                :                     8


molecular fragmentation (1/2 indicates fragments):
111112
# atoms in fragment 1/2:     5     1
 fragment masses (1/2) :       94.94       19.00
CMA distance (Bohr)    :   7.415
constraining FC (au)   :  0.0500

           -------------------------------------------------
          |                 G F N 2 - x T B                 |
           -------------------------------------------------

        Reference                      10.1021/acs.jctc.8b01176
      * Hamiltonian:
        H0-scaling (s, p, d)           1.850000    2.230000    2.230000
        zeta-weighting                 0.500000
      * Dispersion:
        s8                             2.700000
        a1                             0.520000
        a2                             5.000000
        s9                             5.000000
      * Repulsion:
        kExp                           1.500000    1.000000
        rExp                           1.000000
      * Coulomb:
        alpha                          2.000000
        third order                    shell-resolved
        anisotropic                    true
        a3                             3.000000
        a5                             4.000000
        cn-shift                       1.200000
        cn-exp                         4.000000
        max-rad                        5.000000

q/qsh data taken from xtbrestart
CAMM data taken from xtbrestart

          ...................................................
          :                      SETUP                      :
          :.................................................:
          :  # basis functions                  21          :
          :  # atomic orbitals                  20          :
          :  # shells                           10          :
          :  # electrons                        22          :
          :  max. iterations                   250          :
          :  Hamiltonian                  GFN2-xTB          :
          :  restarted?                       true          :
          :  GBSA solvation                  false          :
          :  PC potential                    false          :
          :  electronic temp.          300.0000000     K    :
          :  accuracy                    0.2000000          :
          :  -> integral cutoff          0.3198970E+02      :
          :  -> integral neglect         0.2000000E-08      :
          :  -> SCF convergence          0.2000000E-06 Eh   :
          :  -> wf. convergence          0.2000000E-04 e    :
          :  Broyden damping             0.4000000          :
          :  net charge                         -1          :
          :  unpaired electrons                  0          :
          ...................................................

 iter      E             dE          RMSdq      gap      omega  full diag
   1    -12.7418468 -0.127418E+02  0.882E-02    1.46       0.0  T
   2    -12.7418478 -0.983940E-06  0.500E-02    1.46       1.0  T
   3    -12.7418479 -0.105229E-06  0.119E-02    1.45       3.4  T
   4    -12.7418480 -0.131715E-06  0.799E-03    1.45       5.1  T
   5    -12.7418480 -0.299868E-07  0.457E-03    1.45       8.9  T
   6    -12.7418480 -0.173156E-07  0.170E-03    1.45      24.0  T
   7    -12.7418480 -0.129550E-08  0.234E-04    1.45     174.7  T
   8    -12.7418480 -0.316724E-10  0.160E-04    1.45     254.7  T
   9    -12.7418480 -0.257820E-10  0.893E-05    1.45     456.9  T

   *** convergence criteria satisfied after 9 iterations ***

         #    Occupation            Energy/Eh            Energy/eV
      -------------------------------------------------------------
         1        2.0000           -0.6943115             -18.8932
       ...           ...                  ...                  ...
         5        2.0000           -0.3322219              -9.0402
         6        2.0000           -0.3183000              -8.6614
         7        2.0000           -0.2605717              -7.0905
         8        2.0000           -0.2570142              -6.9937
         9        2.0000           -0.1133998              -3.0858
        10        2.0000           -0.1107771              -3.0144
        11        2.0000           -0.1107430              -3.0135 (HOMO)
        12                         -0.0573446              -1.5604 (LUMO)
        13                          0.1887382               5.1358
        14                          0.1894055               5.1540
        15                          0.2071925               5.6380
        16                          0.2083561               5.6697
       ...                                ...                  ...
        20                          0.5338491              14.5268
      -------------------------------------------------------------
                  HL-Gap            0.0533984 Eh            1.4530 eV
             Fermi-level           -0.0837218 Eh           -2.2782 eV

 SCC (total)                   0 d,  0 h,  0 min,  0.082 sec
 SCC setup                      ...        0 min,  0.000 sec (  0.207%)
 Dispersion                     ...        0 min,  0.000 sec (  0.067%)
 classical contributions        ...        0 min,  0.000 sec (  0.030%)
 integral evaluation            ...        0 min,  0.080 sec ( 97.440%)
 iterations                     ...        0 min,  0.001 sec (  1.515%)
 molecular gradient             ...        0 min,  0.000 sec (  0.581%)
 printout                       ...        0 min,  0.000 sec (  0.138%)

         :::::::::::::::::::::::::::::::::::::::::::::::::::::
         ::                     SUMMARY                     ::
         :::::::::::::::::::::::::::::::::::::::::::::::::::::
         :: total energy             -12.689208599106 Eh    ::
         :: gradient norm              0.002100975412 Eh/a0 ::
         :: HOMO-LUMO gap              1.453045746763 eV    ::
         ::.................................................::
         :: SCC energy               -12.741847838226 Eh    ::
         :: -> isotropic ES            0.226891962443 Eh    ::
         :: -> anisotropic ES         -0.007120902528 Eh    ::
         :: -> anisotropic XC         -0.009200989246 Eh    ::
         :: -> dispersion             -0.002286490234 Eh    ::
         :: repulsion energy           0.052639239120 Eh    ::
         :: add. restraining           0.000000000000 Eh    ::
         :: total charge              -0.999999999999 e     ::
         :::::::::::::::::::::::::::::::::::::::::::::::::::::


Property printout bound to 'properties.out'

           -------------------------------------------------
          | TOTAL ENERGY              -12.689208599106 Eh   |
          | GRADIENT NORM               0.002100975412 Eh/α |
          | HOMO-LUMO GAP               1.453045746763 eV   |
           -------------------------------------------------

------------------------------------------------------------------------
 * finished run on 2026/03/12 at 12:47:38.750     
------------------------------------------------------------------------
 total:
 * wall-time:     0 d,  0 h,  0 min,  0.148 sec
 *  cpu-time:     0 d,  0 h,  0 min,  0.457 sec
 * ratio c/w:     3.087 speedup
 SCF:
 * wall-time:     0 d,  0 h,  0 min,  0.083 sec
 *  cpu-time:     0 d,  0 h,  0 min,  0.379 sec
 * ratio c/w:     4.588 speedup


-------------------------   --------------------
FINAL SINGLE POINT ENERGY       -12.689208599110
-------------------------   --------------------


-------------
DIPOLE MOMENT
-------------
                                X             Y             Z
Total Dipole Moment    :     -1.57300       0.90500       1.20800
                        -----------------------------------------
Magnitude (a.u.)       :      2.18005
Magnitude (Debye)      :      5.54125


------------------
CARTESIAN GRADIENT
------------------

   1   C   :    0.000211450   -0.000137670   -0.001395885
   2   H   :    0.000026727    0.000243356   -0.000099794
   3   H   :    0.000566865   -0.000153311    0.001100658
   4   H   :   -0.000280269   -0.000167071   -0.000131490
   5   Br  :    0.000116236   -0.000074155    0.000257852
   6   F   :   -0.000641009    0.000288852    0.000268659

Difference to translation invariance:
           :   -0.0000000000    0.0000000000    0.0000000000

Difference to rotation invariance:
           :   -0.0000000897   -0.0000001618    0.0000000004

Norm of the Cartesian gradient     ...    0.0021009754
RMS gradient                       ...    0.0004952047
MAX gradient                       ...    0.0013958850
------------------------------------------------------------------------------
                         ORCA GEOMETRY RELAXATION STEP
------------------------------------------------------------------------------

Reading the OPT-File                    .... done
Getting information on internals        .... done
Copying old internal coords+grads       .... done
Making the new internal coordinates     .... (2022 redundants) done
Validating the new internal coordinates .... (2022 redundants) done
Calculating the B-matrix                .... done
Calculating the G,G- and P matrices     .... done
Transforming gradient to internals      .... done
Projecting the internal gradient        .... done
Number of atoms                         ....   6
Number of internal coordinates          ....  15
Current Energy                          ....   -12.689208599 Eh
Current gradient norm                   ....     0.002100975 Eh/bohr
Maximum allowed component of the step   ....  0.300
Current trust radius                    ....  0.300
Updating the Hessian (BFGS)             .... done
Forming the augmented Hessian           .... done
Diagonalizing the augmented Hessian     .... done
Last element of RFO vector              ....  0.999256078
Lowest eigenvalues of augmented Hessian:
 -0.000066090  0.027600803  0.074772374  0.095895565  0.219955335
Length of the computed step             ....  0.038594128
The final length of the internal step   ....  0.038594128
Converting the step to Cartesian space:
 Initial RMS(Int)=    0.0099649611
Transforming coordinates:
 Iter   0:  RMS(Cart)=    0.0218048190 RMS(Int)=    0.0098891963
done
Storing new coordinates                 .... done
The predicted energy change is          ....    -0.000033094
Previously predicted energy change      ....    -0.000036446
Actually observed energy change         ....    -0.000053513
Ratio of predicted to observed change   ....     1.468270335
New trust radius                        ....     0.300000000

                                .--------------------.
          ----------------------|Geometry convergence|-------------------------
          Item                value                   Tolerance       Converged
          ---------------------------------------------------------------------
          Energy change      -0.0000535133            0.0000050000      NO
          RMS gradient        0.0005948031            0.0001000000      NO
          MAX gradient        0.0018770642            0.0003000000      NO
          RMS step            0.0099649611            0.0020000000      NO
          MAX step            0.0325544373            0.0040000000      NO
          -------------------------------------------------------------------------
          ........................................................
          Max(Bonds)      0.0060      Max(Angles)    1.87
          Max(Dihed)        0.16      Max(Improp)    0.00
          ---------------------------------------------------------------------

The optimization has not yet converged - more geometry cycles are needed


    ---------------------------------------------------------------------------
                         Redundant Internal Coordinates
                            (Angstroem and degrees)

        Definition                    Value    dE/dq     Step     New-Value
    ----------------------------------------------------------------------------
     1. B(H   1,C   0)                1.0878  0.000243 -0.0000    1.0877   
     2. B(H   2,C   0)                1.1176 -0.001127  0.0033    1.1209   
     3. B(H   3,C   0)                1.0878  0.000329 -0.0001    1.0877   
     4. B(Br  4,C   0)                1.9520  0.000292 -0.0025    1.9495   
     5. B(F   5,H   2)                1.6338 -0.000440 -0.0060    1.6278   
     6. A(H   1,C   0,H   3)          109.90  0.000075   -0.05    109.85   
     7. A(H   1,C   0,H   2)          110.24 -0.000128    0.18    110.42   
     8. A(H   1,C   0,Br  4)          106.23  0.000083    0.19    106.42   
     9. A(H   2,C   0,Br  4)          113.84  0.000046   -0.76    113.09   
    10. A(H   3,C   0,Br  4)          106.25  0.000091    0.19    106.45   
    11. A(H   2,C   0,H   3)          110.21 -0.000148    0.25    110.46   
    12. A(C   0,H   2,F   5)          154.49 -0.001877    1.87    156.36   
    13. D(F   5,H   2,C   0,H   3)     59.60 -0.000069    0.16     59.76   
    14. D(F   5,H   2,C   0,Br  4)    178.86 -0.000027    0.08    178.94   
    15. D(F   5,H   2,C   0,H   1)    -61.89  0.000018   -0.06    -61.95   
    ----------------------------------------------------------------------------

Geometry step timings:
Preparation and reading OPT file:      0.000 s ( 3.094 %)
Internal coordinates            :      0.000 s ( 3.453 %)
B/P matrices and projection     :      0.000 s (12.230 %)
Hessian update/contruction      :      0.000 s (35.324 %)
Making the step                 :      0.000 s ( 7.122 %)
Converting the step to Cartesian:      0.000 s ( 3.237 %)
Storing new data                :      0.000 s ( 8.201 %)
Checking convergence            :      0.000 s ( 6.691 %)
Final printing                  :      0.000 s (20.576 %)
Total time                      :      0.001 s

Time for energy+gradient        :      0.159 s
Time for complete geometry iter :      0.162 s

         *************************************************************
         *                GEOMETRY OPTIMIZATION CYCLE   4            *
         *************************************************************
---------------------------------
CARTESIAN COORDINATES (ANGSTROEM)
---------------------------------
  C    -0.372715    0.217614    0.303241
  H    -0.473500    1.300312    0.275883
  H     0.256320   -0.138311   -0.553532
  H    -1.356299   -0.245752    0.271128
  Br    0.387646   -0.221192    2.043884
  F     0.654339   -0.374261   -2.114208

----------------------------
CARTESIAN COORDINATES (A.U.)
----------------------------
  NO LB    ZA    FRAG    MASS        X           Y           Z
   0 C   6.0000    0    12.011   -0.704330    0.411232    0.573043
   1 H   1.0000    0     1.008   -0.894786    2.457234    0.521343
   2 H   1.0000    0     1.008    0.484374   -0.261369   -1.046024
   3 H   1.0000    0     1.008   -2.563034   -0.464404    0.512357
   4 Br 35.0000    0    79.900    0.732545   -0.417993    3.862381
   5 F   9.0000    0    18.998    1.236521   -0.707251   -3.995274

      -----------------------------------------------------------      
     |                   =====================                   |     
     |                           x T B                           |     
     |                   =====================                   |     
     |                         S. Grimme                         |     
     |          Mulliken Center for Theoretical Chemistry        |     
     |                    University of Bonn                     |     
      -----------------------------------------------------------      

   * xtb version 6.7.1 (edcfbbe) compiled by 'albert@albert-system' on 2024-07-22

   xtb is free software: you can redistribute it and/or modify it under
   the terms of the GNU Lesser General Public License as published by
   the Free Software Foundation, either version 3 of the License, or
   (at your option) any later version.
   
   xtb is distributed in the hope that it will be useful,
   but WITHOUT ANY WARRANTY; without even the implied warranty of
   MERCHANTABILITY or FITNESS FOR A PARTICULAR PURPOSE.  See the
   GNU Lesser General Public License for more details.
   
   Cite this work as:
   * C. Bannwarth, E. Caldeweyher, S. Ehlert, A. Hansen, P. Pracht,
     J. Seibert, S. Spicher, S. Grimme, WIREs Comput. Mol. Sci., 2020, 11,
     e01493. DOI: 10.1002/wcms.1493
   
   for GFN2-xTB:
   * C. Bannwarth, S. Ehlert and S. Grimme., J. Chem. Theory Comput., 2019,
     15, 1652-1671. DOI: 10.1021/acs.jctc.8b01176
[...]
             Fermi-level           -0.0828994 Eh           -2.2558 eV

 SCC (total)                   0 d,  0 h,  0 min,  0.077 sec
 SCC setup                      ...        0 min,  0.000 sec (  0.230%)
 Dispersion                     ...        0 min,  0.000 sec (  0.070%)
 classical contributions        ...        0 min,  0.000 sec (  0.036%)
 integral evaluation            ...        0 min,  0.075 sec ( 97.919%)
 iterations                     ...        0 min,  0.001 sec (  1.072%)
 molecular gradient             ...        0 min,  0.000 sec (  0.501%)
 printout                       ...        0 min,  0.000 sec (  0.151%)

         :::::::::::::::::::::::::::::::::::::::::::::::::::::
         ::                     SUMMARY                     ::
         :::::::::::::::::::::::::::::::::::::::::::::::::::::
         :: total energy             -12.689323092168 Eh    ::
         :: gradient norm              0.000229375212 Eh/a0 ::
         :: HOMO-LUMO gap              1.487320412801 eV    ::
         ::.................................................::
         :: SCC energy               -12.741490083471 Eh    ::
         :: -> isotropic ES            0.226631350249 Eh    ::
         :: -> anisotropic ES         -0.006987335009 Eh    ::
         :: -> anisotropic XC         -0.009364203647 Eh    ::
         :: -> dispersion             -0.002301408104 Eh    ::
         :: repulsion energy           0.052166991303 Eh    ::
         :: add. restraining           0.000000000000 Eh    ::
         :: total charge              -0.999999999999 e     ::
         :::::::::::::::::::::::::::::::::::::::::::::::::::::

           ------------------------------------------------- 
          |                Numerical Hessian                |
           ------------------------------------------------- 
step length          :   0.00500
SCC accuracy         :   0.30000
Hessian scale factor :   1.00000
frozen atoms in %    :   0.00000    0
RMS gradient         :   0.00023
estimated CPU  time      0.00 min
estimated wall time      0.00 min

writing file <hessian>.

 projected vibrational frequencies (cm⁻¹)
eigval :       -0.00    -0.00    -0.00    -0.00    -0.00     0.00
eigval :       93.47   293.51   323.22   556.71   945.38  1010.40
eigval :     1317.41  1394.81  1437.20  2423.32  3013.18  3020.03

Property printout bound to 'properties.out'
Molecule has the following symmetry elements: (sigma) 
It seems to be the Cs point group

           -------------------------------------------------
          | TOTAL ENERGY              -12.689323092168 Eh   |
          | TOTAL ENTHALPY            -12.647627710172 Eh   |
          | TOTAL FREE ENERGY         -12.682234789733 Eh   |
          | GRADIENT NORM               0.000229373639 Eh/α |
          | HOMO-LUMO GAP               1.487320549001 eV   |
           -------------------------------------------------

------------------------------------------------------------------------
 * finished run on 2026/03/12 at 12:47:39.652     
------------------------------------------------------------------------
 total:
 * wall-time:     0 d,  0 h,  0 min,  0.153 sec
 *  cpu-time:     0 d,  0 h,  0 min,  0.480 sec
 * ratio c/w:     3.138 speedup
 SCF:
 * wall-time:     0 d,  0 h,  0 min,  0.077 sec
 *  cpu-time:     0 d,  0 h,  0 min,  0.313 sec
 * ratio c/w:     4.055 speedup
 analytical hessian:
 * wall-time:     0 d,  0 h,  0 min,  0.010 sec
 *  cpu-time:     0 d,  0 h,  0 min,  0.080 sec
 * ratio c/w:     7.787 speedup


-------------------------   --------------------
FINAL SINGLE POINT ENERGY       -12.689323092170
-------------------------   --------------------


-------------
DIPOLE MOMENT
-------------
                                X             Y             Z
Total Dipole Moment    :     -1.71200       0.98000       1.21200
                        -----------------------------------------
Magnitude (a.u.)       :      2.31523
Magnitude (Debye)      :      5.88485


-----------------------
VIBRATIONAL FREQUENCIES
-----------------------

Scaling factor for frequencies =  1.000000000  (already applied!)

     0:       0.00 cm**-1
     1:       0.00 cm**-1
     2:       0.00 cm**-1
     3:       0.00 cm**-1
     4:       0.00 cm**-1
     5:       0.00 cm**-1
     6:      93.47 cm**-1
     7:     293.51 cm**-1
     8:     323.21 cm**-1
     9:     556.71 cm**-1
    10:     945.35 cm**-1
    11:    1010.38 cm**-1
    12:    1317.38 cm**-1
    13:    1394.77 cm**-1
    14:    1437.16 cm**-1
    15:    2423.25 cm**-1
    16:    3013.09 cm**-1
    17:    3019.94 cm**-1


------------
NORMAL MODES
------------

These modes are the Cartesian displacements weighted by the diagonal matrix
M(i,i)=1/sqrt(m[i]) where m[i] is the mass of the displaced atom
Thus, these vectors are normalized but *not* orthogonal

                  0          1          2          3          4          5    
      0       0.000000   0.000000   0.000000   0.000000   0.000000   0.000000
      1       0.000000   0.000000   0.000000   0.000000   0.000000   0.000000
      2       0.000000   0.000000   0.000000   0.000000   0.000000   0.000000
      3       0.000000   0.000000   0.000000   0.000000   0.000000   0.000000
      4       0.000000   0.000000   0.000000   0.000000   0.000000   0.000000
      5       0.000000   0.000000   0.000000   0.000000   0.000000   0.000000
      6       0.000000   0.000000   0.000000   0.000000   0.000000   0.000000
      7       0.000000   0.000000   0.000000   0.000000   0.000000   0.000000
      8       0.000000   0.000000   0.000000   0.000000   0.000000   0.000000
      9       0.000000   0.000000   0.000000   0.000000   0.000000   0.000000
     10       0.000000   0.000000   0.000000   0.000000   0.000000   0.000000
     11       0.000000   0.000000   0.000000   0.000000   0.000000   0.000000
     12       0.000000   0.000000   0.000000   0.000000   0.000000   0.000000
     13       0.000000   0.000000   0.000000   0.000000   0.000000   0.000000
     14       0.000000   0.000000   0.000000   0.000000   0.000000   0.000000
     15       0.000000   0.000000   0.000000   0.000000   0.000000   0.000000
     16       0.000000   0.000000   0.000000   0.000000   0.000000   0.000000
     17       0.000000   0.000000   0.000000   0.000000   0.000000   0.000000
                  6          7          8          9         10         11    
      0      -0.328058  -0.318373   0.049978   0.198903   0.082947   0.051097
      1       0.188628   0.180893   0.090147  -0.114715  -0.046473   0.090530
      2       0.138496   0.141651   0.000621   0.535836  -0.030818   0.000416
      3      -0.323416  -0.294398  -0.512725   0.159170  -0.040016  -0.351755
      4       0.191069   0.180495   0.040192  -0.108433  -0.035024   0.030903
      5       0.266626   0.292720   0.265476   0.376733   0.417272  -0.558079
      6      -0.414403  -0.439941   0.279446   0.157509  -0.453046  -0.170876
      7       0.237019   0.239886   0.492476  -0.090812   0.257566  -0.305430
      8       0.027704   0.033467   0.001796   0.505277  -0.599898   0.002636
      9      -0.329151  -0.316171   0.293259   0.173860   0.011813   0.203924
     10       0.185182   0.180772  -0.419379  -0.083308   0.046856  -0.290036
     11       0.266441   0.302459  -0.264646   0.376757   0.423275   0.552063
     12       0.035666   0.022047  -0.003398  -0.040392  -0.007079  -0.004084
     13      -0.020474  -0.012552  -0.006143   0.023284   0.003978  -0.007243
     14      -0.119903   0.054905   0.000182  -0.080292   0.000458  -0.000012
     15       0.114017   0.164298  -0.020489   0.018099   0.002863   0.001782
     16      -0.065687  -0.093470  -0.037169  -0.010406  -0.001643   0.003181
     17       0.386963  -0.353824  -0.001297  -0.067873   0.004791  -0.000035
                 12         13         14         15         16         17    
      0      -0.024416  -0.029298   0.062784  -0.044722   0.051073  -0.048268
      1       0.014073  -0.051569  -0.035828   0.025372  -0.034402  -0.078048
      2      -0.104205  -0.000021  -0.011208   0.060533  -0.001656  -0.000112
      3       0.078315   0.153206  -0.689008  -0.015004  -0.030120  -0.076835
      4       0.018359  -0.009463  -0.064765   0.044586   0.738514   0.661872
      5       0.555074  -0.410576   0.005966   0.009774  -0.010062  -0.001673
      6       0.403430   0.387140   0.140849   0.596681  -0.006098  -0.018461
      7      -0.229996   0.680595  -0.080896  -0.338369   0.001250  -0.032839
      8       0.376223   0.001073   0.102905  -0.720104   0.028456  -0.001545
      9       0.022514  -0.086919  -0.293833  -0.046011  -0.588279   0.673424
     10      -0.078427   0.126324   0.626353  -0.009742  -0.320507   0.304383
     11       0.556681   0.409544   0.007452   0.009824  -0.012216   0.005179
     12      -0.002237  -0.000826   0.001220   0.000135   0.000192  -0.000061
     13       0.001283  -0.001447  -0.000699  -0.000078  -0.000116  -0.000085
     14      -0.002807  -0.000002   0.000458   0.000167   0.000228  -0.000011
     15      -0.001910  -0.002062  -0.000152  -0.000715   0.000037   0.000098
     16       0.001097  -0.003623   0.000084   0.000391  -0.000008   0.000174
     17      -0.001263   0.000017  -0.001014  -0.001805  -0.000241   0.000012


The first frequency considered to be a vibration is 6
The total number of vibrations considered is 12


--------------------------
THERMOCHEMISTRY AT 298.15K
--------------------------

Temperature         ...   298.15 K
Pressure            ...     1.00 atm
Total Mass          ...   113.93 AMU
Quasi RRHO          ...     True
Cut-Off Frequency   ...     1.00 cm^-1

Throughout the following assumptions are being made:
  (1) The electronic state is orbitally nondegenerate
  (2) There are no thermally accessible electronically excited states
  (3) Hindered rotations indicated by low frequency modes are not
      treated as such but are treated as vibrations and this may
      cause some error
  (4) All equations used are the standard statistical mechanics
      equations for an ideal gas
  (5) All vibrations are strictly harmonic

freq.      93.47  E(vib)   ...       0.47 
freq.     293.51  E(vib)   ...       0.27 
freq.     323.21  E(vib)   ...       0.25 
freq.     556.71  E(vib)   ...       0.12 
freq.     945.35  E(vib)   ...       0.03 
freq.    1010.38  E(vib)   ...       0.02 
freq.    1317.38  E(vib)   ...       0.01 
freq.    1394.77  E(vib)   ...       0.00 
freq.    1437.16  E(vib)   ...       0.00 
freq.    2423.25  E(vib)   ...       0.00 
freq.    3013.09  E(vib)   ...       0.00 
freq.    3019.94  E(vib)   ...       0.00 

------------
INNER ENERGY
------------

The inner energy is: U= E(el) + E(ZPE) + E(vib) + E(rot) + E(trans)
    E(el)   - is the total energy from the electronic structure calculation
              = E(kin-el) + E(nuc-el) + E(el-el) + E(nuc-nuc)
    E(ZPE)  - the the zero temperature vibrational energy from the frequency calculation
    E(vib)  - the the finite temperature correction to E(ZPE) due to population
              of excited vibrational states
    E(rot)  - is the rotational thermal energy
    E(trans)- is the translational thermal energy

Summary of contributions to the inner energy U:
Electronic energy                ...    -12.68932309 Eh
Zero point energy                ...      0.03605932 Eh      22.63 kcal/mol
Thermal vibrational correction   ...      0.00185832 Eh       1.17 kcal/mol
Thermal rotational correction    ...      0.00141627 Eh       0.89 kcal/mol
Thermal translational correction ...      0.00141627 Eh       0.89 kcal/mol
-----------------------------------------------------------------------
Total thermal energy                    -12.64857291 Eh


Summary of corrections to the electronic energy:
(perhaps to be used in another calculation)
Total thermal correction                  0.00469087 Eh       2.94 kcal/mol
Non-thermal (ZPE) correction              0.03605932 Eh      22.63 kcal/mol
-----------------------------------------------------------------------
Total correction                          0.04075019 Eh      25.57 kcal/mol


--------
ENTHALPY
--------

The enthalpy is H = U + kB*T
                kB is Boltzmann's constant
Total thermal energy              ...    -12.64857291 Eh 
Thermal Enthalpy correction       ...      0.00094421 Eh       0.59 kcal/mol
-----------------------------------------------------------------------
Total Enthalpy                    ...    -12.64762870 Eh


WARNING (ORCA/SYM): The number of Z matrix atoms does not agree with
the number of centers in the basis set. The point group will therefore
be determined without considering basis set information.


Note: Only C1 symmetry has been detected, increase convergence thresholds 
      if your molecule has a higher symmetry. Symmetry factor of 1.0 is   
      used for the rotational entropy correction. 
 

Note: Rotational entropy computed according to Herzberg 
Infrared and Raman Spectra, Chapter V,1, Van Nostrand Reinhold, 1945 
Point Group:  C1, Symmetry Number:   1  
Rotational constants in cm-1:     0.962633     0.060873     0.057881 

Vibrational entropy computed according to the QRRHO of S. Grimme
Chem.Eur.J. 2012 18 9955 using a reference frequency of 100.0 cm-1


-------
ENTROPY
-------

The entropy contributions are T*S = T*(S(el)+S(vib)+S(rot)+S(trans))
     S(el)   - electronic entropy
     S(vib)  - vibrational entropy
     S(rot)  - rotational entropy
     S(trans)- translational entropy
The entropies will be listed as multiplied by the temperature to get
units of energy

Electronic entropy                ...      0.00000000 Eh      0.00 kcal/mol
Vibrational entropy               ...      0.00321262 Eh      2.02 kcal/mol
Rotational entropy                ...      0.01219532 Eh      7.65 kcal/mol
Translational entropy             ...      0.01905598 Eh     11.96 kcal/mol
-----------------------------------------------------------------------
Final entropy term                ...      0.03446392 Eh     21.63 kcal/mol

In case the symmetry of your molecule has not been determined correctly
or in case you have a reason to use a different symmetry number we print 
out the resulting rotational entropy values for sn=1,12:

 non-linear molecules -----------------------------------
|  sn= 1 | S(rot)=       0.01219532 Eh      7.65 kcal/mol|
|  sn= 2 | S(rot)=       0.01154086 Eh      7.24 kcal/mol|
|  sn= 3 | S(rot)=       0.01115803 Eh      7.00 kcal/mol|
|  sn= 4 | S(rot)=       0.01088640 Eh      6.83 kcal/mol|
|  sn= 5 | S(rot)=       0.01067572 Eh      6.70 kcal/mol|
|  sn= 6 | S(rot)=       0.01050357 Eh      6.59 kcal/mol|
|  sn= 7 | S(rot)=       0.01035803 Eh      6.50 kcal/mol|
|  sn= 8 | S(rot)=       0.01023195 Eh      6.42 kcal/mol|
|  sn= 9 | S(rot)=       0.01012074 Eh      6.35 kcal/mol|
|  sn=10 | S(rot)=       0.01002126 Eh      6.29 kcal/mol|
|  sn=11 | S(rot)=       0.00993127 Eh      6.23 kcal/mol|
|  sn=12 | S(rot)=       0.00984912 Eh      6.18 kcal/mol|
 linear molecules ---------------------------------------
|  Dinfh | S(rot)=       0.00801613 Eh      5.03 kcal/mol|
|  Cinfv | S(rot)=       0.00867059 Eh      5.44 kcal/mol|
 --------------------------------------------------------


-------------------
GIBBS FREE ENERGY
-------------------

The Gibbs free energy is G = H - T*S

Total enthalpy                    ...    -12.64762870 Eh 
Total entropy correction          ...     -0.03446392 Eh    -21.63 kcal/mol
-----------------------------------------------------------------------
Final Gibbs free energy         ...    -12.68209262 Eh

For completeness - the Gibbs free energy minus the electronic energy
G-E(el)                           ...      0.00723048 Eh      4.54 kcal/mol


--------------------------------
SUGGESTED CITATIONS FOR THIS RUN
--------------------------------

Below you find a list of papers that are relevant to this ORCA run
We neither can nor want to force you to cite these papers, but we appreciate if you do
You receive ORCA, which is the product of decades of hard work by many enthusiastic individuals, for free
The only thing we kindly ask in return is that you cite our papers,
We deeply appreciate it, if you show your appreciation for ORCA by not just citing the generic ORCA reference.

Please note that relegating all ORCA citations to the supporting information does *not* help us.
SI sections are not indexed - citations you put there will not count into any citation statistics
But we need these citations in order to attract the funding resources that allow us to do what we are doing

Therefore, if you are a happy ORCA user, please consider citing a few of the papers listed below in the main body of your paper

In addition to the list printed below, the program has created the file reactant_optfreq.bibtex that contains the list in bibtex format
You can import this file easily into all common literature databanks and citation aid programs


List of essential papers. We consider these as the minimum necessary citations

  1. Bannwarth, C.; Ehlert, S.; Grimme, S.
     GFN2-xTB—An Accurate and Broadly Parametrized Self-Consistent Tight-Binding Quantum Chemical Method with Multipole Electrostatics and Density-Dependent Dispersion Contributions
     J. Chem. Theory Comput. 2019 15(3), 1652-1671
     doi.org/10.1021/acs.jctc.8b01176
  2. Neese, F.
     Software update: the ORCA program system, version 6.0
     WIRES Comput. Molec. Sci. 2025 15(1), e70019
     doi.org/10.1002/wcms.7019

List of papers to cite with high priority. The work reported in these papers was absolutely
necessary for this run to complete.
Our perspective: the developers of density functionals and basis sets usually get cited in chemistry papers
Good! But without the algorithms to do something with them, the functionals or basis sets would not do anything.
Hence, in our opinion, the algorithm design and method developments papers are equally worthy of getting cited

  1. Bykov, D.; Petrenko, T.; Izsak, R.; Kossmann, S.; Becker, U.; Valeev, E.; Neese, F.
     Efficient implementation of the analytic second derivatives of Hartree-Fock and hybrid DFT energies: a detailed analysis of different approximations
     Molec. Phys. 2015 113 , 1961-1977
     doi.org/10.1080/00268976.2015.1025114
  2. Bannwarth, C.; Caldeweyher, E.; Ehlert, S.; Hansen, A.; Pracht, P.; Seibert, J.; Spicher, S.; Grimme, S.
     Extended tight-binding quantum chemistry methods
     WIRES Comput. Molec. Sci. 2020 11(2), e1493
     doi.org/10.1002/wcms.1493

List of suggested additional citations. These are papers that are important in the 'surrounding' of 
of this run, or papers that preceded the highly important papers. If you like your results we are grateful for a citation.

  1. Neese, F.
     The ORCA program system
     WIRES Comput. Molec. Sci. 2012 2(1), 73-78
     doi.org/10.1002/wcms.81
  2. Neese, F.
     Software update: the ORCA program system, version 4.0
     WIRES Comput. Molec. Sci. 2018 8(1), 1-6
     doi.org/10.1002/wcms.1327
  3. Neese, F.; Wennmohs, F.; Becker, U.; Riplinger, C.
     The ORCA quantum chemistry program package
     J. Chem. Phys. 2020 152(22), 224108
     doi.org/10.1063/5.0004608
  4. Neese, F.
     Software update: The ORCA program system—Version 5.0
     WIRES Comput. Molec. Sci. 2022 12(1), e1606
     doi.org/10.1002/wcms.1606

List of optional additional citations

  1. Neese, F.
     Approximate second-order SCF convergence for spin unrestricted wavefunctions
     Chem. Phys. Lett. 2000 325(1-3), 93-98
     doi.org/10.1016/s0009-2614(00)00662-x

Timings for individual modules:

Sum of individual times          ...        1.344 sec (=   0.022 min)
Geometry relaxation              ...        0.016 sec (=   0.000 min)   1.2 %
XTB module                       ...        1.328 sec (=   0.022 min)  98.8 %
                             ****ORCA TERMINATED NORMALLY****
TOTAL RUN TIME: 0 days 0 hours 0 minutes 1 seconds 829 msec
