
                                 *****************
                                 * O   R   C   A *
                                 *****************

                                            #,                                       
                                            ###                                      
                                            ####                                     
                                            #####                                    
                                            ######                                   
                                           ########,                                 
                                     ,,################,,,,,                         
                               ,,#################################,,                 
                          ,,##########################################,,             
                       ,#########################################, ''#####,          
                    ,#############################################,,   '####,        
                  ,##################################################,,,,####,       
                ,###########''''           ''''###############################       
              ,#####''   ,,,,##########,,,,          '''####'''          '####       
            ,##' ,,,,###########################,,,                        '##       
           ' ,,###''''                  '''############,,,                           
         ,,##''                                '''############,,,,        ,,,,,,###''
      ,#''                                            '''#######################'''  
     '                                                          ''''####''''         
             ,#######,   #######,   ,#######,      ##                                
            ,#'     '#,  ##    ##  ,#'     '#,    #''#        ,####,    ,#,          
            ##       ##  ##   ,#'  ##            #'  '#       #'       ,# #          
            ##       ##  #######   ##           ,######,      #####,      #          
            '#,     ,#'  ##    ##  '#,     ,#' ,#      #,     #,   #      #          
             '#######'   ##     ##  '#######'  #'      '#     '####' #    #          



                #########################################################
                #                        -***-                          #
                #          Department of theory and spectroscopy        #
                #                                                       #
                #                      Frank Neese                      #
                #                                                       #
                #     Directorship, Architecture, Infrastructure        #
                #                    SHARK, DRIVERS                     #
                #        Core code/Algorithms in most modules           #
                #                                                       #
                #        Max Planck Institute fuer Kohlenforschung      #
                #                Kaiser Wilhelm Platz 1                 #
                #                 D-45470 Muelheim/Ruhr                 #
                #                      Germany                          #
                #                                                       #
                #                  All rights reserved                  #
                #                        -***-                          #
                #########################################################


                         Program Version 6.1.0  -  RELEASE   -
                                (GIT: $679e74b$)
                          ($2025-06-10 18:02:51 +0200$)


 With contributions from (in alphabetic order):
[Max-Planck-Institut fuer Kohlenforschung]                               
  Daniel Aravena         : Magnetic Suceptibility                        
  Michael Atanasov       : Ab Initio Ligand Field Theory (pilot matlab implementation)
  Alexander A. Auer      : GIAO ZORA, VPT2 properties, NMR spectrum      
  Ute Becker             : All parallelization in ORCA, NUMFREQ, NUMCALC 
  Giovanni Bistoni       : ED, misc. LED, open-shell LED, HFLD           
  Dmytro Bykov           : pre 5.0 version of the SCF Hessian            
  Marcos Casanova-Páez   : Triplet and SCS-CIS(D). UHF-(DLPNO)-IP/EA/STEOM-CCSD. UHF-CVS-IP/STEOM-CCSD   
  Vijay G. Chilkuri      : MRCI spin determinant printing, contributions to CSF-ICE 
  Pauline Colinet        : FMM embedding                                 
  Dipayan Datta          : RHF DLPNO-CCSD density                        
  Achintya Kumar Dutta   : EOM-CC, STEOM-CC                              
  Nicolas Foglia         : Exact transition moments, OPA infrastructure, MCD improvements    
  Dmitry Ganyushin       : Spin-Orbit,Spin-Spin,Magnetic field MRCI      
  Miquel Garcia-Rates    : C-PCM and meta-GGA Hessian, CCSD/C-PCM, Gaussian charge scheme 
  Tiago L. C. Gouveia    : GS-ROHF, GS-ROCIS                             
  Yang Guo               : DLPNO-NEVPT2, F12-NEVPT2, CIM, IAO-localization        
  Andreas Hansen         : Spin unrestricted coupled pair/coupled cluster methods 
  Ingolf Harden          : AUTO-CI MPn and infrastructure                
  Benjamin Helmich-Paris : MC-RPA, TRAH-(SCF,CASSCF), AVAS, COSX integrals, SCF dyn. polar., MC-PDFT, srDFT 
  Lee Huntington         : MR-EOM, pCC                                   
  Robert Izsak           : Overlap fitted RIJCOSX, COSX-SCS-MP3, EOM     
  Riya Kayal             : Wick's Theorem for AUTO-CI, AUTO-CI UHF-CCSDT 
  Emily Kempfer          : AUTO-CI RHF CISDT and CCSDT, approximate NEVPT4
  Christian Kollmar      : KDIIS, OOCD, Brueckner-CCSD(T), CCSD density, CASPT2, CASPT2-K, improved NEVPT2 
  Axel Koslowski         : Symmetry handling                             
  Simone Kossmann        : meta-GGA functionals, TD-DFT gradient, OOMP2, (MP2 Hessian; deprecated post 5.0) 
  Lucas Lang             : DCDCAS, Hyperfine gauge corrections, ICE-SOC+SSC
  Marvin Lechner         : AUTO-CI (C++ implementation), FIC-MRCC        
  Spencer Leger          : CASSCF response                               
  Dagmar Lenk            : GEPOL surface, SMD, ORCA-2-JSON               
  Dimitrios Liakos       : Extrapolation schemes; Compound Job, Property file
  Dimitrios Manganas     : Further ROCIS development; embedding schemes. LFT, Crystal Embedding 
  Dimitrios Pantazis     : SARC Basis sets                               
  Anastasios Papadopoulos: AUTO-CI, single reference methods and gradients 
  Taras Petrenko         : pre 6.0 DFT Hessian and TD-DFT gradient,  ECA, NRVS 
  Petra Pikulova         : Analytic Raman intensities                    
  Peter Pinski           : DLPNO-MP2, DLPNO-MP2 Gradient                 
  Shashank Vittal Rao    : ES-AILFT, MagRelax                            
  Christoph Reimann      : Effective Core Potentials                     
  Marius Retegan         : Local ZFS, SOC                                
  Christoph Riplinger    : Optimizer, TS searches, QM/MM, DLPNO-CCSD(T), (RO)-DLPNO pert. Triples 
  Michael Roemelt        : Original ROCIS implementation, recursive CI coupling coefficients
  Masaaki Saitow         : Open-shell DLPNO-CCSD energy and density      
  Barbara Sandhoefer     : DKH picture change effects                    
  Yorick L. A. Schmerwitz: GMF and freeze-and-release deltaSCF, NEB S-IDPP initial path                    
  Kantharuban Sivalingam : CASSCF convergence/infrastructure, NEVPT2, NEVPT3, NEVPT4(SD), FIC-MRCI and CEPA variants
  Bernardo de Souza      : ESD, SOC TD-DFT                               
  Georgi L. Stoychev     : AutoAux, RI-MP2 NMR, DLPNO-MP2 response, X2C  
  Van Anh Tran           : RI-MP2 g-tensors                              
  Willem Van den Heuvel  : Paramagnetic NMR                              
  Zikuan Wang            : NOTCH, Electric field optimization            
  Frank Wennmohs         : Technical directorship and infrastructure     
  Hang Xu                : AUTO-CI-Response properties                   
                                                                         
[FACCTs GmbH]                                                            
  Markus Bursch, Nicolas Foglia, Miquel Garcia-Rates, Ingolf Harden, Hagen Neugebauer, Anastasios Papadopoulos, 
  Christoph Riplinger, Bernardo de Souza, Georgi L. Stoychev                                                    
                                                                 
  APM, various basis sets, CI-OPT, improved COSX, DLPNO-Multilevel,           
  DOCKER, DRACO, updates on ESD, Fragmentator, GOAT, IRC, LR-CPCM, L-BFGS, MBIS, meta-GGA TD-DFT gradient, ML-optimized integration grids, 
  MM, NACMEs, nearIR, NEB, NEB-TS, NL-DFT gradient (VV10), 2- and 3-layer-ONIOM, interface openCOSMO-RS, QMMM,   
  Crystal-QMMM, RESP, rigid body optimization, SF, symmetry and pop. for TD-DFT, various functionals, SOLVATOR                                   
                                                                         
[Other institutions]                                                     
  V. Asgeirsson          : NEB                                           
  Christoph Bannwarth    : sTDA-DFT, sTD-DFT, PBEh-3c, B97-3c, D3        
  Giovanni Bistoni       : ETS/NOCV, ADLD/ADEX, COVALED                  
  Martin Brehm           : Molecular dynamics                            
  Ronald Cardenas        : ETS/NOCV                                      
  Martina Colucci        : COVALED                                       
  Sebastian Ehlert       : rSCAN, r2SCAN, r2SCAN-3c, D4, dhf basis sets  
  Marvin Friede          : D4 for Fr, Ra, Ac-Lr                          
  Lars Goerigk           : TD-DFT with DH, B97 family of functionals     
  Stefan Grimme          : VdW corrections, initial TS optimization, DFT functionals, gCP, sTDA/sTD-DF 
  Waldemar Hujo          : DFT-NL                                        
  H. Jonsson             : NEB                                           
  Holger Kruse           : gCP                                           
  Marcel Mueller         : wB97X-3c, vDZP basis set                      
  Hagen Neugebauer       : wr2SCAN, Native XTB                           
  Gianluca Regni         : ADLD/ADEX                                     
  Tobias Risthaus        : pre 6.0 range-separated hybrid DFT and stability analysis
  Lukas Wittmann         : regularized MP2, r2SCAN double-hybrids, wr2SCAN        
                                                                         
We gratefully acknowledge several colleagues who have allowed us to      
interface, adapt or use parts of their codes:                            
  Ed Valeev, F. Pavosevic, A. Kumar             : LibInt (2-el integral package), F12 methods 
  Garnet Chan, S. Sharma, J. Yang, R. Olivares  : DMRG                   
  Ulf Ekstrom                                   : XCFun DFT Library      
  Mihaly Kallay                                 : mrcc  (arbitrary order and MRCC methods)
  Frank Weinhold                                : gennbo (NPA and NBO analysis)           
  Simon Mueller                                 : openCOSMO-RS                            
  Christopher J. Cramer and Donald G. Truhlar   : smd solvation model                     
  S Lehtola, MJT Oliveira, MAL Marques          : LibXC Library                           
  Liviu Ungur et al                             : ANISO software                          


 Your calculation uses the libint2 library for the computation of 2-el integrals
 For citations please refer to: http://libint.valeyev.net

 Your ORCA version has been built with support for libXC version: 7.0.0
 For citations please refer to: https://libxc.gitlab.io

 This ORCA versions uses:
   CBLAS   interface :  Fast vector & matrix operations
   LAPACKE interface :  Fast linear algebra routines
   SCALAPACK package :  Parallel linear algebra routines
   Shared memory     :  Shared parallel matrices
   BLAS/LAPACK       :  OpenBLAS 0.3.29  USE64BITINT DYNAMIC_ARCH NO_AFFINITY SkylakeX SINGLE_THREADED
        Core in use  :  SkylakeX
   Copyright (c) 2011-2014, The OpenBLAS Project


  ***********************************
  * Starting time: Thu Mar 12 12:47:13 2026
  * Host name:     midway3-login4.rcc.local
  * Process ID:    2794515
  * Working dir.:  /home/rzhu16/orca_TS_search/sn2_cl_i/geo_opt_reactant_product
  ***********************************

Your calculation utilizes the semiempirical GFN2-xTB method
Please cite in your paper:
Bannwarth, C.; Ehlert S.; Grimme, S. J. Chem. Theory Comput. 2019, 15, 1652.
   

================================================================================

cite the ECPs for I  [Def2-ECP] as follows:
Ce-Yb(ecp-28): M. Dolg, H. Stoll, H.Preuss, J. Chem. Phys., 1989, 90, 1730-1734.
Y-Cd(ecp-28), Hf-Hg(ecp-46): D. Andrae,U. Haeussermann, M. Dolg, H. Stoll, H. Preuss, Theor. Chim. Acta, 1990, 77, 123-141.
In-Sb(ecp-28), Tl-Bi(ecp-46): B. Metz, H. Stoll, M. Dolg, J. Chem. Phys., 2000, 113, 2563-2569.
Te-Xe(ecp-28), Po-Rn(ecp-46): K. A. Peterson, D. Figgen, E. Goll, H. Stoll, M. Dolg, J. Chem. Phys., 2003, 119, 11113-11123.
Rb(ecp-28), Cs(ecp-46): T. Leininger, A. Nicklass, W. Kuechle, H. Stoll, M. Dolg, A. Bergner, Chem. Phys. Lett., 1996, 255, 274-280.
Sr(ecp-28), Ba(ecp-46): M. Kaupp, P. V. Schleyer, H. Stoll and H. Preuss, J. Chem. Phys., 1991, 94, 1360-1366.
La(ecp-46): M. Dolg, H. Stoll, A. Savin, H. Preuss, Theor. Chim. Acta, 1989, 75, 173-194.
Lu(ecp-28): X. Cao, M. Dolg, J. Chem. Phys., 2001, 115, 7348-7355.

ECP parameters for I  [Def2-ECP] have been obtained from:
TURBOMOLE (7.0.2)

================================================================================
                                        WARNINGS
                       Please study these warnings very carefully!
================================================================================


WARNING: Analytical Hessian for XTB is limited in the analysis of the data.
       : If you want to obtain extensive IR and deltaG analysis, please use ! XTB NumFreq. 


WARNING: Geometry Optimization
  ===> : Switching off AutoStart
         For restart on a previous wavefunction, please use MOREAD

WARNING: Found dipole moment calculation with XTB calculation
  ===> : Switching off dipole moment calculation


WARNING: Found frequency calculation in combination with XTB calculation
  ===> : Need to redirect dipole moment calculation to properties.out


================================================================================
                                       INPUT FILE
================================================================================
NAME = product_optfreq.inp
|  1> ! XTB2 Opt Freq PAL8
|  2> 
|  3> * xyz -1 1
|  4>   C       0.000140      0.000136     -0.275237
|  5>   H       0.000063      1.026182      0.055394
|  6>   H       0.888726     -0.513008      0.055406
|  7>   H      -0.888660     -0.513045      0.055433
|  8>   Cl     -0.000009     -0.000010      2.496538
|  9>   I       0.000053      0.000051     -2.448380
| 10> *
| 11> 
| 12>                          ****END OF INPUT****
================================================================================

                       *****************************
                       * Geometry Optimization Run *
                       *****************************

Geometry optimization settings:
Update method            Update   .... BFGS
Choice of coordinates    CoordSys .... (2022) Redundant Internals
Initial Hessian          InHess   .... Almloef's Model
Max. no of cycles        MaxIter  .... 50

Convergence Tolerances:
Energy Change            TolE     ....  5.0000e-06 Eh
Max. Gradient            TolMAXG  ....  3.0000e-04 Eh/bohr
RMS Gradient             TolRMSG  ....  1.0000e-04 Eh/bohr
Max. Displacement        TolMAXD  ....  4.0000e-03 bohr
RMS Displacement         TolRMSD  ....  2.0000e-03 bohr
Strict Convergence                .... False

------------------------------------------------------------------------------
                        ORCA OPTIMIZATION COORDINATE SETUP
------------------------------------------------------------------------------

The optimization will be done in redundant internal coordinates (2022)
Making redundant internal coordinates   ...  (2022 redundants) done
Evaluating the initial hessian          ...  (Almloef) done
Evaluating the coordinates              ...  done
Calculating the B-matrix                .... done
Calculating the G-matrix                .... done
The number of degrees of freedom        ....   17

    -----------------------------------------------------------------
                    Redundant Internal Coordinates


    -----------------------------------------------------------------
         Definition                    Initial Value    Approx d2E/dq
    -----------------------------------------------------------------
      1. B(H   1,C   0)                  1.0780         0.376327   
      2. B(H   2,C   0)                  1.0781         0.376238   
      3. B(H   3,C   0)                  1.0783         0.375959   
      4. B(Cl  4,H   2)                  2.6480         0.010000   
      5. B(Cl  4,H   3)                  2.6480         0.010000   
      6. B(Cl  4,H   1)                  2.6481         0.010000   
      7. B(Cl  4,C   0)                  2.7718         0.010000   
      8. B(I   5,C   0)                  2.1731         0.118244   
      9. A(H   1,C   0,H   3)          111.0312         0.294861   
     10. A(H   2,C   0,H   3)          111.0276         0.294850   
     11. A(H   1,C   0,I   5)          107.8632         0.287759   
     12. A(H   2,C   0,I   5)          107.8613         0.287748   
     13. A(H   3,C   0,I   5)          107.8554         0.287715   
     14. A(H   1,C   0,Cl  4)           72.1421         0.196492   
     15. A(H   2,C   0,Cl  4)           72.1407         0.196486   
     16. A(H   3,C   0,Cl  4)           72.1373         0.196468   
     17. A(H   1,C   0,H   2)          111.0410         0.294896   
    -----------------------------------------------------------------

Number of atoms                         .... 6
Number of degrees of freedom            .... 17


         *************************************************************
         *                GEOMETRY OPTIMIZATION CYCLE   1            *
         *************************************************************
---------------------------------
CARTESIAN COORDINATES (ANGSTROEM)
---------------------------------
  C     0.000140    0.000136   -0.275237
  H     0.000063    1.026182    0.055394
  H     0.888726   -0.513008    0.055406
  H    -0.888660   -0.513045    0.055433
  Cl   -0.000009   -0.000010    2.496538
  I     0.000053    0.000051   -2.448380

----------------------------
CARTESIAN COORDINATES (A.U.)
----------------------------
  NO LB    ZA    FRAG    MASS        X           Y           Z
   0 C   6.0000    0    12.011    0.000265    0.000257   -0.520123
   1 H   1.0000    0     1.008    0.000119    1.939203    0.104679
   2 H   1.0000    0     1.008    1.679449   -0.969445    0.104702
   3 H   1.0000    0     1.008   -1.679324   -0.969515    0.104753
   4 Cl 17.0000    0    35.453   -0.000017   -0.000019    4.717773
   5 I  53.0000    0   126.900    0.000100    0.000096   -4.626768

      -----------------------------------------------------------      
     |                   =====================                   |     
     |                           x T B                           |     
     |                   =====================                   |     
     |                         S. Grimme                         |     
     |          Mulliken Center for Theoretical Chemistry        |     
     |                    University of Bonn                     |     
      -----------------------------------------------------------      

   * xtb version 6.7.1 (edcfbbe) compiled by 'albert@albert-system' on 2024-07-22

   xtb is free software: you can redistribute it and/or modify it under
   the terms of the GNU Lesser General Public License as published by
   the Free Software Foundation, either version 3 of the License, or
   (at your option) any later version.
   
   xtb is distributed in the hope that it will be useful,
   but WITHOUT ANY WARRANTY; without even the implied warranty of
   MERCHANTABILITY or FITNESS FOR A PARTICULAR PURPOSE.  See the
   GNU Lesser General Public License for more details.
   
   Cite this work as:
   * C. Bannwarth, E. Caldeweyher, S. Ehlert, A. Hansen, P. Pracht,
     J. Seibert, S. Spicher, S. Grimme, WIREs Comput. Mol. Sci., 2020, 11,
     e01493. DOI: 10.1002/wcms.1493
   
   for GFN2-xTB:
   * C. Bannwarth, S. Ehlert and S. Grimme., J. Chem. Theory Comput., 2019,
     15, 1652-1671. DOI: 10.1021/acs.jctc.8b01176
   for GFN1-xTB:
   * S. Grimme, C. Bannwarth, P. Shushkov, J. Chem. Theory Comput., 2017,
     13, 1989-2009. DOI: 10.1021/acs.jctc.7b00118
   for GFN0-xTB:
   * P. Pracht, E. Caldeweyher, S. Ehlert, S. Grimme, ChemRxiv, 2019, preprint.
     DOI: 10.26434/chemrxiv.8326202.v1
   for GFN-FF:
   * S. Spicher and S. Grimme, Angew. Chem. Int. Ed., 2020, 59, 15665-15673.
     DOI: 10.1002/anie.202004239
   
   for ALPB and GBSA implicit solvation:
   * S. Ehlert, M. Stahn, S. Spicher, S. Grimme, J. Chem. Theory Comput.,
     2021, 17, 4250-4261. DOI: 10.1021/acs.jctc.1c00471
   
   for ddCOSMO and CPCM-X implicit solvation:
   * M. Stahn, S. Ehlert, S. Grimme, J. Phys. Chem. A,
     2023, XX, XXXX-XXXX. DOI: 10.1021/acs.jpca.3c04382
   
   for DFT-D4:
   * E. Caldeweyher, C. Bannwarth and S. Grimme, J. Chem. Phys., 2017,
     147, 034112. DOI: 10.1063/1.4993215
   * E. Caldeweyher, S. Ehlert, A. Hansen, H. Neugebauer, S. Spicher,
     C. Bannwarth and S. Grimme, J. Chem. Phys., 2019, 150, 154122.
     DOI: 10.1063/1.5090222
   * E. Caldeweyher, J.-M. Mewes, S. Ehlert and S. Grimme, Phys. Chem. Chem. Phys.
     2020, 22, 8499-8512. DOI: 10.1039/D0CP00502A
   
   for sTDA-xTB:
   * S. Grimme and C. Bannwarth, J. Chem. Phys., 2016, 145, 054103.
     DOI: 10.1063/1.4959605
   
   in the mass-spec context:
   * V. Asgeirsson, C. Bauer and S. Grimme, Chem. Sci., 2017, 8, 4879.
     DOI: 10.1039/c7sc00601b
   * J. Koopman and S. Grimme, ACS Omega 2019, 4, 12, 15120-15133.
     DOI: 10.1021/acsomega.9b02011
   
   for metadynamics refer to:
   * S. Grimme, J. Chem. Theory Comput., 2019, 155, 2847-2862
     DOI: 10.1021/acs.jctc.9b00143
   
   for SPH calculations refer to:
   * S. Spicher and S. Grimme, J. Chem. Theory Comput., 2021, 17, 1701-1714
     DOI: 10.1021/acs.jctc.0c01306
   
   for ONIOM refer to:
   * C. Plett, A. Katbashev, S. Ehlert, S. Grimme, M. Bursch,
     Phys. Chem. Chem. Phys., 2023, 25, 17860-17868. DOI: 10.1039/D3CP02178E
   
   for DIPRO refer to:
   * J. Kohn, N. Gildemeister, S. Grimme, D. Fazzi, A. Hansen,
     J. Chem. Phys., 2023, just accepted.
   
   for PTB refer to:
   * S. Grimme, M. Mueller, A. Hansen, J. Chem. Phys., 2023, 158, 124111.
     DOI: 10.1063/5.0137838
   
   with help from (in alphabetical order)
   P. Atkinson, C. Bannwarth, F. Bohle, G. Brandenburg, E. Caldeweyher
   M. Checinski, S. Dohm, S. Ehlert, S. Ehrlich, I. Gerasimov, C. Hölzer
   A. Katbashev, J. Kohn, J. Koopman, C. Lavigne, S. Lehtola, F. März, M. Müller,
   F. Musil, H. Neugebauer, J. Pisarek, C. Plett, P. Pracht, F. Pultar,
   J. Seibert, P. Shushkov, S. Spicher, M. Stahn, M. Steiner, T. Strunk,
   J. Stückrath, T. Rose, and J. Unsleber
   
 * started run on 2026/03/12 at 12:47:14.163     
   ID    Z sym.   atoms
    1    6 C      1
    2    1 H      2-4
    3   17 Cl     5
    4   53 I      6

           -------------------------------------------------
          |                Calculation Setup                |
           -------------------------------------------------

          program call               : /software/orca-6.1.0-el8-x86_64/bin/otool_xtb product_optfreq_XTB.xyz --grad -c -1 -u 0 -P 8 --namespace product_optfreq --input product_optfreq_XTB.input.tmp --acc 0.200000
          hostname                   : midway3-login4.rcc.local
          calculation namespace      : product_optfreq
          coordinate file            : product_optfreq_XTB.xyz
          omp threads                :                     8


molecular fragmentation (1/2 indicates fragments):
111121
# atoms in fragment 1/2:     5     1
 fragment masses (1/2) :      141.94       35.45
CMA distance (Bohr)    :   8.896
constraining FC (au)   :  0.0500

           -------------------------------------------------
          |                 G F N 2 - x T B                 |
           -------------------------------------------------

        Reference                      10.1021/acs.jctc.8b01176
      * Hamiltonian:
        H0-scaling (s, p, d)           1.850000    2.230000    2.230000
        zeta-weighting                 0.500000
      * Dispersion:
        s8                             2.700000
        a1                             0.520000
        a2                             5.000000
        s9                             5.000000
      * Repulsion:
        kExp                           1.500000    1.000000
        rExp                           1.000000
      * Coulomb:
        alpha                          2.000000
        third order                    shell-resolved
        anisotropic                    true
        a3                             3.000000
        a5                             4.000000
        cn-shift                       1.200000
        cn-exp                         4.000000
        max-rad                        5.000000


          ...................................................
          :                      SETUP                      :
          :.................................................:
          :  # basis functions                  27          :
          :  # atomic orbitals                  25          :
          :  # shells                           11          :
          :  # electrons                        22          :
          :  max. iterations                   250          :
          :  Hamiltonian                  GFN2-xTB          :
          :  restarted?                      false          :
          :  GBSA solvation                  false          :
          :  PC potential                    false          :
          :  electronic temp.          300.0000000     K    :
          :  accuracy                    0.2000000          :
          :  -> integral cutoff          0.3198970E+02      :
          :  -> integral neglect         0.2000000E-08      :
          :  -> SCF convergence          0.2000000E-06 Eh   :
          :  -> wf. convergence          0.2000000E-04 e    :
          :  Broyden damping             0.4000000          :
          :  net charge                         -1          :
          :  unpaired electrons                  0          :
          ...................................................

 iter      E             dE          RMSdq      gap      omega  full diag
   1    -12.3096195 -0.123096E+02  0.135E+01    5.10       0.0  T
   2    -12.3345593 -0.249398E-01  0.526E+00    4.81       1.0  T
   3    -12.3403335 -0.577413E-02  0.206E+00    3.15       1.0  T
   4    -12.3406943 -0.360856E-03  0.153E+00    2.96       1.0  T
   5    -12.3411461 -0.451820E-03  0.511E-01    2.77       1.0  T
   6    -12.3412777 -0.131602E-03  0.334E-01    2.77       1.0  T
   7    -12.3412996 -0.218354E-04  0.391E-02    2.86       1.0  T
   8    -12.3413021 -0.257940E-05  0.224E-02    2.83       1.8  T
   9    -12.3413027 -0.557596E-06  0.163E-02    2.83       2.5  T
  10    -12.3413032 -0.493016E-06  0.816E-03    2.84       5.0  T
  11    -12.3413032 -0.661528E-08  0.777E-04    2.84      52.5  T
  12    -12.3413032 -0.105966E-08  0.389E-04    2.84     104.9  T
  13    -12.3413032 -0.995222E-10  0.577E-06    2.84    7074.0  T
  14    -12.3413032 -0.266454E-13  0.288E-06    2.84   14180.3  T

   *** convergence criteria satisfied after 14 iterations ***

         #    Occupation            Energy/Eh            Energy/eV
      -------------------------------------------------------------
         1        2.0000           -0.8033619             -21.8606
       ...           ...                  ...                  ...
         5        2.0000           -0.3610476              -9.8246
         6        2.0000           -0.3451307              -9.3915
         7        2.0000           -0.2834338              -7.7126
         8        2.0000           -0.2834315              -7.7126
         9        2.0000           -0.2013928              -5.4802
        10        2.0000           -0.2005223              -5.4565
        11        2.0000           -0.2005222              -5.4565 (HOMO)
        12                         -0.0962888              -2.6202 (LUMO)
        13                          0.1573567               4.2819
        14                          0.1573645               4.2821
        15                          0.1863620               5.0712
        16                          0.1863660               5.0713
       ...                                ...                  ...
        25                          0.4826613              13.1339
      -------------------------------------------------------------
                  HL-Gap            0.1042333 Eh            2.8363 eV
             Fermi-level           -0.1484055 Eh           -4.0383 eV

 SCC (total)                   0 d,  0 h,  0 min,  0.074 sec
 SCC setup                      ...        0 min,  0.000 sec (  0.229%)
 Dispersion                     ...        0 min,  0.000 sec (  0.074%)
 classical contributions        ...        0 min,  0.000 sec (  0.034%)
 integral evaluation            ...        0 min,  0.070 sec ( 94.254%)
 iterations                     ...        0 min,  0.003 sec (  3.733%)
 molecular gradient             ...        0 min,  0.001 sec (  1.432%)
 printout                       ...        0 min,  0.000 sec (  0.218%)

         :::::::::::::::::::::::::::::::::::::::::::::::::::::
         ::                     SUMMARY                     ::
         :::::::::::::::::::::::::::::::::::::::::::::::::::::
         :: total energy             -12.280298487325 Eh    ::
         :: gradient norm              0.002008745634 Eh/a0 ::
         :: HOMO-LUMO gap              2.836333124950 eV    ::
         ::.................................................::
         :: SCC energy               -12.341304029930 Eh    ::
         :: -> isotropic ES            0.145241764923 Eh    ::
         :: -> anisotropic ES         -0.008913384329 Eh    ::
         :: -> anisotropic XC         -0.003498039499 Eh    ::
         :: -> dispersion             -0.003190363947 Eh    ::
         :: repulsion energy           0.061005542605 Eh    ::
         :: add. restraining           0.000000000000 Eh    ::
         :: total charge              -1.000000000000 e     ::
         :::::::::::::::::::::::::::::::::::::::::::::::::::::


Property printout bound to 'properties.out'

           -------------------------------------------------
          | TOTAL ENERGY              -12.280298487325 Eh   |
          | GRADIENT NORM               0.002008745634 Eh/α |
          | HOMO-LUMO GAP               2.836333124950 eV   |
           -------------------------------------------------

------------------------------------------------------------------------
 * finished run on 2026/03/12 at 12:47:14.270     
------------------------------------------------------------------------
 total:
 * wall-time:     0 d,  0 h,  0 min,  0.107 sec
 *  cpu-time:     0 d,  0 h,  0 min,  0.556 sec
 * ratio c/w:     5.212 speedup
 SCF:
 * wall-time:     0 d,  0 h,  0 min,  0.074 sec
 *  cpu-time:     0 d,  0 h,  0 min,  0.399 sec
 * ratio c/w:     5.389 speedup


-------------------------   --------------------
FINAL SINGLE POINT ENERGY       -12.280298487330
-------------------------   --------------------


-------------
DIPOLE MOMENT
-------------
                                X             Y             Z
Total Dipole Moment    :      0.00000       0.00000      -1.91100
                        -----------------------------------------
Magnitude (a.u.)       :      1.91100
Magnitude (Debye)      :      4.85738


------------------
CARTESIAN GRADIENT
------------------

   1   C   :    0.000111958    0.000106418    0.000331817
   2   H   :   -0.000004332    0.000083948    0.000384335
   3   H   :    0.000102145   -0.000066049    0.000396070
   4   H   :   -0.000206666   -0.000121393    0.000432019
   5   Cl  :   -0.000000520   -0.000000504   -0.001806096
   6   I   :   -0.000002585   -0.000002421    0.000261855

Difference to translation invariance:
           :   -0.0000000000   -0.0000000000   -0.0000000000

Difference to rotation invariance:
           :    0.0000000006   -0.0000000005    0.0000000000

Norm of the Cartesian gradient     ...    0.0020087456
RMS gradient                       ...    0.0004734659
MAX gradient                       ...    0.0018060957
------------------------------------------------------------------------------
                         ORCA GEOMETRY RELAXATION STEP
------------------------------------------------------------------------------

Reading the OPT-File                    .... done
Getting information on internals        .... done
Copying old internal coords+grads       .... done
Making the new internal coordinates     .... (2022 redundants) done
Validating the new internal coordinates .... (2022 redundants) done
Calculating the B-matrix                .... done
Calculating the G,G- and P matrices     .... done
Transforming gradient to internals      .... done
Projecting the internal gradient        .... done
Number of atoms                         ....   6
Number of internal coordinates          ....  17
Current Energy                          ....   -12.280298487 Eh
Current gradient norm                   ....     0.002008746 Eh/bohr
Maximum allowed component of the step   ....  0.300
Current trust radius                    ....  0.300
Evaluating the initial hessian          ....  (Almloef) done
Projecting the Hessian                  .... done
Forming the augmented Hessian           .... done
Diagonalizing the augmented Hessian     .... done
Last element of RFO vector              ....  0.995515115
Lowest eigenvalues of augmented Hessian:
 -0.000092689  0.010091055  0.046392824  0.046404318  0.118244223
Length of the computed step             ....  0.095028815
The final length of the internal step   ....  0.095028815
Converting the step to Cartesian space:
 Initial RMS(Int)=    0.0230478729
Transforming coordinates:
 Iter   0:  RMS(Cart)=    0.0110386037 RMS(Int)=    0.0230626382
done
Storing new coordinates                 .... done

                                .--------------------.
          ----------------------|Geometry convergence|-------------------------
          Item                value                   Tolerance       Converged
          ---------------------------------------------------------------------
          RMS gradient        0.0002793659            0.0001000000      NO
          MAX gradient        0.0006254626            0.0003000000      NO
          RMS step            0.0230478729            0.0020000000      NO
          MAX step            0.0510159007            0.0040000000      NO
          -------------------------------------------------------------------------
          ........................................................
          Max(Bonds)      0.0270      Max(Angles)    0.02
          Max(Dihed)        0.00      Max(Improp)    0.00
          ---------------------------------------------------------------------

The optimization has not yet converged - more geometry cycles are needed


    ---------------------------------------------------------------------------
                         Redundant Internal Coordinates
                            (Angstroem and degrees)

        Definition                    Value    dE/dq     Step     New-Value
    ----------------------------------------------------------------------------
     1. B(H   1,C   0)                1.0780  0.000235 -0.0003    1.0777   
     2. B(H   2,C   0)                1.0781  0.000274 -0.0004    1.0777   
     3. B(H   3,C   0)                1.0783  0.000397 -0.0006    1.0777   
     4. B(Cl  4,H   2)                2.6480 -0.000427  0.0245    2.6725   
     5. B(Cl  4,H   3)                2.6480 -0.000426  0.0245    2.6725   
     6. B(Cl  4,H   1)                2.6481 -0.000427  0.0245    2.6725   
     7. B(Cl  4,C   0)                2.7718 -0.000625  0.0270    2.7988   
     8. B(I   5,C   0)                2.1731 -0.000262  0.0012    2.1743   
     9. A(H   1,C   0,H   3)          111.03  0.000055   -0.02    111.01   
    10. A(H   2,C   0,H   3)          111.03  0.000051   -0.02    111.01   
    11. A(H   1,C   0,I   5)          107.86 -0.000054    0.02    107.88   
    12. A(H   2,C   0,I   5)          107.86 -0.000058    0.02    107.88   
    13. A(H   3,C   0,I   5)          107.86 -0.000070    0.02    107.88   
    14. A(H   1,C   0,Cl  4)           72.14  0.000064   -0.02     72.12   
    15. A(H   2,C   0,Cl  4)           72.14  0.000062   -0.02     72.12   
    16. A(H   3,C   0,Cl  4)           72.14  0.000057   -0.02     72.12   
    17. A(H   1,C   0,H   2)          111.04  0.000065   -0.02    111.02   
    ----------------------------------------------------------------------------

Geometry step timings:
Preparation and reading OPT file:      0.000 s ( 1.105 %)
Internal coordinates            :      0.000 s ( 1.256 %)
B/P matrices and projection     :      0.000 s ( 4.144 %)
Hessian update/contruction      :      0.003 s (75.339 %)
Making the step                 :      0.000 s ( 4.043 %)
Converting the step to Cartesian:      0.000 s ( 1.381 %)
Storing new data                :      0.000 s ( 2.637 %)
Checking convergence            :      0.000 s ( 1.909 %)
Final printing                  :      0.000 s ( 8.061 %)
Total time                      :      0.004 s

Time for energy+gradient        :      0.130 s
Time for complete geometry iter :      0.138 s

         *************************************************************
         *                GEOMETRY OPTIMIZATION CYCLE   2            *
         *************************************************************
---------------------------------
CARTESIAN COORDINATES (ANGSTROEM)
---------------------------------
  C     0.000098    0.000096   -0.279653
  H     0.000037    1.025709    0.051228
  H     0.888273   -0.512786    0.051227
  H    -0.888137   -0.512752    0.051214
  Cl   -0.000006   -0.000007    2.519106
  I     0.000048    0.000046   -2.453967

----------------------------
CARTESIAN COORDINATES (A.U.)
----------------------------
  NO LB    ZA    FRAG    MASS        X           Y           Z
   0 C   6.0000    0    12.011    0.000184    0.000181   -0.528468
   1 H   1.0000    0     1.008    0.000069    1.938309    0.096807
   2 H   1.0000    0     1.008    1.678593   -0.969025    0.096805
   3 H   1.0000    0     1.008   -1.678336   -0.968960    0.096780
   4 Cl 17.0000    0    35.453   -0.000011   -0.000014    4.760420
   5 I  53.0000    0   126.900    0.000091    0.000087   -4.637326

      -----------------------------------------------------------      
     |                   =====================                   |     
     |                           x T B                           |     
     |                   =====================                   |     
     |                         S. Grimme                         |     
     |          Mulliken Center for Theoretical Chemistry        |     
     |                    University of Bonn                     |     
      -----------------------------------------------------------      

   * xtb version 6.7.1 (edcfbbe) compiled by 'albert@albert-system' on 2024-07-22

   xtb is free software: you can redistribute it and/or modify it under
   the terms of the GNU Lesser General Public License as published by
   the Free Software Foundation, either version 3 of the License, or
   (at your option) any later version.
   
   xtb is distributed in the hope that it will be useful,
   but WITHOUT ANY WARRANTY; without even the implied warranty of
   MERCHANTABILITY or FITNESS FOR A PARTICULAR PURPOSE.  See the
   GNU Lesser General Public License for more details.
   
   Cite this work as:
   * C. Bannwarth, E. Caldeweyher, S. Ehlert, A. Hansen, P. Pracht,
     J. Seibert, S. Spicher, S. Grimme, WIREs Comput. Mol. Sci., 2020, 11,
     e01493. DOI: 10.1002/wcms.1493
   
   for GFN2-xTB:
   * C. Bannwarth, S. Ehlert and S. Grimme., J. Chem. Theory Comput., 2019,
     15, 1652-1671. DOI: 10.1021/acs.jctc.8b01176
   for GFN1-xTB:
   * S. Grimme, C. Bannwarth, P. Shushkov, J. Chem. Theory Comput., 2017,
     13, 1989-2009. DOI: 10.1021/acs.jctc.7b00118
   for GFN0-xTB:
   * P. Pracht, E. Caldeweyher, S. Ehlert, S. Grimme, ChemRxiv, 2019, preprint.
     DOI: 10.26434/chemrxiv.8326202.v1
   for GFN-FF:
   * S. Spicher and S. Grimme, Angew. Chem. Int. Ed., 2020, 59, 15665-15673.
     DOI: 10.1002/anie.202004239
   
   for ALPB and GBSA implicit solvation:
   * S. Ehlert, M. Stahn, S. Spicher, S. Grimme, J. Chem. Theory Comput.,
     2021, 17, 4250-4261. DOI: 10.1021/acs.jctc.1c00471
   
   for ddCOSMO and CPCM-X implicit solvation:
   * M. Stahn, S. Ehlert, S. Grimme, J. Phys. Chem. A,
     2023, XX, XXXX-XXXX. DOI: 10.1021/acs.jpca.3c04382
   
   for DFT-D4:
   * E. Caldeweyher, C. Bannwarth and S. Grimme, J. Chem. Phys., 2017,
     147, 034112. DOI: 10.1063/1.4993215
   * E. Caldeweyher, S. Ehlert, A. Hansen, H. Neugebauer, S. Spicher,
     C. Bannwarth and S. Grimme, J. Chem. Phys., 2019, 150, 154122.
     DOI: 10.1063/1.5090222
   * E. Caldeweyher, J.-M. Mewes, S. Ehlert and S. Grimme, Phys. Chem. Chem. Phys.
     2020, 22, 8499-8512. DOI: 10.1039/D0CP00502A
   
   for sTDA-xTB:
   * S. Grimme and C. Bannwarth, J. Chem. Phys., 2016, 145, 054103.
     DOI: 10.1063/1.4959605
   
   in the mass-spec context:
   * V. Asgeirsson, C. Bauer and S. Grimme, Chem. Sci., 2017, 8, 4879.
     DOI: 10.1039/c7sc00601b
   * J. Koopman and S. Grimme, ACS Omega 2019, 4, 12, 15120-15133.
     DOI: 10.1021/acsomega.9b02011
   
   for metadynamics refer to:
   * S. Grimme, J. Chem. Theory Comput., 2019, 155, 2847-2862
     DOI: 10.1021/acs.jctc.9b00143
   
   for SPH calculations refer to:
   * S. Spicher and S. Grimme, J. Chem. Theory Comput., 2021, 17, 1701-1714
     DOI: 10.1021/acs.jctc.0c01306
   
   for ONIOM refer to:
   * C. Plett, A. Katbashev, S. Ehlert, S. Grimme, M. Bursch,
     Phys. Chem. Chem. Phys., 2023, 25, 17860-17868. DOI: 10.1039/D3CP02178E
   
   for DIPRO refer to:
   * J. Kohn, N. Gildemeister, S. Grimme, D. Fazzi, A. Hansen,
     J. Chem. Phys., 2023, just accepted.
   
   for PTB refer to:
   * S. Grimme, M. Mueller, A. Hansen, J. Chem. Phys., 2023, 158, 124111.
     DOI: 10.1063/5.0137838
   
   with help from (in alphabetical order)
   P. Atkinson, C. Bannwarth, F. Bohle, G. Brandenburg, E. Caldeweyher
   M. Checinski, S. Dohm, S. Ehlert, S. Ehrlich, I. Gerasimov, C. Hölzer
   A. Katbashev, J. Kohn, J. Koopman, C. Lavigne, S. Lehtola, F. März, M. Müller,
   F. Musil, H. Neugebauer, J. Pisarek, C. Plett, P. Pracht, F. Pultar,
   J. Seibert, P. Shushkov, S. Spicher, M. Stahn, M. Steiner, T. Strunk,
   J. Stückrath, T. Rose, and J. Unsleber
   
 * started run on 2026/03/12 at 12:47:14.290     
   ID    Z sym.   atoms
    1    6 C      1
    2    1 H      2-4
    3   17 Cl     5
    4   53 I      6

           -------------------------------------------------
          |                Calculation Setup                |
           -------------------------------------------------

          program call               : /software/orca-6.1.0-el8-x86_64/bin/otool_xtb product_optfreq_XTB.xyz --grad -c -1 -u 0 -P 8 --namespace product_optfreq --input product_optfreq_XTB.input.tmp --acc 0.200000
          hostname                   : midway3-login4.rcc.local
          calculation namespace      : product_optfreq
          coordinate file            : product_optfreq_XTB.xyz
          omp threads                :                     8


molecular fragmentation (1/2 indicates fragments):
111121
# atoms in fragment 1/2:     5     1
 fragment masses (1/2) :      141.94       35.45
CMA distance (Bohr)    :   8.949
constraining FC (au)   :  0.0500

           -------------------------------------------------
          |                 G F N 2 - x T B                 |
           -------------------------------------------------

        Reference                      10.1021/acs.jctc.8b01176
      * Hamiltonian:
        H0-scaling (s, p, d)           1.850000    2.230000    2.230000
        zeta-weighting                 0.500000
      * Dispersion:
        s8                             2.700000
        a1                             0.520000
        a2                             5.000000
        s9                             5.000000
      * Repulsion:
        kExp                           1.500000    1.000000
        rExp                           1.000000
      * Coulomb:
        alpha                          2.000000
        third order                    shell-resolved
        anisotropic                    true
        a3                             3.000000
        a5                             4.000000
        cn-shift                       1.200000
        cn-exp                         4.000000
        max-rad                        5.000000

q/qsh data taken from xtbrestart
CAMM data taken from xtbrestart

          ...................................................
          :                      SETUP                      :
          :.................................................:
          :  # basis functions                  27          :
          :  # atomic orbitals                  25          :
          :  # shells                           11          :
          :  # electrons                        22          :
          :  max. iterations                   250          :
          :  Hamiltonian                  GFN2-xTB          :
          :  restarted?                       true          :
          :  GBSA solvation                  false          :
          :  PC potential                    false          :
          :  electronic temp.          300.0000000     K    :
          :  accuracy                    0.2000000          :
          :  -> integral cutoff          0.3198970E+02      :
          :  -> integral neglect         0.2000000E-08      :
          :  -> SCF convergence          0.2000000E-06 Eh   :
          :  -> wf. convergence          0.2000000E-04 e    :
          :  Broyden damping             0.4000000          :
          :  net charge                         -1          :
          :  unpaired electrons                  0          :
          ...................................................

 iter      E             dE          RMSdq      gap      omega  full diag
   1    -12.3415032 -0.123415E+02  0.734E-02    2.79       0.0  T
   2    -12.3415075 -0.431949E-05  0.555E-02    2.78       1.0  T
   3    -12.3415084 -0.930305E-06  0.309E-02    2.77       1.3  T
   4    -12.3415085 -0.917166E-07  0.156E-02    2.77       2.6  T
   5    -12.3415086 -0.108228E-06  0.586E-03    2.77       7.0  T
   6    -12.3415087 -0.203236E-07  0.160E-03    2.77      25.5  T
   7    -12.3415087 -0.509784E-09  0.686E-04    2.77      59.5  T
   8    -12.3415087 -0.206857E-09  0.213E-04    2.77     191.7  T
   9    -12.3415087 -0.754437E-10  0.574E-05    2.77     711.0  T
  10    -12.3415087 -0.902389E-12  0.239E-06    2.77   17073.3  T

   *** convergence criteria satisfied after 10 iterations ***

         #    Occupation            Energy/Eh            Energy/eV
      -------------------------------------------------------------
         1        2.0000           -0.8023649             -21.8335
       ...           ...                  ...                  ...
         5        2.0000           -0.3621498              -9.8546
         6        2.0000           -0.3462681              -9.4224
         7        2.0000           -0.2845753              -7.7437
         8        2.0000           -0.2845739              -7.7436
         9        2.0000           -0.2008747              -5.4661
        10        2.0000           -0.1998808              -5.4390
        11        2.0000           -0.1998807              -5.4390 (HOMO)
        12                         -0.0981557              -2.6710 (LUMO)
        13                          0.1559874               4.2446
        14                          0.1559905               4.2447
        15                          0.1848330               5.0296
        16                          0.1848348               5.0296
       ...                                ...                  ...
        25                          0.4801857              13.0665
      -------------------------------------------------------------
                  HL-Gap            0.1017250 Eh            2.7681 eV
             Fermi-level           -0.1490182 Eh           -4.0550 eV

 SCC (total)                   0 d,  0 h,  0 min,  0.140 sec
 SCC setup                      ...        0 min,  0.000 sec (  0.131%)
 Dispersion                     ...        0 min,  0.000 sec (  0.048%)
 classical contributions        ...        0 min,  0.000 sec (  0.021%)
 integral evaluation            ...        0 min,  0.137 sec ( 97.937%)
 iterations                     ...        0 min,  0.002 sec (  1.247%)
 molecular gradient             ...        0 min,  0.001 sec (  0.475%)
 printout                       ...        0 min,  0.000 sec (  0.123%)

         :::::::::::::::::::::::::::::::::::::::::::::::::::::
         ::                     SUMMARY                     ::
         :::::::::::::::::::::::::::::::::::::::::::::::::::::
         :: total energy             -12.280365283651 Eh    ::
         :: gradient norm              0.001594936973 Eh/a0 ::
         :: HOMO-LUMO gap              2.768079402374 eV    ::
         ::.................................................::
         :: SCC energy               -12.341509530252 Eh    ::
         :: -> isotropic ES            0.145758933263 Eh    ::
         :: -> anisotropic ES         -0.008787845637 Eh    ::
         :: -> anisotropic XC         -0.003402973569 Eh    ::
         :: -> dispersion             -0.003173721569 Eh    ::
         :: repulsion energy           0.061144246600 Eh    ::
         :: add. restraining           0.000000000000 Eh    ::
         :: total charge              -1.000000000000 e     ::
         :::::::::::::::::::::::::::::::::::::::::::::::::::::


Property printout bound to 'properties.out'

           -------------------------------------------------
          | TOTAL ENERGY              -12.280365283651 Eh   |
          | GRADIENT NORM               0.001594936973 Eh/α |
          | HOMO-LUMO GAP               2.768079402374 eV   |
           -------------------------------------------------

------------------------------------------------------------------------
 * finished run on 2026/03/12 at 12:47:14.459     
------------------------------------------------------------------------
 total:
 * wall-time:     0 d,  0 h,  0 min,  0.168 sec
 *  cpu-time:     0 d,  0 h,  0 min,  0.634 sec
 * ratio c/w:     3.765 speedup
 SCF:
 * wall-time:     0 d,  0 h,  0 min,  0.140 sec
 *  cpu-time:     0 d,  0 h,  0 min,  0.542 sec
 * ratio c/w:     3.858 speedup


-------------------------   --------------------
FINAL SINGLE POINT ENERGY       -12.280365283650
-------------------------   --------------------


-------------
DIPOLE MOMENT
-------------
                                X             Y             Z
Total Dipole Moment    :      0.00000       0.00000      -1.98300
                        -----------------------------------------
Magnitude (a.u.)       :      1.98300
Magnitude (Debye)      :      5.04039


------------------
CARTESIAN GRADIENT
------------------

   1   C   :    0.000023204    0.000022373    0.001031235
   2   H   :   -0.000006373   -0.000198052    0.000182167
   3   H   :   -0.000172147    0.000089400    0.000183655
   4   H   :    0.000157392    0.000088241    0.000187660
   5   Cl  :   -0.000000196   -0.000000198   -0.000870102
   6   I   :   -0.000001880   -0.000001763   -0.000714615

Difference to translation invariance:
           :    0.0000000000   -0.0000000000    0.0000000000

Difference to rotation invariance:
           :    0.0000000001   -0.0000000001    0.0000000000

Norm of the Cartesian gradient     ...    0.0015949370
RMS gradient                       ...    0.0003759302
MAX gradient                       ...    0.0010312348
------------------------------------------------------------------------------
                         ORCA GEOMETRY RELAXATION STEP
------------------------------------------------------------------------------

Reading the OPT-File                    .... done
Getting information on internals        .... done
Copying old internal coords+grads       .... done
Making the new internal coordinates     .... (2022 redundants) done
Validating the new internal coordinates .... (2022 redundants) done
Calculating the B-matrix                .... done
Calculating the G,G- and P matrices     .... done
Transforming gradient to internals      .... done
Projecting the internal gradient        .... done
Number of atoms                         ....   6
Number of internal coordinates          ....  17
Current Energy                          ....   -12.280365284 Eh
Current gradient norm                   ....     0.001594937 Eh/bohr
Maximum allowed component of the step   ....  0.300
Current trust radius                    ....  0.300
Updating the Hessian (BFGS)             .... done
Forming the augmented Hessian           .... done
Diagonalizing the augmented Hessian     .... done
Last element of RFO vector              ....  0.994530061
Lowest eigenvalues of augmented Hessian:
 -0.000055783  0.004745459  0.046392822  0.046404318  0.135716469
Length of the computed step             ....  0.105025222
The final length of the internal step   ....  0.105025222
Converting the step to Cartesian space:
 Initial RMS(Int)=    0.0254723579
Transforming coordinates:
 Iter   0:  RMS(Cart)=    0.0116622439 RMS(Int)=    0.0254875994
done
Storing new coordinates                 .... done
The predicted energy change is          ....    -0.000028199
Previously predicted energy change      ....    -0.000046763
Actually observed energy change         ....    -0.000066796
Ratio of predicted to observed change   ....     1.428401210
New trust radius                        ....     0.300000000

                                .--------------------.
          ----------------------|Geometry convergence|-------------------------
          Item                value                   Tolerance       Converged
          ---------------------------------------------------------------------
          Energy change      -0.0000667963            0.0000050000      NO
          RMS gradient        0.0002111570            0.0001000000      NO
          MAX gradient        0.0007146152            0.0003000000      NO
          RMS step            0.0254723579            0.0020000000      NO
          MAX step            0.0554767768            0.0040000000      NO
          -------------------------------------------------------------------------
          ........................................................
          Max(Bonds)      0.0294      Max(Angles)    0.01
          Max(Dihed)        0.00      Max(Improp)    0.00
          ---------------------------------------------------------------------

The optimization has not yet converged - more geometry cycles are needed


    ---------------------------------------------------------------------------
                         Redundant Internal Coordinates
                            (Angstroem and degrees)

        Definition                    Value    dE/dq     Step     New-Value
    ----------------------------------------------------------------------------
     1. B(H   1,C   0)                1.0777 -0.000114  0.0002    1.0779   
     2. B(H   2,C   0)                1.0777 -0.000109  0.0002    1.0779   
     3. B(H   3,C   0)                1.0777 -0.000095  0.0001    1.0778   
     4. B(Cl  4,H   2)                2.6725 -0.000230  0.0271    2.6996   
     5. B(Cl  4,H   3)                2.6725 -0.000230  0.0271    2.6995   
     6. B(Cl  4,H   1)                2.6725 -0.000230  0.0271    2.6996   
     7. B(Cl  4,C   0)                2.7988 -0.000232  0.0294    2.8281   
     8. B(I   5,C   0)                2.1743  0.000715 -0.0055    2.1688   
     9. A(H   1,C   0,H   3)          111.01 -0.000006   -0.00    111.01   
    10. A(H   2,C   0,H   3)          111.01 -0.000012    0.00    111.01   
    11. A(H   1,C   0,I   5)          107.88  0.000008    0.00    107.88   
    12. A(H   2,C   0,I   5)          107.88  0.000005    0.00    107.88   
    13. A(H   3,C   0,I   5)          107.88 -0.000003    0.01    107.88   
    14. A(H   1,C   0,Cl  4)           72.12 -0.000003   -0.00     72.12   
    15. A(H   2,C   0,Cl  4)           72.12 -0.000003   -0.00     72.12   
    16. A(H   3,C   0,Cl  4)           72.12 -0.000004   -0.00     72.12   
    17. A(H   1,C   0,H   2)          111.02  0.000008   -0.01    111.01   
    ----------------------------------------------------------------------------

Geometry step timings:
Preparation and reading OPT file:      0.000 s ( 2.831 %)
Internal coordinates            :      0.000 s ( 2.960 %)
B/P matrices and projection     :      0.000 s (10.875 %)
Hessian update/contruction      :      0.001 s (41.506 %)
Making the step                 :      0.000 s ( 7.143 %)
Converting the step to Cartesian:      0.000 s ( 3.604 %)
Storing new data                :      0.000 s ( 6.692 %)
Checking convergence            :      0.000 s ( 5.856 %)
Final printing                  :      0.000 s (18.468 %)
Total time                      :      0.002 s

Time for energy+gradient        :      0.181 s
Time for complete geometry iter :      0.186 s

         *************************************************************
         *                GEOMETRY OPTIMIZATION CYCLE   3            *
         *************************************************************
---------------------------------
CARTESIAN COORDINATES (ANGSTROEM)
---------------------------------
  C     0.000057    0.000056   -0.285518
  H     0.000040    1.025858    0.045473
  H     0.888404   -0.512855    0.045470
  H    -0.888259   -0.512820    0.045453
  Cl    0.000007    0.000004    2.542573
  I     0.000065    0.000062   -2.454297

----------------------------
CARTESIAN COORDINATES (A.U.)
----------------------------
  NO LB    ZA    FRAG    MASS        X           Y           Z
   0 C   6.0000    0    12.011    0.000107    0.000107   -0.539551
   1 H   1.0000    0     1.008    0.000075    1.938591    0.085931
   2 H   1.0000    0     1.008    1.678840   -0.969156    0.085926
   3 H   1.0000    0     1.008   -1.678566   -0.969089    0.085894
   4 Cl 17.0000    0    35.453    0.000013    0.000008    4.804767
   5 I  53.0000    0   126.900    0.000124    0.000117   -4.637949

      -----------------------------------------------------------      
     |                   =====================                   |     
     |                           x T B                           |     
     |                   =====================                   |     
     |                         S. Grimme                         |     
     |          Mulliken Center for Theoretical Chemistry        |     
     |                    University of Bonn                     |     
      -----------------------------------------------------------      

   * xtb version 6.7.1 (edcfbbe) compiled by 'albert@albert-system' on 2024-07-22

   xtb is free software: you can redistribute it and/or modify it under
   the terms of the GNU Lesser General Public License as published by
   the Free Software Foundation, either version 3 of the License, or
   (at your option) any later version.
   
   xtb is distributed in the hope that it will be useful,
   but WITHOUT ANY WARRANTY; without even the implied warranty of
   MERCHANTABILITY or FITNESS FOR A PARTICULAR PURPOSE.  See the
   GNU Lesser General Public License for more details.
   
   Cite this work as:
   * C. Bannwarth, E. Caldeweyher, S. Ehlert, A. Hansen, P. Pracht,
     J. Seibert, S. Spicher, S. Grimme, WIREs Comput. Mol. Sci., 2020, 11,
     e01493. DOI: 10.1002/wcms.1493
   
   for GFN2-xTB:
   * C. Bannwarth, S. Ehlert and S. Grimme., J. Chem. Theory Comput., 2019,
     15, 1652-1671. DOI: 10.1021/acs.jctc.8b01176
   for GFN1-xTB:
   * S. Grimme, C. Bannwarth, P. Shushkov, J. Chem. Theory Comput., 2017,
     13, 1989-2009. DOI: 10.1021/acs.jctc.7b00118
   for GFN0-xTB:
   * P. Pracht, E. Caldeweyher, S. Ehlert, S. Grimme, ChemRxiv, 2019, preprint.
     DOI: 10.26434/chemrxiv.8326202.v1
   for GFN-FF:
   * S. Spicher and S. Grimme, Angew. Chem. Int. Ed., 2020, 59, 15665-15673.
     DOI: 10.1002/anie.202004239
   
   for ALPB and GBSA implicit solvation:
   * S. Ehlert, M. Stahn, S. Spicher, S. Grimme, J. Chem. Theory Comput.,
     2021, 17, 4250-4261. DOI: 10.1021/acs.jctc.1c00471
   
   for ddCOSMO and CPCM-X implicit solvation:
   * M. Stahn, S. Ehlert, S. Grimme, J. Phys. Chem. A,
     2023, XX, XXXX-XXXX. DOI: 10.1021/acs.jpca.3c04382
   
   for DFT-D4:
   * E. Caldeweyher, C. Bannwarth and S. Grimme, J. Chem. Phys., 2017,
     147, 034112. DOI: 10.1063/1.4993215
   * E. Caldeweyher, S. Ehlert, A. Hansen, H. Neugebauer, S. Spicher,
     C. Bannwarth and S. Grimme, J. Chem. Phys., 2019, 150, 154122.
     DOI: 10.1063/1.5090222
   * E. Caldeweyher, J.-M. Mewes, S. Ehlert and S. Grimme, Phys. Chem. Chem. Phys.
     2020, 22, 8499-8512. DOI: 10.1039/D0CP00502A
   
   for sTDA-xTB:
   * S. Grimme and C. Bannwarth, J. Chem. Phys., 2016, 145, 054103.
     DOI: 10.1063/1.4959605
   
   in the mass-spec context:
   * V. Asgeirsson, C. Bauer and S. Grimme, Chem. Sci., 2017, 8, 4879.
     DOI: 10.1039/c7sc00601b
   * J. Koopman and S. Grimme, ACS Omega 2019, 4, 12, 15120-15133.
     DOI: 10.1021/acsomega.9b02011
   
   for metadynamics refer to:
   * S. Grimme, J. Chem. Theory Comput., 2019, 155, 2847-2862
     DOI: 10.1021/acs.jctc.9b00143
   
   for SPH calculations refer to:
   * S. Spicher and S. Grimme, J. Chem. Theory Comput., 2021, 17, 1701-1714
     DOI: 10.1021/acs.jctc.0c01306
   
   for ONIOM refer to:
   * C. Plett, A. Katbashev, S. Ehlert, S. Grimme, M. Bursch,
     Phys. Chem. Chem. Phys., 2023, 25, 17860-17868. DOI: 10.1039/D3CP02178E
   
   for DIPRO refer to:
   * J. Kohn, N. Gildemeister, S. Grimme, D. Fazzi, A. Hansen,
     J. Chem. Phys., 2023, just accepted.
   
   for PTB refer to:
   * S. Grimme, M. Mueller, A. Hansen, J. Chem. Phys., 2023, 158, 124111.
     DOI: 10.1063/5.0137838
   
   with help from (in alphabetical order)
   P. Atkinson, C. Bannwarth, F. Bohle, G. Brandenburg, E. Caldeweyher
   M. Checinski, S. Dohm, S. Ehlert, S. Ehrlich, I. Gerasimov, C. Hölzer
   A. Katbashev, J. Kohn, J. Koopman, C. Lavigne, S. Lehtola, F. März, M. Müller,
   F. Musil, H. Neugebauer, J. Pisarek, C. Plett, P. Pracht, F. Pultar,
   J. Seibert, P. Shushkov, S. Spicher, M. Stahn, M. Steiner, T. Strunk,
   J. Stückrath, T. Rose, and J. Unsleber
   
 * started run on 2026/03/12 at 12:47:14.473     
   ID    Z sym.   atoms
    1    6 C      1
    2    1 H      2-4
    3   17 Cl     5
    4   53 I      6

           -------------------------------------------------
          |                Calculation Setup                |
           -------------------------------------------------

          program call               : /software/orca-6.1.0-el8-x86_64/bin/otool_xtb product_optfreq_XTB.xyz --grad -c -1 -u 0 -P 8 --namespace product_optfreq --input product_optfreq_XTB.input.tmp --acc 0.200000
          hostname                   : midway3-login4.rcc.local
          calculation namespace      : product_optfreq
          coordinate file            : product_optfreq_XTB.xyz
          omp threads                :                     8


molecular fragmentation (1/2 indicates fragments):
111121
# atoms in fragment 1/2:     5     1
 fragment masses (1/2) :      141.94       35.45
CMA distance (Bohr)    :   8.995
constraining FC (au)   :  0.0500

           -------------------------------------------------
          |                 G F N 2 - x T B                 |
           -------------------------------------------------

        Reference                      10.1021/acs.jctc.8b01176
      * Hamiltonian:
        H0-scaling (s, p, d)           1.850000    2.230000    2.230000
        zeta-weighting                 0.500000
      * Dispersion:
        s8                             2.700000
        a1                             0.520000
        a2                             5.000000
        s9                             5.000000
      * Repulsion:
        kExp                           1.500000    1.000000
        rExp                           1.000000
      * Coulomb:
        alpha                          2.000000
        third order                    shell-resolved
        anisotropic                    true
        a3                             3.000000
        a5                             4.000000
        cn-shift                       1.200000
        cn-exp                         4.000000
        max-rad                        5.000000

q/qsh data taken from xtbrestart
CAMM data taken from xtbrestart

          ...................................................
          :                      SETUP                      :
          :.................................................:
          :  # basis functions                  27          :
          :  # atomic orbitals                  25          :
          :  # shells                           11          :
          :  # electrons                        22          :
          :  max. iterations                   250          :
          :  Hamiltonian                  GFN2-xTB          :
          :  restarted?                       true          :
          :  GBSA solvation                  false          :
          :  PC potential                    false          :
          :  electronic temp.          300.0000000     K    :
          :  accuracy                    0.2000000          :
          :  -> integral cutoff          0.3198970E+02      :
          :  -> integral neglect         0.2000000E-08      :
          :  -> SCF convergence          0.2000000E-06 Eh   :
          :  -> wf. convergence          0.2000000E-04 e    :
          :  Broyden damping             0.4000000          :
          :  net charge                         -1          :
          :  unpaired electrons                  0          :
          ...................................................

 iter      E             dE          RMSdq      gap      omega  full diag
   1    -12.3416709 -0.123417E+02  0.129E-01    2.77       0.0  T
   2    -12.3416788 -0.795153E-05  0.485E-02    2.74       1.0  T
   3    -12.3416803 -0.150470E-05  0.221E-02    2.73       1.8  T
   4    -12.3416804 -0.534661E-07  0.190E-02    2.73       2.2  T
   5    -12.3416805 -0.120032E-06  0.431E-03    2.73       9.5  T
   6    -12.3416805 -0.131433E-07  0.150E-03    2.73      27.2  T
   7    -12.3416805 -0.892060E-09  0.991E-04    2.73      41.2  T
   8    -12.3416805 -0.258019E-09  0.129E-04    2.73     316.2  T
   9    -12.3416805 -0.941114E-11  0.441E-05    2.73     925.6  T

   *** convergence criteria satisfied after 9 iterations ***

         #    Occupation            Energy/Eh            Energy/eV
      -------------------------------------------------------------
         1        2.0000           -0.8010645             -21.7981
       ...           ...                  ...                  ...
         5        2.0000           -0.3635295              -9.8921
         6        2.0000           -0.3479255              -9.4675
         7        2.0000           -0.2860036              -7.7826
         8        2.0000           -0.2860033              -7.7825
         9        2.0000           -0.2001070              -5.4452
        10        2.0000           -0.1990494              -5.4164
        11        2.0000           -0.1990494              -5.4164 (HOMO)
        12                         -0.0988213              -2.6891 (LUMO)
        13                          0.1538209               4.1857
        14                          0.1538215               4.1857
        15                          0.1831899               4.9849
        16                          0.1831904               4.9849
       ...                                ...                  ...
        25                          0.4829344              13.1413
      -------------------------------------------------------------
                  HL-Gap            0.1002281 Eh            2.7273 eV
             Fermi-level           -0.1489353 Eh           -4.0527 eV

 SCC (total)                   0 d,  0 h,  0 min,  0.090 sec
 SCC setup                      ...        0 min,  0.000 sec (  0.333%)
 Dispersion                     ...        0 min,  0.000 sec (  0.075%)
 classical contributions        ...        0 min,  0.000 sec (  0.041%)
 integral evaluation            ...        0 min,  0.088 sec ( 96.899%)
 iterations                     ...        0 min,  0.002 sec (  1.741%)
 molecular gradient             ...        0 min,  0.001 sec (  0.733%)
 printout                       ...        0 min,  0.000 sec (  0.147%)

         :::::::::::::::::::::::::::::::::::::::::::::::::::::
         ::                     SUMMARY                     ::
         :::::::::::::::::::::::::::::::::::::::::::::::::::::
         :: total energy             -12.280396193443 Eh    ::
         :: gradient norm              0.000754584161 Eh/a0 ::
         :: HOMO-LUMO gap              2.727345904231 eV    ::
         ::.................................................::
         :: SCC energy               -12.341681418687 Eh    ::
         :: -> isotropic ES            0.146494002791 Eh    ::
         :: -> anisotropic ES         -0.008756225530 Eh    ::
         :: -> anisotropic XC         -0.003512554633 Eh    ::
         :: -> dispersion             -0.003160453625 Eh    ::
         :: repulsion energy           0.061285225244 Eh    ::
         :: add. restraining           0.000000000000 Eh    ::
         :: total charge              -1.000000000000 e     ::
         :::::::::::::::::::::::::::::::::::::::::::::::::::::


Property printout bound to 'properties.out'

           -------------------------------------------------
          | TOTAL ENERGY              -12.280396193443 Eh   |
          | GRADIENT NORM               0.000754584161 Eh/α |
          | HOMO-LUMO GAP               2.727345904231 eV   |
           -------------------------------------------------

------------------------------------------------------------------------
 * finished run on 2026/03/12 at 12:47:14.658     
------------------------------------------------------------------------
 total:
 * wall-time:     0 d,  0 h,  0 min,  0.184 sec
 *  cpu-time:     0 d,  0 h,  0 min,  0.589 sec
 * ratio c/w:     3.206 speedup
 SCF:
 * wall-time:     0 d,  0 h,  0 min,  0.091 sec
 *  cpu-time:     0 d,  0 h,  0 min,  0.426 sec
 * ratio c/w:     4.706 speedup


-------------------------   --------------------
FINAL SINGLE POINT ENERGY       -12.280396193440
-------------------------   --------------------


-------------
DIPOLE MOMENT
-------------
                                X             Y             Z
Total Dipole Moment    :     -0.00000      -0.00000      -2.06600
                        -----------------------------------------
Magnitude (a.u.)       :      2.06600
Magnitude (Debye)      :      5.25135


------------------
CARTESIAN GRADIENT
------------------

   1   C   :   -0.000021531   -0.000020224    0.000640736
   2   H   :   -0.000002992   -0.000087724   -0.000182417
   3   H   :   -0.000086240    0.000045194   -0.000185004
   4   H   :    0.000110881    0.000062876   -0.000193379
   5   Cl  :    0.000000005   -0.000000009   -0.000130681
   6   I   :   -0.000000123   -0.000000114    0.000050744

Difference to translation invariance:
           :    0.0000000000    0.0000000000    0.0000000000

Difference to rotation invariance:
           :   -0.0000000010    0.0000000011   -0.0000000000

Norm of the Cartesian gradient     ...    0.0007545842
RMS gradient                       ...    0.0001778572
MAX gradient                       ...    0.0006407357
------------------------------------------------------------------------------
                         ORCA GEOMETRY RELAXATION STEP
------------------------------------------------------------------------------

Reading the OPT-File                    .... done
Getting information on internals        .... done
Copying old internal coords+grads       .... done
Making the new internal coordinates     .... (2022 redundants) done
Validating the new internal coordinates .... (2022 redundants) done
Calculating the B-matrix                .... done
Calculating the G,G- and P matrices     .... done
Transforming gradient to internals      .... done
Projecting the internal gradient        .... done
Number of atoms                         ....   6
Number of internal coordinates          ....  17
Current Energy                          ....   -12.280396193 Eh
Current gradient norm                   ....     0.000754584 Eh/bohr
Maximum allowed component of the step   ....  0.300
Current trust radius                    ....  0.300
Updating the Hessian (BFGS)             .... done
Forming the augmented Hessian           .... done
Diagonalizing the augmented Hessian     .... done
Last element of RFO vector              ....  0.999829788
Lowest eigenvalues of augmented Hessian:
 -0.000002087  0.004036676  0.046392820  0.046404318  0.137526514
Length of the computed step             ....  0.018452933
The final length of the internal step   ....  0.018452933
Converting the step to Cartesian space:
 Initial RMS(Int)=    0.0044754937
Transforming coordinates:
 Iter   0:  RMS(Cart)=    0.0021036883 RMS(Int)=    0.0044758904
done
Storing new coordinates                 .... done
The predicted energy change is          ....    -0.000001044
Previously predicted energy change      ....    -0.000028199
Actually observed energy change         ....    -0.000030910
Ratio of predicted to observed change   ....     1.096127604
New trust radius                        ....     0.450000000

                                .--------------------.
          ----------------------|Geometry convergence|-------------------------
          Item                value                   Tolerance       Converged
          ---------------------------------------------------------------------
          Energy change      -0.0000309098            0.0000050000      NO
          RMS gradient        0.0001036326            0.0001000000      NO
          MAX gradient        0.0001818426            0.0003000000      YES
          RMS step            0.0044754937            0.0020000000      NO
          MAX step            0.0105601874            0.0040000000      NO
          -------------------------------------------------------------------------
          ........................................................
          Max(Bonds)      0.0056      Max(Angles)    0.03
          Max(Dihed)        0.00      Max(Improp)    0.00
          ---------------------------------------------------------------------

The optimization has not yet converged - more geometry cycles are needed


    ---------------------------------------------------------------------------
                         Redundant Internal Coordinates
                            (Angstroem and degrees)

        Definition                    Value    dE/dq     Step     New-Value
    ----------------------------------------------------------------------------
     1. B(H   1,C   0)                1.0779 -0.000141  0.0002    1.0781   
     2. B(H   2,C   0)                1.0779 -0.000151  0.0003    1.0781   
     3. B(H   3,C   0)                1.0778 -0.000182  0.0003    1.0781   
     4. B(Cl  4,H   2)                2.6996  0.000015  0.0046    2.7042   
     5. B(Cl  4,H   3)                2.6996  0.000015  0.0046    2.7041   
     6. B(Cl  4,H   1)                2.6996  0.000016  0.0046    2.7042   
     7. B(Cl  4,C   0)                2.8281 -0.000173  0.0056    2.8337   
     8. B(I   5,C   0)                2.1688 -0.000051 -0.0003    2.1685   
     9. A(H   1,C   0,H   3)          111.01  0.000085   -0.03    110.98   
    10. A(H   2,C   0,H   3)          111.01  0.000083   -0.03    110.98   
    11. A(H   1,C   0,I   5)          107.88 -0.000092    0.03    107.91   
    12. A(H   2,C   0,I   5)          107.88 -0.000092    0.03    107.92   
    13. A(H   3,C   0,I   5)          107.88 -0.000093    0.03    107.92   
    14. A(H   1,C   0,Cl  4)           72.12  0.000092   -0.03     72.09   
    15. A(H   2,C   0,Cl  4)           72.12  0.000092   -0.03     72.09   
    16. A(H   3,C   0,Cl  4)           72.12  0.000093   -0.03     72.08   
    17. A(H   1,C   0,H   2)          111.01  0.000092   -0.03    110.98   
    ----------------------------------------------------------------------------

Geometry step timings:
Preparation and reading OPT file:      0.000 s ( 2.798 %)
Internal coordinates            :      0.000 s ( 3.517 %)
B/P matrices and projection     :      0.000 s (13.749 %)
Hessian update/contruction      :      0.000 s (29.496 %)
Making the step                 :      0.000 s ( 8.393 %)
Converting the step to Cartesian:      0.000 s ( 3.197 %)
Storing new data                :      0.000 s ( 7.194 %)
Checking convergence            :      0.000 s ( 8.233 %)
Final printing                  :      0.000 s (23.261 %)
Total time                      :      0.001 s

Time for energy+gradient        :      0.196 s
Time for complete geometry iter :      0.199 s

         *************************************************************
         *                GEOMETRY OPTIMIZATION CYCLE   4            *
         *************************************************************
---------------------------------
CARTESIAN COORDINATES (ANGSTROEM)
---------------------------------
  C     0.000057    0.000056   -0.286828
  H     0.000055    1.025902    0.044811
  H     0.888463   -0.512866    0.044812
  H    -0.888346   -0.512864    0.044811
  Cl    0.000010    0.000008    2.546849
  I     0.000074    0.000070   -2.455301

----------------------------
CARTESIAN COORDINATES (A.U.)
----------------------------
  NO LB    ZA    FRAG    MASS        X           Y           Z
   0 C   6.0000    0    12.011    0.000107    0.000106   -0.542027
   1 H   1.0000    0     1.008    0.000103    1.938674    0.084680
   2 H   1.0000    0     1.008    1.678952   -0.969177    0.084683
[...]
        25                          0.4831869              13.1482
      -------------------------------------------------------------
                  HL-Gap            0.0997491 Eh            2.7143 eV
             Fermi-level           -0.1489952 Eh           -4.0544 eV

 SCC (total)                   0 d,  0 h,  0 min,  0.153 sec
 SCC setup                      ...        0 min,  0.000 sec (  0.129%)
 Dispersion                     ...        0 min,  0.000 sec (  0.035%)
 classical contributions        ...        0 min,  0.000 sec (  0.022%)
 integral evaluation            ...        0 min,  0.149 sec ( 97.368%)
 iterations                     ...        0 min,  0.002 sec (  1.026%)
 molecular gradient             ...        0 min,  0.002 sec (  1.284%)
 printout                       ...        0 min,  0.000 sec (  0.122%)

         :::::::::::::::::::::::::::::::::::::::::::::::::::::
         ::                     SUMMARY                     ::
         :::::::::::::::::::::::::::::::::::::::::::::::::::::
         :: total energy             -12.280397856023 Eh    ::
         :: gradient norm              0.000326808029 Eh/a0 ::
         :: HOMO-LUMO gap              2.714310225043 eV    ::
         ::.................................................::
         :: SCC energy               -12.341572817692 Eh    ::
         :: -> isotropic ES            0.146647710761 Eh    ::
         :: -> anisotropic ES         -0.008742186919 Eh    ::
         :: -> anisotropic XC         -0.003502061061 Eh    ::
         :: -> dispersion             -0.003156710335 Eh    ::
         :: repulsion energy           0.061174961669 Eh    ::
         :: add. restraining           0.000000000000 Eh    ::
         :: total charge              -1.000000000000 e     ::
         :::::::::::::::::::::::::::::::::::::::::::::::::::::

           ------------------------------------------------- 
          |                Numerical Hessian                |
           ------------------------------------------------- 
step length          :   0.00500
SCC accuracy         :   0.30000
Hessian scale factor :   1.00000
frozen atoms in %    :   0.00000    0
RMS gradient         :   0.00033
estimated CPU  time      0.00 min
estimated wall time      0.00 min

writing file <hessian>.

 projected vibrational frequencies (cm⁻¹)
eigval :       -0.00    -0.00    -0.00    -0.00     0.00     0.00
eigval :       88.17    89.02   112.56   483.49   914.20   914.23
eigval :     1268.89  1436.26  1440.20  3102.02  3122.92  3123.00

Property printout bound to 'properties.out'
Molecule has the following symmetry elements: (C3) 3*(sigma) 
It seems to be the C3v point group

           -------------------------------------------------
          | TOTAL ENERGY              -12.280397856023 Eh   |
          | TOTAL ENTHALPY            -12.237365354320 Eh   |
          | TOTAL FREE ENERGY         -12.273718415876 Eh   |
          | GRADIENT NORM               0.000326816481 Eh/α |
          | HOMO-LUMO GAP               2.714310367213 eV   |
           -------------------------------------------------

------------------------------------------------------------------------
 * finished run on 2026/03/12 at 12:47:15.180     
------------------------------------------------------------------------
 total:
 * wall-time:     0 d,  0 h,  0 min,  0.191 sec
 *  cpu-time:     0 d,  0 h,  0 min,  0.798 sec
 * ratio c/w:     4.180 speedup
 SCF:
 * wall-time:     0 d,  0 h,  0 min,  0.153 sec
 *  cpu-time:     0 d,  0 h,  0 min,  0.548 sec
 * ratio c/w:     3.577 speedup
 analytical hessian:
 * wall-time:     0 d,  0 h,  0 min,  0.022 sec
 *  cpu-time:     0 d,  0 h,  0 min,  0.175 sec
 * ratio c/w:     7.903 speedup


-------------------------   --------------------
FINAL SINGLE POINT ENERGY       -12.280397856020
-------------------------   --------------------


-------------
DIPOLE MOMENT
-------------
                                X             Y             Z
Total Dipole Moment    :     -0.00000      -0.00000      -2.08600
                        -----------------------------------------
Magnitude (a.u.)       :      2.08600
Magnitude (Debye)      :      5.30219


-----------------------
VIBRATIONAL FREQUENCIES
-----------------------

Scaling factor for frequencies =  1.000000000  (already applied!)

     0:       0.00 cm**-1
     1:       0.00 cm**-1
     2:       0.00 cm**-1
     3:       0.00 cm**-1
     4:       0.00 cm**-1
     5:       0.00 cm**-1
     6:      88.17 cm**-1
     7:      89.02 cm**-1
     8:     112.56 cm**-1
     9:     483.48 cm**-1
    10:     914.17 cm**-1
    11:     914.21 cm**-1
    12:    1268.85 cm**-1
    13:    1436.22 cm**-1
    14:    1440.16 cm**-1
    15:    3101.93 cm**-1
    16:    3122.83 cm**-1
    17:    3122.92 cm**-1


------------
NORMAL MODES
------------

These modes are the Cartesian displacements weighted by the diagonal matrix
M(i,i)=1/sqrt(m[i]) where m[i] is the mass of the displaced atom
Thus, these vectors are normalized but *not* orthogonal

                  0          1          2          3          4          5    
      0       0.000000   0.000000   0.000000   0.000000   0.000000   0.000000
      1       0.000000   0.000000   0.000000   0.000000   0.000000   0.000000
      2       0.000000   0.000000   0.000000   0.000000   0.000000   0.000000
      3       0.000000   0.000000   0.000000   0.000000   0.000000   0.000000
      4       0.000000   0.000000   0.000000   0.000000   0.000000   0.000000
      5       0.000000   0.000000   0.000000   0.000000   0.000000   0.000000
      6       0.000000   0.000000   0.000000   0.000000   0.000000   0.000000
      7       0.000000   0.000000   0.000000   0.000000   0.000000   0.000000
      8       0.000000   0.000000   0.000000   0.000000   0.000000   0.000000
      9       0.000000   0.000000   0.000000   0.000000   0.000000   0.000000
     10       0.000000   0.000000   0.000000   0.000000   0.000000   0.000000
     11       0.000000   0.000000   0.000000   0.000000   0.000000   0.000000
     12       0.000000   0.000000   0.000000   0.000000   0.000000   0.000000
     13       0.000000   0.000000   0.000000   0.000000   0.000000   0.000000
     14       0.000000   0.000000   0.000000   0.000000   0.000000   0.000000
     15       0.000000   0.000000   0.000000   0.000000   0.000000   0.000000
     16       0.000000   0.000000   0.000000   0.000000   0.000000   0.000000
     17       0.000000   0.000000   0.000000   0.000000   0.000000   0.000000
                  6          7          8          9         10         11    
      0      -0.428939   0.000955  -0.000080   0.000002   0.102523  -0.006473
      1       0.000954   0.428932   0.000422  -0.000025  -0.006467  -0.102376
      2       0.000003   0.000003  -0.245762  -0.642031   0.000000   0.000001
      3      -0.492121   0.001124  -0.000092  -0.000001  -0.245355   0.015498
      4       0.001113   0.500004  -0.012914  -0.049852   0.009887   0.156553
      5      -0.000472  -0.213080  -0.177891  -0.437844  -0.047778  -0.756606
      6      -0.498481  -0.001876  -0.011712  -0.043137  -0.176234   0.049612
      7       0.004710   0.494776   0.007173   0.024915  -0.024438   0.225337
      8       0.185501   0.106165  -0.177550  -0.437843   0.679071   0.336952
      9      -0.498468   0.004064   0.011526   0.043135  -0.181071  -0.027051
     10      -0.002508   0.494841   0.007172   0.024916   0.052593   0.220476
     11      -0.185018   0.106982  -0.177614  -0.437860  -0.631267   0.419684
     12       0.085992  -0.000191   0.000005   0.000001   0.000127  -0.000008
     13      -0.000191  -0.085991  -0.000095   0.000005  -0.000009  -0.000145
     14      -0.000016  -0.000085   0.891752  -0.003289   0.000000   0.000000
     15       0.028403  -0.000063   0.000008  -0.000000  -0.004952   0.000313
     16      -0.000063  -0.028407  -0.000025   0.000001   0.000312   0.004946
     17       0.000004   0.000023  -0.221640   0.072121  -0.000000  -0.000000
                 12         13         14         15         16         17    
      0       0.000001   0.000021  -0.072184  -0.000114  -0.090014  -0.020338
      1       0.000014   0.072367   0.000022  -0.000185  -0.020339   0.090024
      2       0.094134  -0.000015   0.000000   0.037909  -0.000067   0.000067
      3      -0.000005  -0.000216   0.749099  -0.000052  -0.039916  -0.009023
      4       0.179996   0.123264   0.000032  -0.553637   0.171508  -0.755730
      5      -0.545934  -0.294499  -0.000085  -0.156540   0.054545  -0.240465
      6       0.155797  -0.377887   0.095235  -0.480727   0.479273   0.468618
      7      -0.090067  -0.531083   0.377285   0.277513  -0.308627  -0.236503
      8      -0.545843   0.147275   0.255514  -0.157006   0.180991   0.166779
      9      -0.155802   0.377826   0.095454   0.482142   0.632938  -0.217322
     10      -0.090066  -0.530861  -0.377599   0.278391   0.379597  -0.081001
     11      -0.545858   0.147429  -0.255433  -0.157537  -0.234703   0.072856
     12       0.000000   0.000000  -0.000177   0.000000   0.000077   0.000017
     13      -0.000001   0.000138   0.000000  -0.000001   0.000015  -0.000067
     14       0.002714  -0.000001   0.000000   0.000237  -0.000000   0.000000
     15      -0.000000   0.000000  -0.000583  -0.000000  -0.000019  -0.000004
     16      -0.000000   0.000568   0.000000  -0.000000  -0.000005   0.000023
     17       0.003340   0.000000  -0.000000   0.000088  -0.000000   0.000000


The first frequency considered to be a vibration is 6
The total number of vibrations considered is 12


--------------------------
THERMOCHEMISTRY AT 298.15K
--------------------------

Temperature         ...   298.15 K
Pressure            ...     1.00 atm
Total Mass          ...   177.39 AMU
Quasi RRHO          ...     True
Cut-Off Frequency   ...     1.00 cm^-1

Throughout the following assumptions are being made:
  (1) The electronic state is orbitally nondegenerate
  (2) There are no thermally accessible electronically excited states
  (3) Hindered rotations indicated by low frequency modes are not
      treated as such but are treated as vibrations and this may
      cause some error
  (4) All equations used are the standard statistical mechanics
      equations for an ideal gas
  (5) All vibrations are strictly harmonic

freq.      88.17  E(vib)   ...       0.48 
freq.      89.02  E(vib)   ...       0.47 
freq.     112.56  E(vib)   ...       0.45 
freq.     483.48  E(vib)   ...       0.15 
freq.     914.17  E(vib)   ...       0.03 
freq.     914.21  E(vib)   ...       0.03 
freq.    1268.85  E(vib)   ...       0.01 
freq.    1436.22  E(vib)   ...       0.00 
freq.    1440.16  E(vib)   ...       0.00 
freq.    3101.93  E(vib)   ...       0.00 
freq.    3122.83  E(vib)   ...       0.00 
freq.    3122.92  E(vib)   ...       0.00 

------------
INNER ENERGY
------------

The inner energy is: U= E(el) + E(ZPE) + E(vib) + E(rot) + E(trans)
    E(el)   - is the total energy from the electronic structure calculation
              = E(kin-el) + E(nuc-el) + E(el-el) + E(nuc-nuc)
    E(ZPE)  - the the zero temperature vibrational energy from the frequency calculation
    E(vib)  - the the finite temperature correction to E(ZPE) due to population
              of excited vibrational states
    E(rot)  - is the rotational thermal energy
    E(trans)- is the translational thermal energy

Summary of contributions to the inner energy U:
Electronic energy                ...    -12.28039786 Eh
Zero point energy                ...      0.03666599 Eh      23.01 kcal/mol
Thermal vibrational correction   ...      0.00258872 Eh       1.62 kcal/mol
Thermal rotational correction    ...      0.00141627 Eh       0.89 kcal/mol
Thermal translational correction ...      0.00141627 Eh       0.89 kcal/mol
-----------------------------------------------------------------------
Total thermal energy                    -12.23831060 Eh


Summary of corrections to the electronic energy:
(perhaps to be used in another calculation)
Total thermal correction                  0.00542127 Eh       3.40 kcal/mol
Non-thermal (ZPE) correction              0.03666599 Eh      23.01 kcal/mol
-----------------------------------------------------------------------
Total correction                          0.04208726 Eh      26.41 kcal/mol


--------
ENTHALPY
--------

The enthalpy is H = U + kB*T
                kB is Boltzmann's constant
Total thermal energy              ...    -12.23831060 Eh 
Thermal Enthalpy correction       ...      0.00094421 Eh       0.59 kcal/mol
-----------------------------------------------------------------------
Total Enthalpy                    ...    -12.23736639 Eh


WARNING (ORCA/SYM): The number of Z matrix atoms does not agree with
the number of centers in the basis set. The point group will therefore
be determined without considering basis set information.


Note: Rotational entropy computed according to Herzberg 
Infrared and Raman Spectra, Chapter V,1, Van Nostrand Reinhold, 1945 
Point Group:  C3v, Symmetry Number:   3  
Rotational constants in cm-1:     5.298544     0.023624     0.023624 

Vibrational entropy computed according to the QRRHO of S. Grimme
Chem.Eur.J. 2012 18 9955 using a reference frequency of 100.0 cm-1


-------
ENTROPY
-------

The entropy contributions are T*S = T*(S(el)+S(vib)+S(rot)+S(trans))
     S(el)   - electronic entropy
     S(vib)  - vibrational entropy
     S(rot)  - rotational entropy
     S(trans)- translational entropy
The entropies will be listed as multiplied by the temperature to get
units of energy

Electronic entropy                ...      0.00000000 Eh      0.00 kcal/mol
Vibrational entropy               ...      0.00501791 Eh      3.15 kcal/mol
Rotational entropy                ...      0.01122277 Eh      7.04 kcal/mol
Translational entropy             ...      0.01968301 Eh     12.35 kcal/mol
-----------------------------------------------------------------------
Final entropy term                ...      0.03592369 Eh     22.54 kcal/mol

In case the symmetry of your molecule has not been determined correctly
or in case you have a reason to use a different symmetry number we print 
out the resulting rotational entropy values for sn=1,12:

 non-linear molecules -----------------------------------
|  sn= 1 | S(rot)=       0.01226005 Eh      7.69 kcal/mol|
|  sn= 2 | S(rot)=       0.01160560 Eh      7.28 kcal/mol|
|  sn= 3 | S(rot)=       0.01122277 Eh      7.04 kcal/mol|
|  sn= 4 | S(rot)=       0.01095114 Eh      6.87 kcal/mol|
|  sn= 5 | S(rot)=       0.01074045 Eh      6.74 kcal/mol|
|  sn= 6 | S(rot)=       0.01056831 Eh      6.63 kcal/mol|
|  sn= 7 | S(rot)=       0.01042276 Eh      6.54 kcal/mol|
|  sn= 8 | S(rot)=       0.01029668 Eh      6.46 kcal/mol|
|  sn= 9 | S(rot)=       0.01018548 Eh      6.39 kcal/mol|
|  sn=10 | S(rot)=       0.01008600 Eh      6.33 kcal/mol|
|  sn=11 | S(rot)=       0.00999601 Eh      6.27 kcal/mol|
|  sn=12 | S(rot)=       0.00991385 Eh      6.22 kcal/mol|
 linear molecules ---------------------------------------
|  Dinfh | S(rot)=       0.00886223 Eh      5.56 kcal/mol|
|  Cinfv | S(rot)=       0.00951669 Eh      5.97 kcal/mol|
 --------------------------------------------------------


-------------------
GIBBS FREE ENERGY
-------------------

The Gibbs free energy is G = H - T*S

Total enthalpy                    ...    -12.23736639 Eh 
Total entropy correction          ...     -0.03592369 Eh    -22.54 kcal/mol
-----------------------------------------------------------------------
Final Gibbs free energy         ...    -12.27329008 Eh

For completeness - the Gibbs free energy minus the electronic energy
G-E(el)                           ...      0.00710778 Eh      4.46 kcal/mol


--------------------------------
SUGGESTED CITATIONS FOR THIS RUN
--------------------------------

Below you find a list of papers that are relevant to this ORCA run
We neither can nor want to force you to cite these papers, but we appreciate if you do
You receive ORCA, which is the product of decades of hard work by many enthusiastic individuals, for free
The only thing we kindly ask in return is that you cite our papers,
We deeply appreciate it, if you show your appreciation for ORCA by not just citing the generic ORCA reference.

Please note that relegating all ORCA citations to the supporting information does *not* help us.
SI sections are not indexed - citations you put there will not count into any citation statistics
But we need these citations in order to attract the funding resources that allow us to do what we are doing

Therefore, if you are a happy ORCA user, please consider citing a few of the papers listed below in the main body of your paper

In addition to the list printed below, the program has created the file product_optfreq.bibtex that contains the list in bibtex format
You can import this file easily into all common literature databanks and citation aid programs


List of essential papers. We consider these as the minimum necessary citations

  1. Bannwarth, C.; Ehlert, S.; Grimme, S.
     GFN2-xTB—An Accurate and Broadly Parametrized Self-Consistent Tight-Binding Quantum Chemical Method with Multipole Electrostatics and Density-Dependent Dispersion Contributions
     J. Chem. Theory Comput. 2019 15(3), 1652-1671
     doi.org/10.1021/acs.jctc.8b01176
  2. Neese, F.
     Software update: the ORCA program system, version 6.0
     WIRES Comput. Molec. Sci. 2025 15(1), e70019
     doi.org/10.1002/wcms.7019

List of papers to cite with high priority. The work reported in these papers was absolutely
necessary for this run to complete.
Our perspective: the developers of density functionals and basis sets usually get cited in chemistry papers
Good! But without the algorithms to do something with them, the functionals or basis sets would not do anything.
Hence, in our opinion, the algorithm design and method developments papers are equally worthy of getting cited

  1. Bykov, D.; Petrenko, T.; Izsak, R.; Kossmann, S.; Becker, U.; Valeev, E.; Neese, F.
     Efficient implementation of the analytic second derivatives of Hartree-Fock and hybrid DFT energies: a detailed analysis of different approximations
     Molec. Phys. 2015 113 , 1961-1977
     doi.org/10.1080/00268976.2015.1025114
  2. Bannwarth, C.; Caldeweyher, E.; Ehlert, S.; Hansen, A.; Pracht, P.; Seibert, J.; Spicher, S.; Grimme, S.
     Extended tight-binding quantum chemistry methods
     WIRES Comput. Molec. Sci. 2020 11(2), e1493
     doi.org/10.1002/wcms.1493

List of suggested additional citations. These are papers that are important in the 'surrounding' of 
of this run, or papers that preceded the highly important papers. If you like your results we are grateful for a citation.

  1. Neese, F.
     The ORCA program system
     WIRES Comput. Molec. Sci. 2012 2(1), 73-78
     doi.org/10.1002/wcms.81
  2. Neese, F.
     Software update: the ORCA program system, version 4.0
     WIRES Comput. Molec. Sci. 2018 8(1), 1-6
     doi.org/10.1002/wcms.1327
  3. Neese, F.; Wennmohs, F.; Becker, U.; Riplinger, C.
     The ORCA quantum chemistry program package
     J. Chem. Phys. 2020 152(22), 224108
     doi.org/10.1063/5.0004608
  4. Neese, F.
     Software update: The ORCA program system—Version 5.0
     WIRES Comput. Molec. Sci. 2022 12(1), e1606
     doi.org/10.1002/wcms.1606

List of optional additional citations

  1. Neese, F.
     Approximate second-order SCF convergence for spin unrestricted wavefunctions
     Chem. Phys. Lett. 2000 325(1-3), 93-98
     doi.org/10.1016/s0009-2614(00)00662-x

Timings for individual modules:

Sum of individual times          ...        1.032 sec (=   0.017 min)
Geometry relaxation              ...        0.016 sec (=   0.000 min)   1.6 %
XTB module                       ...        1.016 sec (=   0.017 min)  98.4 %
                             ****ORCA TERMINATED NORMALLY****
TOTAL RUN TIME: 0 days 0 hours 0 minutes 1 seconds 481 msec
