
                                 *****************
                                 * O   R   C   A *
                                 *****************

                                            #,                                       
                                            ###                                      
                                            ####                                     
                                            #####                                    
                                            ######                                   
                                           ########,                                 
                                     ,,################,,,,,                         
                               ,,#################################,,                 
                          ,,##########################################,,             
                       ,#########################################, ''#####,          
                    ,#############################################,,   '####,        
                  ,##################################################,,,,####,       
                ,###########''''           ''''###############################       
              ,#####''   ,,,,##########,,,,          '''####'''          '####       
            ,##' ,,,,###########################,,,                        '##       
           ' ,,###''''                  '''############,,,                           
         ,,##''                                '''############,,,,        ,,,,,,###''
      ,#''                                            '''#######################'''  
     '                                                          ''''####''''         
             ,#######,   #######,   ,#######,      ##                                
            ,#'     '#,  ##    ##  ,#'     '#,    #''#        ,####,    ,#,          
            ##       ##  ##   ,#'  ##            #'  '#       #'       ,# #          
            ##       ##  #######   ##           ,######,      #####,      #          
            '#,     ,#'  ##    ##  '#,     ,#' ,#      #,     #,   #      #          
             '#######'   ##     ##  '#######'  #'      '#     '####' #    #          



                #########################################################
                #                        -***-                          #
                #          Department of theory and spectroscopy        #
                #                                                       #
                #                      Frank Neese                      #
                #                                                       #
                #     Directorship, Architecture, Infrastructure        #
                #                    SHARK, DRIVERS                     #
                #        Core code/Algorithms in most modules           #
                #                                                       #
                #        Max Planck Institute fuer Kohlenforschung      #
                #                Kaiser Wilhelm Platz 1                 #
                #                 D-45470 Muelheim/Ruhr                 #
                #                      Germany                          #
                #                                                       #
                #                  All rights reserved                  #
                #                        -***-                          #
                #########################################################


                         Program Version 6.1.0  -  RELEASE   -
                                (GIT: $679e74b$)
                          ($2025-06-10 18:02:51 +0200$)


 With contributions from (in alphabetic order):
[Max-Planck-Institut fuer Kohlenforschung]                               
  Daniel Aravena         : Magnetic Suceptibility                        
  Michael Atanasov       : Ab Initio Ligand Field Theory (pilot matlab implementation)
  Alexander A. Auer      : GIAO ZORA, VPT2 properties, NMR spectrum      
  Ute Becker             : All parallelization in ORCA, NUMFREQ, NUMCALC 
  Giovanni Bistoni       : ED, misc. LED, open-shell LED, HFLD           
  Dmytro Bykov           : pre 5.0 version of the SCF Hessian            
  Marcos Casanova-Páez   : Triplet and SCS-CIS(D). UHF-(DLPNO)-IP/EA/STEOM-CCSD. UHF-CVS-IP/STEOM-CCSD   
  Vijay G. Chilkuri      : MRCI spin determinant printing, contributions to CSF-ICE 
  Pauline Colinet        : FMM embedding                                 
  Dipayan Datta          : RHF DLPNO-CCSD density                        
  Achintya Kumar Dutta   : EOM-CC, STEOM-CC                              
  Nicolas Foglia         : Exact transition moments, OPA infrastructure, MCD improvements    
  Dmitry Ganyushin       : Spin-Orbit,Spin-Spin,Magnetic field MRCI      
  Miquel Garcia-Rates    : C-PCM and meta-GGA Hessian, CCSD/C-PCM, Gaussian charge scheme 
  Tiago L. C. Gouveia    : GS-ROHF, GS-ROCIS                             
  Yang Guo               : DLPNO-NEVPT2, F12-NEVPT2, CIM, IAO-localization        
  Andreas Hansen         : Spin unrestricted coupled pair/coupled cluster methods 
  Ingolf Harden          : AUTO-CI MPn and infrastructure                
  Benjamin Helmich-Paris : MC-RPA, TRAH-(SCF,CASSCF), AVAS, COSX integrals, SCF dyn. polar., MC-PDFT, srDFT 
  Lee Huntington         : MR-EOM, pCC                                   
  Robert Izsak           : Overlap fitted RIJCOSX, COSX-SCS-MP3, EOM     
  Riya Kayal             : Wick's Theorem for AUTO-CI, AUTO-CI UHF-CCSDT 
  Emily Kempfer          : AUTO-CI RHF CISDT and CCSDT, approximate NEVPT4
  Christian Kollmar      : KDIIS, OOCD, Brueckner-CCSD(T), CCSD density, CASPT2, CASPT2-K, improved NEVPT2 
  Axel Koslowski         : Symmetry handling                             
  Simone Kossmann        : meta-GGA functionals, TD-DFT gradient, OOMP2, (MP2 Hessian; deprecated post 5.0) 
  Lucas Lang             : DCDCAS, Hyperfine gauge corrections, ICE-SOC+SSC
  Marvin Lechner         : AUTO-CI (C++ implementation), FIC-MRCC        
  Spencer Leger          : CASSCF response                               
  Dagmar Lenk            : GEPOL surface, SMD, ORCA-2-JSON               
  Dimitrios Liakos       : Extrapolation schemes; Compound Job, Property file
  Dimitrios Manganas     : Further ROCIS development; embedding schemes. LFT, Crystal Embedding 
  Dimitrios Pantazis     : SARC Basis sets                               
  Anastasios Papadopoulos: AUTO-CI, single reference methods and gradients 
  Taras Petrenko         : pre 6.0 DFT Hessian and TD-DFT gradient,  ECA, NRVS 
  Petra Pikulova         : Analytic Raman intensities                    
  Peter Pinski           : DLPNO-MP2, DLPNO-MP2 Gradient                 
  Shashank Vittal Rao    : ES-AILFT, MagRelax                            
  Christoph Reimann      : Effective Core Potentials                     
  Marius Retegan         : Local ZFS, SOC                                
  Christoph Riplinger    : Optimizer, TS searches, QM/MM, DLPNO-CCSD(T), (RO)-DLPNO pert. Triples 
  Michael Roemelt        : Original ROCIS implementation, recursive CI coupling coefficients
  Masaaki Saitow         : Open-shell DLPNO-CCSD energy and density      
  Barbara Sandhoefer     : DKH picture change effects                    
  Yorick L. A. Schmerwitz: GMF and freeze-and-release deltaSCF, NEB S-IDPP initial path                    
  Kantharuban Sivalingam : CASSCF convergence/infrastructure, NEVPT2, NEVPT3, NEVPT4(SD), FIC-MRCI and CEPA variants
  Bernardo de Souza      : ESD, SOC TD-DFT                               
  Georgi L. Stoychev     : AutoAux, RI-MP2 NMR, DLPNO-MP2 response, X2C  
  Van Anh Tran           : RI-MP2 g-tensors                              
  Willem Van den Heuvel  : Paramagnetic NMR                              
  Zikuan Wang            : NOTCH, Electric field optimization            
  Frank Wennmohs         : Technical directorship and infrastructure     
  Hang Xu                : AUTO-CI-Response properties                   
                                                                         
[FACCTs GmbH]                                                            
  Markus Bursch, Nicolas Foglia, Miquel Garcia-Rates, Ingolf Harden, Hagen Neugebauer, Anastasios Papadopoulos, 
  Christoph Riplinger, Bernardo de Souza, Georgi L. Stoychev                                                    
                                                                 
  APM, various basis sets, CI-OPT, improved COSX, DLPNO-Multilevel,           
  DOCKER, DRACO, updates on ESD, Fragmentator, GOAT, IRC, LR-CPCM, L-BFGS, MBIS, meta-GGA TD-DFT gradient, ML-optimized integration grids, 
  MM, NACMEs, nearIR, NEB, NEB-TS, NL-DFT gradient (VV10), 2- and 3-layer-ONIOM, interface openCOSMO-RS, QMMM,   
  Crystal-QMMM, RESP, rigid body optimization, SF, symmetry and pop. for TD-DFT, various functionals, SOLVATOR                                   
                                                                         
[Other institutions]                                                     
  V. Asgeirsson          : NEB                                           
  Christoph Bannwarth    : sTDA-DFT, sTD-DFT, PBEh-3c, B97-3c, D3        
  Giovanni Bistoni       : ETS/NOCV, ADLD/ADEX, COVALED                  
  Martin Brehm           : Molecular dynamics                            
  Ronald Cardenas        : ETS/NOCV                                      
  Martina Colucci        : COVALED                                       
  Sebastian Ehlert       : rSCAN, r2SCAN, r2SCAN-3c, D4, dhf basis sets  
  Marvin Friede          : D4 for Fr, Ra, Ac-Lr                          
  Lars Goerigk           : TD-DFT with DH, B97 family of functionals     
  Stefan Grimme          : VdW corrections, initial TS optimization, DFT functionals, gCP, sTDA/sTD-DF 
  Waldemar Hujo          : DFT-NL                                        
  H. Jonsson             : NEB                                           
  Holger Kruse           : gCP                                           
  Marcel Mueller         : wB97X-3c, vDZP basis set                      
  Hagen Neugebauer       : wr2SCAN, Native XTB                           
  Gianluca Regni         : ADLD/ADEX                                     
  Tobias Risthaus        : pre 6.0 range-separated hybrid DFT and stability analysis
  Lukas Wittmann         : regularized MP2, r2SCAN double-hybrids, wr2SCAN        
                                                                         
We gratefully acknowledge several colleagues who have allowed us to      
interface, adapt or use parts of their codes:                            
  Ed Valeev, F. Pavosevic, A. Kumar             : LibInt (2-el integral package), F12 methods 
  Garnet Chan, S. Sharma, J. Yang, R. Olivares  : DMRG                   
  Ulf Ekstrom                                   : XCFun DFT Library      
  Mihaly Kallay                                 : mrcc  (arbitrary order and MRCC methods)
  Frank Weinhold                                : gennbo (NPA and NBO analysis)           
  Simon Mueller                                 : openCOSMO-RS                            
  Christopher J. Cramer and Donald G. Truhlar   : smd solvation model                     
  S Lehtola, MJT Oliveira, MAL Marques          : LibXC Library                           
  Liviu Ungur et al                             : ANISO software                          


 Your calculation uses the libint2 library for the computation of 2-el integrals
 For citations please refer to: http://libint.valeyev.net

 Your ORCA version has been built with support for libXC version: 7.0.0
 For citations please refer to: https://libxc.gitlab.io

 This ORCA versions uses:
   CBLAS   interface :  Fast vector & matrix operations
   LAPACKE interface :  Fast linear algebra routines
   SCALAPACK package :  Parallel linear algebra routines
   Shared memory     :  Shared parallel matrices
   BLAS/LAPACK       :  OpenBLAS 0.3.29  USE64BITINT DYNAMIC_ARCH NO_AFFINITY SkylakeX SINGLE_THREADED
        Core in use  :  SkylakeX
   Copyright (c) 2011-2014, The OpenBLAS Project


  ***********************************
  * Starting time: Mon Mar 16 14:17:29 2026
  * Host name:     midway3-login4.rcc.local
  * Process ID:    86761
  * Working dir.:  /home/rzhu16/evans-polanyi-principle-validation/runs/sn2_cl_i/geo_opt_reactant_product
  ***********************************

Your calculation utilizes the semiempirical GFN2-xTB method
Please cite in your paper:
Bannwarth, C.; Ehlert S.; Grimme, S. J. Chem. Theory Comput. 2019, 15, 1652.
   

================================================================================

cite the ECPs for I  [Def2-ECP] as follows:
Ce-Yb(ecp-28): M. Dolg, H. Stoll, H.Preuss, J. Chem. Phys., 1989, 90, 1730-1734.
Y-Cd(ecp-28), Hf-Hg(ecp-46): D. Andrae,U. Haeussermann, M. Dolg, H. Stoll, H. Preuss, Theor. Chim. Acta, 1990, 77, 123-141.
In-Sb(ecp-28), Tl-Bi(ecp-46): B. Metz, H. Stoll, M. Dolg, J. Chem. Phys., 2000, 113, 2563-2569.
Te-Xe(ecp-28), Po-Rn(ecp-46): K. A. Peterson, D. Figgen, E. Goll, H. Stoll, M. Dolg, J. Chem. Phys., 2003, 119, 11113-11123.
Rb(ecp-28), Cs(ecp-46): T. Leininger, A. Nicklass, W. Kuechle, H. Stoll, M. Dolg, A. Bergner, Chem. Phys. Lett., 1996, 255, 274-280.
Sr(ecp-28), Ba(ecp-46): M. Kaupp, P. V. Schleyer, H. Stoll and H. Preuss, J. Chem. Phys., 1991, 94, 1360-1366.
La(ecp-46): M. Dolg, H. Stoll, A. Savin, H. Preuss, Theor. Chim. Acta, 1989, 75, 173-194.
Lu(ecp-28): X. Cao, M. Dolg, J. Chem. Phys., 2001, 115, 7348-7355.

ECP parameters for I  [Def2-ECP] have been obtained from:
TURBOMOLE (7.0.2)

================================================================================
                                        WARNINGS
                       Please study these warnings very carefully!
================================================================================


WARNING: Analytical Hessian for XTB is limited in the analysis of the data.
       : If you want to obtain extensive IR and deltaG analysis, please use ! XTB NumFreq. 


WARNING: Geometry Optimization
  ===> : Switching off AutoStart
         For restart on a previous wavefunction, please use MOREAD

WARNING: Found dipole moment calculation with XTB calculation
  ===> : Switching off dipole moment calculation


WARNING: Found frequency calculation in combination with XTB calculation
  ===> : Need to redirect dipole moment calculation to properties.out


================================================================================
                                       INPUT FILE
================================================================================
NAME = product_optfreq.inp
|  1> ! XTB2 Opt Freq PAL8
|  2> 
|  3> %geom
|  4>   MaxIter 500
|  5> end
|  6> 
|  7> * xyz -1 1
|  8>   C       0.000010     -0.000035      0.432961
|  9>   H       0.000000      1.028170      0.093450
| 10>   H       0.890345     -0.514005      0.093455
| 11>   H      -0.890352     -0.514012      0.093454
| 12>   Cl     -0.000001      0.000007      2.217634
| 13>   I      -0.000003      0.000011     -2.796359
| 14> *
| 15> 
| 16>                          ****END OF INPUT****
================================================================================

                       *****************************
                       * Geometry Optimization Run *
                       *****************************

Geometry optimization settings:
Update method            Update   .... BFGS
Choice of coordinates    CoordSys .... (2022) Redundant Internals
Initial Hessian          InHess   .... Almloef's Model
Max. no of cycles        MaxIter  .... 500

Convergence Tolerances:
Energy Change            TolE     ....  5.0000e-06 Eh
Max. Gradient            TolMAXG  ....  3.0000e-04 Eh/bohr
RMS Gradient             TolRMSG  ....  1.0000e-04 Eh/bohr
Max. Displacement        TolMAXD  ....  4.0000e-03 bohr
RMS Displacement         TolRMSD  ....  2.0000e-03 bohr
Strict Convergence                .... False

------------------------------------------------------------------------------
                        ORCA OPTIMIZATION COORDINATE SETUP
------------------------------------------------------------------------------

The optimization will be done in redundant internal coordinates (2022)
Making redundant internal coordinates   ...  (2022 redundants) done
Evaluating the initial hessian          ...  (Almloef) done
Evaluating the coordinates              ...  done
Calculating the B-matrix                .... done
Calculating the G-matrix                .... done
The number of degrees of freedom        ....   17

    -----------------------------------------------------------------
                    Redundant Internal Coordinates


    -----------------------------------------------------------------
         Definition                    Initial Value    Approx d2E/dq
    -----------------------------------------------------------------
      1. B(H   1,C   0)                  1.0828         0.369741   
      2. B(H   2,C   0)                  1.0826         0.369959   
      3. B(H   3,C   0)                  1.0827         0.369924   
      4. B(Cl  4,C   0)                  1.7847         0.328896   
      5. B(I   5,H   3)                  3.0672         0.010000   
      6. B(I   5,H   1)                  3.0673         0.010000   
      7. B(I   5,H   2)                  3.0672         0.010000   
      8. B(I   5,C   0)                  3.2293         0.010000   
      9. A(H   1,C   0,H   3)          110.6378         0.293291   
     10. A(H   2,C   0,H   3)          110.6457         0.293318   
     11. A(H   1,C   0,Cl  4)          108.2718         0.332271   
     12. A(H   2,C   0,Cl  4)          108.2766         0.332303   
     13. A(H   3,C   0,Cl  4)          108.2756         0.332298   
     14. A(H   1,C   0,I   5)           71.7261         0.171262   
     15. A(H   2,C   0,I   5)           71.7250         0.171273   
     16. A(H   3,C   0,I   5)           71.7250         0.171271   
     17. A(H   1,C   0,H   2)          110.6389         0.293295   
    -----------------------------------------------------------------

Number of atoms                         .... 6
Number of degrees of freedom            .... 17


         *************************************************************
         *                GEOMETRY OPTIMIZATION CYCLE   1            *
         *************************************************************
---------------------------------
CARTESIAN COORDINATES (ANGSTROEM)
---------------------------------
  C     0.000010   -0.000035    0.432961
  H     0.000000    1.028170    0.093450
  H     0.890345   -0.514005    0.093455
  H    -0.890352   -0.514012    0.093454
  Cl   -0.000001    0.000007    2.217634
  I    -0.000003    0.000011   -2.796359

----------------------------
CARTESIAN COORDINATES (A.U.)
----------------------------
  NO LB    ZA    FRAG    MASS        X           Y           Z
   0 C   6.0000    0    12.011    0.000019   -0.000066    0.818178
   1 H   1.0000    0     1.008    0.000000    1.942960    0.176595
   2 H   1.0000    0     1.008    1.682508   -0.971329    0.176604
   3 H   1.0000    0     1.008   -1.682521   -0.971342    0.176602
   4 Cl 17.0000    0    35.453   -0.000002    0.000013    4.190721
   5 I  53.0000    0   126.900   -0.000006    0.000021   -5.284353

      -----------------------------------------------------------      
     |                   =====================                   |     
     |                           x T B                           |     
     |                   =====================                   |     
     |                         S. Grimme                         |     
     |          Mulliken Center for Theoretical Chemistry        |     
     |                    University of Bonn                     |     
      -----------------------------------------------------------      

   * xtb version 6.7.1 (edcfbbe) compiled by 'albert@albert-system' on 2024-07-22

   xtb is free software: you can redistribute it and/or modify it under
   the terms of the GNU Lesser General Public License as published by
   the Free Software Foundation, either version 3 of the License, or
   (at your option) any later version.
   
   xtb is distributed in the hope that it will be useful,
   but WITHOUT ANY WARRANTY; without even the implied warranty of
   MERCHANTABILITY or FITNESS FOR A PARTICULAR PURPOSE.  See the
   GNU Lesser General Public License for more details.
   
   Cite this work as:
   * C. Bannwarth, E. Caldeweyher, S. Ehlert, A. Hansen, P. Pracht,
     J. Seibert, S. Spicher, S. Grimme, WIREs Comput. Mol. Sci., 2020, 11,
     e01493. DOI: 10.1002/wcms.1493
   
   for GFN2-xTB:
   * C. Bannwarth, S. Ehlert and S. Grimme., J. Chem. Theory Comput., 2019,
     15, 1652-1671. DOI: 10.1021/acs.jctc.8b01176
   for GFN1-xTB:
   * S. Grimme, C. Bannwarth, P. Shushkov, J. Chem. Theory Comput., 2017,
     13, 1989-2009. DOI: 10.1021/acs.jctc.7b00118
   for GFN0-xTB:
   * P. Pracht, E. Caldeweyher, S. Ehlert, S. Grimme, ChemRxiv, 2019, preprint.
     DOI: 10.26434/chemrxiv.8326202.v1
   for GFN-FF:
   * S. Spicher and S. Grimme, Angew. Chem. Int. Ed., 2020, 59, 15665-15673.
     DOI: 10.1002/anie.202004239
   
   for ALPB and GBSA implicit solvation:
   * S. Ehlert, M. Stahn, S. Spicher, S. Grimme, J. Chem. Theory Comput.,
     2021, 17, 4250-4261. DOI: 10.1021/acs.jctc.1c00471
   
   for ddCOSMO and CPCM-X implicit solvation:
   * M. Stahn, S. Ehlert, S. Grimme, J. Phys. Chem. A,
     2023, XX, XXXX-XXXX. DOI: 10.1021/acs.jpca.3c04382
   
   for DFT-D4:
   * E. Caldeweyher, C. Bannwarth and S. Grimme, J. Chem. Phys., 2017,
     147, 034112. DOI: 10.1063/1.4993215
   * E. Caldeweyher, S. Ehlert, A. Hansen, H. Neugebauer, S. Spicher,
     C. Bannwarth and S. Grimme, J. Chem. Phys., 2019, 150, 154122.
     DOI: 10.1063/1.5090222
   * E. Caldeweyher, J.-M. Mewes, S. Ehlert and S. Grimme, Phys. Chem. Chem. Phys.
     2020, 22, 8499-8512. DOI: 10.1039/D0CP00502A
   
   for sTDA-xTB:
   * S. Grimme and C. Bannwarth, J. Chem. Phys., 2016, 145, 054103.
     DOI: 10.1063/1.4959605
   
   in the mass-spec context:
   * V. Asgeirsson, C. Bauer and S. Grimme, Chem. Sci., 2017, 8, 4879.
     DOI: 10.1039/c7sc00601b
   * J. Koopman and S. Grimme, ACS Omega 2019, 4, 12, 15120-15133.
     DOI: 10.1021/acsomega.9b02011
   
   for metadynamics refer to:
   * S. Grimme, J. Chem. Theory Comput., 2019, 155, 2847-2862
     DOI: 10.1021/acs.jctc.9b00143
   
   for SPH calculations refer to:
   * S. Spicher and S. Grimme, J. Chem. Theory Comput., 2021, 17, 1701-1714
     DOI: 10.1021/acs.jctc.0c01306
   
   for ONIOM refer to:
   * C. Plett, A. Katbashev, S. Ehlert, S. Grimme, M. Bursch,
     Phys. Chem. Chem. Phys., 2023, 25, 17860-17868. DOI: 10.1039/D3CP02178E
   
   for DIPRO refer to:
   * J. Kohn, N. Gildemeister, S. Grimme, D. Fazzi, A. Hansen,
     J. Chem. Phys., 2023, just accepted.
   
   for PTB refer to:
   * S. Grimme, M. Mueller, A. Hansen, J. Chem. Phys., 2023, 158, 124111.
     DOI: 10.1063/5.0137838
   
   with help from (in alphabetical order)
   P. Atkinson, C. Bannwarth, F. Bohle, G. Brandenburg, E. Caldeweyher
   M. Checinski, S. Dohm, S. Ehlert, S. Ehrlich, I. Gerasimov, C. Hölzer
   A. Katbashev, J. Kohn, J. Koopman, C. Lavigne, S. Lehtola, F. März, M. Müller,
   F. Musil, H. Neugebauer, J. Pisarek, C. Plett, P. Pracht, F. Pultar,
   J. Seibert, P. Shushkov, S. Spicher, M. Stahn, M. Steiner, T. Strunk,
   J. Stückrath, T. Rose, and J. Unsleber
   
 * started run on 2026/03/16 at 14:17:30.581     
   ID    Z sym.   atoms
    1    6 C      1
    2    1 H      2-4
    3   17 Cl     5
    4   53 I      6

           -------------------------------------------------
          |                Calculation Setup                |
           -------------------------------------------------

          program call               : /software/orca-6.1.0-el8-x86_64/bin/otool_xtb product_optfreq_XTB.xyz --grad -c -1 -u 0 -P 8 --namespace product_optfreq --input product_optfreq_XTB.input.tmp --acc 0.200000
          hostname                   : midway3-login4.rcc.local
          calculation namespace      : product_optfreq
          coordinate file            : product_optfreq_XTB.xyz
          omp threads                :                     8


molecular fragmentation (1/2 indicates fragments):
111112
# atoms in fragment 1/2:     5     1
 fragment masses (1/2) :       50.49      126.90
CMA distance (Bohr)    :   8.432
constraining FC (au)   :  0.0500

           -------------------------------------------------
          |                 G F N 2 - x T B                 |
           -------------------------------------------------

        Reference                      10.1021/acs.jctc.8b01176
      * Hamiltonian:
        H0-scaling (s, p, d)           1.850000    2.230000    2.230000
        zeta-weighting                 0.500000
      * Dispersion:
        s8                             2.700000
        a1                             0.520000
        a2                             5.000000
        s9                             5.000000
      * Repulsion:
        kExp                           1.500000    1.000000
        rExp                           1.000000
      * Coulomb:
        alpha                          2.000000
        third order                    shell-resolved
        anisotropic                    true
        a3                             3.000000
        a5                             4.000000
        cn-shift                       1.200000
        cn-exp                         4.000000
        max-rad                        5.000000


          ...................................................
          :                      SETUP                      :
          :.................................................:
          :  # basis functions                  27          :
          :  # atomic orbitals                  25          :
          :  # shells                           11          :
          :  # electrons                        22          :
          :  max. iterations                   250          :
          :  Hamiltonian                  GFN2-xTB          :
          :  restarted?                      false          :
          :  GBSA solvation                  false          :
          :  PC potential                    false          :
          :  electronic temp.          300.0000000     K    :
          :  accuracy                    0.2000000          :
          :  -> integral cutoff          0.3198970E+02      :
          :  -> integral neglect         0.2000000E-08      :
          :  -> SCF convergence          0.2000000E-06 Eh   :
          :  -> wf. convergence          0.2000000E-04 e    :
          :  Broyden damping             0.4000000          :
          :  net charge                         -1          :
          :  unpaired electrons                  0          :
          ...................................................

 iter      E             dE          RMSdq      gap      omega  full diag
   1    -12.3170603 -0.123171E+02  0.592E+00    3.31       0.0  T
   2    -12.3419726 -0.249122E-01  0.336E+00    2.95       1.0  T
   3    -12.3427133 -0.740726E-03  0.125E+00    3.42       1.0  T
   4    -12.3431704 -0.457138E-03  0.364E-01    3.50       1.0  T
   5    -12.3433108 -0.140324E-03  0.191E-01    3.45       1.0  T
   6    -12.3433788 -0.680549E-04  0.126E-01    3.36       1.0  T
   7    -12.3434199 -0.410725E-04  0.624E-02    3.36       1.0  T
   8    -12.3434280 -0.806956E-05  0.187E-02    3.35       2.2  T
   9    -12.3434283 -0.366586E-06  0.101E-02    3.35       4.0  T
  10    -12.3434285 -0.207505E-06  0.709E-04    3.35      57.6  T
  11    -12.3434285 -0.306438E-09  0.130E-04    3.35     314.0  T
  12    -12.3434285 -0.335252E-10  0.212E-05    3.35    1925.0  T

   *** convergence criteria satisfied after 12 iterations ***

         #    Occupation            Energy/Eh            Energy/eV
      -------------------------------------------------------------
         1        2.0000           -0.9406226             -25.5956
       ...           ...                  ...                  ...
         5        2.0000           -0.3820166             -10.3952
         6        2.0000           -0.3768018             -10.2533
         7        2.0000           -0.2993518              -8.1458
         8        2.0000           -0.2993494              -8.1457
         9        2.0000           -0.1658775              -4.5138
        10        2.0000           -0.1619344              -4.4065
        11        2.0000           -0.1619344              -4.4065 (HOMO)
        12                         -0.0387107              -1.0534 (LUMO)
        13                          0.1397315               3.8023
        14                          0.1397369               3.8024
        15                          0.1438802               3.9152
        16                          0.1438803               3.9152
       ...                                ...                  ...
        25                          0.4351366              11.8407
      -------------------------------------------------------------
                  HL-Gap            0.1232237 Eh            3.3531 eV
             Fermi-level           -0.1003225 Eh           -2.7299 eV

 SCC (total)                   0 d,  0 h,  0 min,  0.159 sec
 SCC setup                      ...        0 min,  0.000 sec (  0.113%)
 Dispersion                     ...        0 min,  0.000 sec (  0.040%)
 classical contributions        ...        0 min,  0.000 sec (  0.020%)
 integral evaluation            ...        0 min,  0.152 sec ( 95.783%)
 iterations                     ...        0 min,  0.004 sec (  2.638%)
 molecular gradient             ...        0 min,  0.002 sec (  1.302%)
 printout                       ...        0 min,  0.000 sec (  0.090%)

         :::::::::::::::::::::::::::::::::::::::::::::::::::::
         ::                     SUMMARY                     ::
         :::::::::::::::::::::::::::::::::::::::::::::::::::::
         :: total energy             -12.286173632656 Eh    ::
         :: gradient norm              0.001700551162 Eh/a0 ::
         :: HOMO-LUMO gap              3.353087119372 eV    ::
         ::.................................................::
         :: SCC energy               -12.343429341668 Eh    ::
         :: -> isotropic ES            0.150944429673 Eh    ::
         :: -> anisotropic ES         -0.001055490135 Eh    ::
         :: -> anisotropic XC          0.001821292262 Eh    ::
         :: -> dispersion             -0.003071084411 Eh    ::
         :: repulsion energy           0.057255709013 Eh    ::
         :: add. restraining           0.000000000000 Eh    ::
         :: total charge              -1.000000000000 e     ::
         :::::::::::::::::::::::::::::::::::::::::::::::::::::


Property printout bound to 'properties.out'

           -------------------------------------------------
          | TOTAL ENERGY              -12.286173632656 Eh   |
          | GRADIENT NORM               0.001700551162 Eh/α |
          | HOMO-LUMO GAP               3.353087119372 eV   |
           -------------------------------------------------

------------------------------------------------------------------------
 * finished run on 2026/03/16 at 14:17:30.764     
------------------------------------------------------------------------
 total:
 * wall-time:     0 d,  0 h,  0 min,  0.183 sec
 *  cpu-time:     0 d,  0 h,  0 min,  0.369 sec
 * ratio c/w:     2.016 speedup
 SCF:
 * wall-time:     0 d,  0 h,  0 min,  0.159 sec
 *  cpu-time:     0 d,  0 h,  0 min,  0.305 sec
 * ratio c/w:     1.921 speedup


-------------------------   --------------------
FINAL SINGLE POINT ENERGY       -12.286173632660
-------------------------   --------------------


-------------
DIPOLE MOMENT
-------------
                                X             Y             Z
Total Dipole Moment    :      0.00000      -0.00000       3.82600
                        -----------------------------------------
Magnitude (a.u.)       :      3.82600
Magnitude (Debye)      :      9.72492


------------------
CARTESIAN GRADIENT
------------------

   1   C   :    0.000014012   -0.000091763   -0.000321621
   2   H   :   -0.000000449    0.000064304   -0.000331983
   3   H   :   -0.000020900    0.000015847   -0.000304394
   4   H   :    0.000007940    0.000008884   -0.000308542
   5   Cl  :   -0.000000561    0.000002550   -0.000281803
   6   I   :   -0.000000042    0.000000178    0.001548343

Difference to translation invariance:
           :   -0.0000000000   -0.0000000000   -0.0000000000

Difference to rotation invariance:
           :   -0.0000000021   -0.0000000004   -0.0000000000

Norm of the Cartesian gradient     ...    0.0017005512
RMS gradient                       ...    0.0004008238
MAX gradient                       ...    0.0015483429
------------------------------------------------------------------------------
                         ORCA GEOMETRY RELAXATION STEP
------------------------------------------------------------------------------

Reading the OPT-File                    .... done
Getting information on internals        .... done
Copying old internal coords+grads       .... done
Making the new internal coordinates     .... (2022 redundants) done
Validating the new internal coordinates .... (2022 redundants) done
Calculating the B-matrix                .... done
Calculating the G,G- and P matrices     .... done
Transforming gradient to internals      .... done
Projecting the internal gradient        .... done
Number of atoms                         ....   6
Number of internal coordinates          ....  17
Current Energy                          ....   -12.286173633 Eh
Current gradient norm                   ....     0.001700551 Eh/bohr
Maximum allowed component of the step   ....  0.300
Current trust radius                    ....  0.300
Evaluating the initial hessian          ....  (Almloef) done
Projecting the Hessian                  .... done
Forming the augmented Hessian           .... done
Diagonalizing the augmented Hessian     .... done
Last element of RFO vector              ....  0.996784638
Lowest eigenvalues of augmented Hessian:
 -0.000065555  0.010065023  0.041104500  0.041110378  0.192971819
Length of the computed step             ....  0.080385772
The final length of the internal step   ....  0.080385772
Converting the step to Cartesian space:
 Initial RMS(Int)=    0.0194964135
Transforming coordinates:
 Iter   0:  RMS(Cart)=    0.0091161718 RMS(Int)=    0.0195028598
done
Storing new coordinates                 .... done

                                .--------------------.
          ----------------------|Geometry convergence|-------------------------
          Item                value                   Tolerance       Converged
          ---------------------------------------------------------------------
          RMS gradient        0.0002184820            0.0001000000      NO
          MAX gradient        0.0005053365            0.0003000000      NO
          RMS step            0.0194964135            0.0020000000      NO
          MAX step            0.0424210221            0.0040000000      NO
          -------------------------------------------------------------------------
          ........................................................
          Max(Bonds)      0.0224      Max(Angles)    0.02
          Max(Dihed)        0.00      Max(Improp)    0.00
          ---------------------------------------------------------------------

The optimization has not yet converged - more geometry cycles are needed


    ---------------------------------------------------------------------------
                         Redundant Internal Coordinates
                            (Angstroem and degrees)

        Definition                    Value    dE/dq     Step     New-Value
    ----------------------------------------------------------------------------
     1. B(H   1,C   0)                1.0828  0.000174 -0.0002    1.0826   
     2. B(H   2,C   0)                1.0826  0.000079 -0.0001    1.0825   
     3. B(H   3,C   0)                1.0827  0.000094 -0.0001    1.0825   
     4. B(Cl  4,C   0)                1.7847 -0.000282  0.0005    1.7851   
     5. B(I   5,H   3)                3.0672 -0.000369  0.0209    3.0881   
     6. B(I   5,H   1)                3.0673 -0.000369  0.0209    3.0881   
     7. B(I   5,H   2)                3.0672 -0.000369  0.0209    3.0881   
     8. B(I   5,C   0)                3.2293 -0.000505  0.0224    3.2518   
     9. A(H   1,C   0,H   3)          110.64  0.000046   -0.01    110.62   
    10. A(H   2,C   0,H   3)          110.65  0.000054   -0.02    110.63   
    11. A(H   1,C   0,Cl  4)          108.27 -0.000057    0.02    108.29   
    12. A(H   2,C   0,Cl  4)          108.28 -0.000047    0.01    108.29   
    13. A(H   3,C   0,Cl  4)          108.28 -0.000049    0.01    108.29   
    14. A(H   1,C   0,I   5)           71.73  0.000050   -0.02     71.71   
    15. A(H   2,C   0,I   5)           71.72  0.000051   -0.02     71.71   
    16. A(H   3,C   0,I   5)           71.72  0.000051   -0.02     71.71   
    17. A(H   1,C   0,H   2)          110.64  0.000047   -0.01    110.62   
    ----------------------------------------------------------------------------

Geometry step timings:
Preparation and reading OPT file:      0.000 s ( 2.485 %)
Internal coordinates            :      0.000 s ( 4.768 %)
B/P matrices and projection     :      0.000 s (10.343 %)
Hessian update/contruction      :      0.001 s (35.863 %)
Making the step                 :      0.000 s ( 9.268 %)
Converting the step to Cartesian:      0.000 s ( 3.492 %)
Storing new data                :      0.000 s ( 5.843 %)
Checking convergence            :      0.000 s ( 7.925 %)
Final printing                  :      0.000 s (19.678 %)
Total time                      :      0.001 s

Time for energy+gradient        :      0.192 s
Time for complete geometry iter :      0.196 s

         *************************************************************
         *                GEOMETRY OPTIMIZATION CYCLE   2            *
         *************************************************************
---------------------------------
CARTESIAN COORDINATES (ANGSTROEM)
---------------------------------
  C     0.000005   -0.000003    0.436738
  H    -0.000004    1.027872    0.097023
  H     0.890162   -0.513884    0.096995
  H    -0.890160   -0.513882    0.096999
  Cl   -0.000001    0.000019    2.221864
  I    -0.000002    0.000013   -2.815025

----------------------------
CARTESIAN COORDINATES (A.U.)
----------------------------
  NO LB    ZA    FRAG    MASS        X           Y           Z
   0 C   6.0000    0    12.011    0.000009   -0.000005    0.825315
   1 H   1.0000    0     1.008   -0.000007    1.942397    0.183346
   2 H   1.0000    0     1.008    1.682162   -0.971100    0.183295
   3 H   1.0000    0     1.008   -1.682159   -0.971096    0.183302
   4 Cl 17.0000    0    35.453   -0.000003    0.000036    4.198715
   5 I  53.0000    0   126.900   -0.000004    0.000025   -5.319626

      -----------------------------------------------------------      
     |                   =====================                   |     
     |                           x T B                           |     
     |                   =====================                   |     
     |                         S. Grimme                         |     
     |          Mulliken Center for Theoretical Chemistry        |     
     |                    University of Bonn                     |     
      -----------------------------------------------------------      

   * xtb version 6.7.1 (edcfbbe) compiled by 'albert@albert-system' on 2024-07-22

   xtb is free software: you can redistribute it and/or modify it under
   the terms of the GNU Lesser General Public License as published by
   the Free Software Foundation, either version 3 of the License, or
   (at your option) any later version.
   
   xtb is distributed in the hope that it will be useful,
   but WITHOUT ANY WARRANTY; without even the implied warranty of
   MERCHANTABILITY or FITNESS FOR A PARTICULAR PURPOSE.  See the
   GNU Lesser General Public License for more details.
   
   Cite this work as:
   * C. Bannwarth, E. Caldeweyher, S. Ehlert, A. Hansen, P. Pracht,
     J. Seibert, S. Spicher, S. Grimme, WIREs Comput. Mol. Sci., 2020, 11,
     e01493. DOI: 10.1002/wcms.1493
   
   for GFN2-xTB:
   * C. Bannwarth, S. Ehlert and S. Grimme., J. Chem. Theory Comput., 2019,
     15, 1652-1671. DOI: 10.1021/acs.jctc.8b01176
   for GFN1-xTB:
   * S. Grimme, C. Bannwarth, P. Shushkov, J. Chem. Theory Comput., 2017,
     13, 1989-2009. DOI: 10.1021/acs.jctc.7b00118
   for GFN0-xTB:
   * P. Pracht, E. Caldeweyher, S. Ehlert, S. Grimme, ChemRxiv, 2019, preprint.
     DOI: 10.26434/chemrxiv.8326202.v1
   for GFN-FF:
   * S. Spicher and S. Grimme, Angew. Chem. Int. Ed., 2020, 59, 15665-15673.
     DOI: 10.1002/anie.202004239
   
   for ALPB and GBSA implicit solvation:
   * S. Ehlert, M. Stahn, S. Spicher, S. Grimme, J. Chem. Theory Comput.,
     2021, 17, 4250-4261. DOI: 10.1021/acs.jctc.1c00471
   
   for ddCOSMO and CPCM-X implicit solvation:
   * M. Stahn, S. Ehlert, S. Grimme, J. Phys. Chem. A,
     2023, XX, XXXX-XXXX. DOI: 10.1021/acs.jpca.3c04382
   
   for DFT-D4:
   * E. Caldeweyher, C. Bannwarth and S. Grimme, J. Chem. Phys., 2017,
     147, 034112. DOI: 10.1063/1.4993215
   * E. Caldeweyher, S. Ehlert, A. Hansen, H. Neugebauer, S. Spicher,
     C. Bannwarth and S. Grimme, J. Chem. Phys., 2019, 150, 154122.
     DOI: 10.1063/1.5090222
   * E. Caldeweyher, J.-M. Mewes, S. Ehlert and S. Grimme, Phys. Chem. Chem. Phys.
     2020, 22, 8499-8512. DOI: 10.1039/D0CP00502A
   
   for sTDA-xTB:
   * S. Grimme and C. Bannwarth, J. Chem. Phys., 2016, 145, 054103.
     DOI: 10.1063/1.4959605
   
   in the mass-spec context:
   * V. Asgeirsson, C. Bauer and S. Grimme, Chem. Sci., 2017, 8, 4879.
     DOI: 10.1039/c7sc00601b
   * J. Koopman and S. Grimme, ACS Omega 2019, 4, 12, 15120-15133.
     DOI: 10.1021/acsomega.9b02011
   
   for metadynamics refer to:
   * S. Grimme, J. Chem. Theory Comput., 2019, 155, 2847-2862
     DOI: 10.1021/acs.jctc.9b00143
   
   for SPH calculations refer to:
   * S. Spicher and S. Grimme, J. Chem. Theory Comput., 2021, 17, 1701-1714
     DOI: 10.1021/acs.jctc.0c01306
   
   for ONIOM refer to:
   * C. Plett, A. Katbashev, S. Ehlert, S. Grimme, M. Bursch,
     Phys. Chem. Chem. Phys., 2023, 25, 17860-17868. DOI: 10.1039/D3CP02178E
   
   for DIPRO refer to:
   * J. Kohn, N. Gildemeister, S. Grimme, D. Fazzi, A. Hansen,
     J. Chem. Phys., 2023, just accepted.
   
   for PTB refer to:
   * S. Grimme, M. Mueller, A. Hansen, J. Chem. Phys., 2023, 158, 124111.
     DOI: 10.1063/5.0137838
   
   with help from (in alphabetical order)
   P. Atkinson, C. Bannwarth, F. Bohle, G. Brandenburg, E. Caldeweyher
   M. Checinski, S. Dohm, S. Ehlert, S. Ehrlich, I. Gerasimov, C. Hölzer
   A. Katbashev, J. Kohn, J. Koopman, C. Lavigne, S. Lehtola, F. März, M. Müller,
   F. Musil, H. Neugebauer, J. Pisarek, C. Plett, P. Pracht, F. Pultar,
   J. Seibert, P. Shushkov, S. Spicher, M. Stahn, M. Steiner, T. Strunk,
   J. Stückrath, T. Rose, and J. Unsleber
   
 * started run on 2026/03/16 at 14:17:30.777     
   ID    Z sym.   atoms
    1    6 C      1
    2    1 H      2-4
    3   17 Cl     5
    4   53 I      6

           -------------------------------------------------
          |                Calculation Setup                |
           -------------------------------------------------

          program call               : /software/orca-6.1.0-el8-x86_64/bin/otool_xtb product_optfreq_XTB.xyz --grad -c -1 -u 0 -P 8 --namespace product_optfreq --input product_optfreq_XTB.input.tmp --acc 0.200000
          hostname                   : midway3-login4.rcc.local
          calculation namespace      : product_optfreq
          coordinate file            : product_optfreq_XTB.xyz
          omp threads                :                     8


molecular fragmentation (1/2 indicates fragments):
111112
# atoms in fragment 1/2:     5     1
 fragment masses (1/2) :       50.49      126.90
CMA distance (Bohr)    :   8.475
constraining FC (au)   :  0.0500

           -------------------------------------------------
          |                 G F N 2 - x T B                 |
           -------------------------------------------------

        Reference                      10.1021/acs.jctc.8b01176
      * Hamiltonian:
        H0-scaling (s, p, d)           1.850000    2.230000    2.230000
        zeta-weighting                 0.500000
      * Dispersion:
        s8                             2.700000
        a1                             0.520000
        a2                             5.000000
        s9                             5.000000
      * Repulsion:
        kExp                           1.500000    1.000000
        rExp                           1.000000
      * Coulomb:
        alpha                          2.000000
        third order                    shell-resolved
        anisotropic                    true
        a3                             3.000000
        a5                             4.000000
        cn-shift                       1.200000
        cn-exp                         4.000000
        max-rad                        5.000000

q/qsh data taken from xtbrestart
CAMM data taken from xtbrestart

          ...................................................
          :                      SETUP                      :
          :.................................................:
          :  # basis functions                  27          :
          :  # atomic orbitals                  25          :
          :  # shells                           11          :
          :  # electrons                        22          :
          :  max. iterations                   250          :
          :  Hamiltonian                  GFN2-xTB          :
          :  restarted?                       true          :
          :  GBSA solvation                  false          :
          :  PC potential                    false          :
          :  electronic temp.          300.0000000     K    :
          :  accuracy                    0.2000000          :
          :  -> integral cutoff          0.3198970E+02      :
          :  -> integral neglect         0.2000000E-08      :
          :  -> SCF convergence          0.2000000E-06 Eh   :
          :  -> wf. convergence          0.2000000E-04 e    :
          :  Broyden damping             0.4000000          :
          :  net charge                         -1          :
          :  unpaired electrons                  0          :
          ...................................................

 iter      E             dE          RMSdq      gap      omega  full diag
   1    -12.3435341 -0.123435E+02  0.151E-01    3.32       0.0  T
   2    -12.3435348 -0.658447E-06  0.813E-02    3.31       1.0  T
   3    -12.3435351 -0.322443E-06  0.144E-02    3.30       2.8  T
   4    -12.3435352 -0.576076E-07  0.692E-03    3.31       5.9  T
   5    -12.3435352 -0.296757E-07  0.225E-03    3.31      18.1  T
   6    -12.3435352 -0.625512E-08  0.128E-03    3.31      32.0  T
   7    -12.3435352 -0.368406E-08  0.741E-04    3.31      55.1  T
   8    -12.3435352 -0.191910E-08  0.242E-04    3.31     168.6  T
   9    -12.3435352 -0.850093E-10  0.541E-06    3.31    7545.9  T
  10    -12.3435352 -0.266454E-13  0.483E-07    3.31   84519.0  T

   *** convergence criteria satisfied after 10 iterations ***

         #    Occupation            Energy/Eh            Energy/eV
      -------------------------------------------------------------
         1        2.0000           -0.9412735             -25.6134
       ...           ...                  ...                  ...
         5        2.0000           -0.3827512             -10.4152
         6        2.0000           -0.3775322             -10.2732
         7        2.0000           -0.3000462              -8.1647
         8        2.0000           -0.3000446              -8.1646
         9        2.0000           -0.1652371              -4.4963
        10        2.0000           -0.1613525              -4.3906
        11        2.0000           -0.1613525              -4.3906 (HOMO)
        12                         -0.0397664              -1.0821 (LUMO)
        13                          0.1389722               3.7816
        14                          0.1389733               3.7817
        15                          0.1431047               3.8941
        16                          0.1431048               3.8941
       ...                                ...                  ...
        25                          0.4338741              11.8063
      -------------------------------------------------------------
                  HL-Gap            0.1215861 Eh            3.3085 eV
             Fermi-level           -0.1005594 Eh           -2.7364 eV

 SCC (total)                   0 d,  0 h,  0 min,  0.213 sec
 SCC setup                      ...        0 min,  0.004 sec (  2.079%)
 Dispersion                     ...        0 min,  0.000 sec (  0.057%)
 classical contributions        ...        0 min,  0.002 sec (  0.849%)
 integral evaluation            ...        0 min,  0.203 sec ( 95.461%)
 iterations                     ...        0 min,  0.002 sec (  0.841%)
 molecular gradient             ...        0 min,  0.001 sec (  0.631%)
 printout                       ...        0 min,  0.000 sec (  0.071%)

         :::::::::::::::::::::::::::::::::::::::::::::::::::::
         ::                     SUMMARY                     ::
         :::::::::::::::::::::::::::::::::::::::::::::::::::::
         :: total energy             -12.286224821696 Eh    ::
         :: gradient norm              0.001162318414 Eh/a0 ::
         :: HOMO-LUMO gap              3.308526069301 eV    ::
         ::.................................................::
         :: SCC energy               -12.343536042551 Eh    ::
         :: -> isotropic ES            0.151475445759 Eh    ::
         :: -> anisotropic ES         -0.001003047199 Eh    ::
         :: -> anisotropic XC          0.001899671284 Eh    ::
         :: -> dispersion             -0.003054888678 Eh    ::
         :: repulsion energy           0.057311220855 Eh    ::
         :: add. restraining           0.000000000000 Eh    ::
         :: total charge              -1.000000000000 e     ::
         :::::::::::::::::::::::::::::::::::::::::::::::::::::


Property printout bound to 'properties.out'

           -------------------------------------------------
          | TOTAL ENERGY              -12.286224821696 Eh   |
          | GRADIENT NORM               0.001162318414 Eh/α |
          | HOMO-LUMO GAP               3.308526069301 eV   |
           -------------------------------------------------

------------------------------------------------------------------------
 * finished run on 2026/03/16 at 14:17:31.067     
------------------------------------------------------------------------
 total:
 * wall-time:     0 d,  0 h,  0 min,  0.290 sec
 *  cpu-time:     0 d,  0 h,  0 min,  0.510 sec
 * ratio c/w:     1.762 speedup
 SCF:
 * wall-time:     0 d,  0 h,  0 min,  0.213 sec
 *  cpu-time:     0 d,  0 h,  0 min,  0.436 sec
 * ratio c/w:     2.047 speedup


-------------------------   --------------------
FINAL SINGLE POINT ENERGY       -12.286224821700
-------------------------   --------------------


-------------
DIPOLE MOMENT
-------------
                                X             Y             Z
Total Dipole Moment    :      0.00000      -0.00000       3.87100
                        -----------------------------------------
Magnitude (a.u.)       :      3.87100
Magnitude (Debye)      :      9.83930


------------------
CARTESIAN GRADIENT
------------------

   1   C   :    0.000003213   -0.000021157   -0.000568416
   2   H   :   -0.000000737   -0.000144753   -0.000187388
   3   H   :   -0.000133278    0.000082031   -0.000184775
   4   H   :    0.000131236    0.000081704   -0.000185025
   5   Cl  :   -0.000000425    0.000002177    0.000230313
   6   I   :   -0.000000010   -0.000000002    0.000895291

Difference to translation invariance:
           :    0.0000000000   -0.0000000000   -0.0000000000

Difference to rotation invariance:
           :    0.0000000007    0.0000000004    0.0000000000

Norm of the Cartesian gradient     ...    0.0011623184
RMS gradient                       ...    0.0002739611
MAX gradient                       ...    0.0008952907
------------------------------------------------------------------------------
                         ORCA GEOMETRY RELAXATION STEP
------------------------------------------------------------------------------

Reading the OPT-File                    .... done
Getting information on internals        .... done
Copying old internal coords+grads       .... done
Making the new internal coordinates     .... (2022 redundants) done
Validating the new internal coordinates .... (2022 redundants) done
Calculating the B-matrix                .... done
Calculating the G,G- and P matrices     .... done
Transforming gradient to internals      .... done
Projecting the internal gradient        .... done
Number of atoms                         ....   6
Number of internal coordinates          ....  17
Current Energy                          ....   -12.286224822 Eh
Current gradient norm                   ....     0.001162318 Eh/bohr
Maximum allowed component of the step   ....  0.300
Current trust radius                    ....  0.300
Updating the Hessian (BFGS)             .... done
Forming the augmented Hessian           .... done
Diagonalizing the augmented Hessian     .... done
Last element of RFO vector              ....  0.993896198
Lowest eigenvalues of augmented Hessian:
 -0.000052366  0.004233973  0.041104501  0.041110378  0.193456334
Length of the computed step             ....  0.110996805
The final length of the internal step   ....  0.110996805
Converting the step to Cartesian space:
 Initial RMS(Int)=    0.0269206795
Transforming coordinates:
 Iter   0:  RMS(Cart)=    0.0123900773 RMS(Int)=    0.0269314505
done
Storing new coordinates                 .... done
The predicted energy change is          ....    -0.000026506
Previously predicted energy change      ....    -0.000032989
Actually observed energy change         ....    -0.000051189
Ratio of predicted to observed change   ....     1.551689691
New trust radius                        ....     0.200000000

                                .--------------------.
          ----------------------|Geometry convergence|-------------------------
          Item                value                   Tolerance       Converged
          ---------------------------------------------------------------------
          Energy change      -0.0000511890            0.0000050000      NO
          RMS gradient        0.0001310049            0.0001000000      NO
          MAX gradient        0.0002480752            0.0003000000      YES
          RMS step            0.0269206795            0.0020000000      NO
          MAX step            0.0580469673            0.0040000000      NO
          -------------------------------------------------------------------------
          ........................................................
          Max(Bonds)      0.0307      Max(Angles)    0.01
          Max(Dihed)        0.00      Max(Improp)    0.00
          ---------------------------------------------------------------------

The optimization has not yet converged - more geometry cycles are needed


    ---------------------------------------------------------------------------
                         Redundant Internal Coordinates
                            (Angstroem and degrees)

        Definition                    Value    dE/dq     Step     New-Value
    ----------------------------------------------------------------------------
     1. B(H   1,C   0)                1.0826 -0.000074  0.0002    1.0828   
     2. B(H   2,C   0)                1.0825 -0.000086  0.0003    1.0828   
     3. B(H   3,C   0)                1.0825 -0.000084  0.0003    1.0828   
     4. B(Cl  4,C   0)                1.7851  0.000230 -0.0008    1.7843   
     5. B(I   5,H   3)                3.0881 -0.000229  0.0289    3.1170   
     6. B(I   5,H   1)                3.0881 -0.000229  0.0289    3.1170   
     7. B(I   5,H   2)                3.0881 -0.000229  0.0289    3.1170   
     8. B(I   5,C   0)                3.2518 -0.000248  0.0307    3.2825   
     9. A(H   1,C   0,H   3)          110.62 -0.000001   -0.00    110.62   
    10. A(H   2,C   0,H   3)          110.63  0.000011   -0.01    110.62   
    11. A(H   1,C   0,Cl  4)          108.29 -0.000008    0.01    108.29   
    12. A(H   2,C   0,Cl  4)          108.29 -0.000000    0.00    108.29   
    13. A(H   3,C   0,Cl  4)          108.29 -0.000002    0.00    108.29   
    14. A(H   1,C   0,I   5)           71.71  0.000003   -0.00     71.71   
    15. A(H   2,C   0,I   5)           71.71  0.000003   -0.00     71.71   
    16. A(H   3,C   0,I   5)           71.71  0.000003   -0.00     71.71   
    17. A(H   1,C   0,H   2)          110.62  0.000000   -0.00    110.62   
    ----------------------------------------------------------------------------

Geometry step timings:
Preparation and reading OPT file:      0.000 s ( 2.397 %)
Internal coordinates            :      0.000 s ( 4.256 %)
B/P matrices and projection     :      0.000 s (11.350 %)
Hessian update/contruction      :      0.000 s (23.043 %)
Making the step                 :      0.000 s (11.644 %)
Converting the step to Cartesian:      0.000 s ( 4.697 %)
Storing new data                :      0.000 s (10.714 %)
Checking convergence            :      0.000 s ( 7.583 %)
Final printing                  :      0.000 s (24.315 %)
Total time                      :      0.002 s

Time for energy+gradient        :      0.301 s
Time for complete geometry iter :      0.304 s

         *************************************************************
         *                GEOMETRY OPTIMIZATION CYCLE   3            *
         *************************************************************
---------------------------------
CARTESIAN COORDINATES (ANGSTROEM)
---------------------------------
  C    -0.000001    0.000030    0.442066
  H    -0.000003    1.028098    0.102203
  H     0.890349   -0.514006    0.102179
  H    -0.890348   -0.514005    0.102183
  Cl    0.000002    0.000009    2.226363
  I    -0.000001    0.000010   -2.840399

----------------------------
CARTESIAN COORDINATES (A.U.)
----------------------------
  NO LB    ZA    FRAG    MASS        X           Y           Z
   0 C   6.0000    0    12.011   -0.000002    0.000056    0.835383
   1 H   1.0000    0     1.008   -0.000005    1.942824    0.193136
   2 H   1.0000    0     1.008    1.682516   -0.971330    0.193091
   3 H   1.0000    0     1.008   -1.682514   -0.971328    0.193098
   4 Cl 17.0000    0    35.453    0.000004    0.000016    4.207217
   5 I  53.0000    0   126.900   -0.000001    0.000019   -5.367577

      -----------------------------------------------------------      
     |                   =====================                   |     
     |                           x T B                           |     
     |                   =====================                   |     
     |                         S. Grimme                         |     
     |          Mulliken Center for Theoretical Chemistry        |     
     |                    University of Bonn                     |     
      -----------------------------------------------------------      

   * xtb version 6.7.1 (edcfbbe) compiled by 'albert@albert-system' on 2024-07-22

   xtb is free software: you can redistribute it and/or modify it under
   the terms of the GNU Lesser General Public License as published by
   the Free Software Foundation, either version 3 of the License, or
   (at your option) any later version.
   
   xtb is distributed in the hope that it will be useful,
   but WITHOUT ANY WARRANTY; without even the implied warranty of
   MERCHANTABILITY or FITNESS FOR A PARTICULAR PURPOSE.  See the
   GNU Lesser General Public License for more details.
   
   Cite this work as:
   * C. Bannwarth, E. Caldeweyher, S. Ehlert, A. Hansen, P. Pracht,
     J. Seibert, S. Spicher, S. Grimme, WIREs Comput. Mol. Sci., 2020, 11,
     e01493. DOI: 10.1002/wcms.1493
   
   for GFN2-xTB:
   * C. Bannwarth, S. Ehlert and S. Grimme., J. Chem. Theory Comput., 2019,
     15, 1652-1671. DOI: 10.1021/acs.jctc.8b01176
   for GFN1-xTB:
   * S. Grimme, C. Bannwarth, P. Shushkov, J. Chem. Theory Comput., 2017,
     13, 1989-2009. DOI: 10.1021/acs.jctc.7b00118
   for GFN0-xTB:
   * P. Pracht, E. Caldeweyher, S. Ehlert, S. Grimme, ChemRxiv, 2019, preprint.
     DOI: 10.26434/chemrxiv.8326202.v1
   for GFN-FF:
   * S. Spicher and S. Grimme, Angew. Chem. Int. Ed., 2020, 59, 15665-15673.
     DOI: 10.1002/anie.202004239
   
   for ALPB and GBSA implicit solvation:
   * S. Ehlert, M. Stahn, S. Spicher, S. Grimme, J. Chem. Theory Comput.,
     2021, 17, 4250-4261. DOI: 10.1021/acs.jctc.1c00471
   
   for ddCOSMO and CPCM-X implicit solvation:
   * M. Stahn, S. Ehlert, S. Grimme, J. Phys. Chem. A,
     2023, XX, XXXX-XXXX. DOI: 10.1021/acs.jpca.3c04382
   
   for DFT-D4:
   * E. Caldeweyher, C. Bannwarth and S. Grimme, J. Chem. Phys., 2017,
     147, 034112. DOI: 10.1063/1.4993215
   * E. Caldeweyher, S. Ehlert, A. Hansen, H. Neugebauer, S. Spicher,
     C. Bannwarth and S. Grimme, J. Chem. Phys., 2019, 150, 154122.
     DOI: 10.1063/1.5090222
   * E. Caldeweyher, J.-M. Mewes, S. Ehlert and S. Grimme, Phys. Chem. Chem. Phys.
     2020, 22, 8499-8512. DOI: 10.1039/D0CP00502A
   
   for sTDA-xTB:
   * S. Grimme and C. Bannwarth, J. Chem. Phys., 2016, 145, 054103.
     DOI: 10.1063/1.4959605
   
   in the mass-spec context:
   * V. Asgeirsson, C. Bauer and S. Grimme, Chem. Sci., 2017, 8, 4879.
     DOI: 10.1039/c7sc00601b
   * J. Koopman and S. Grimme, ACS Omega 2019, 4, 12, 15120-15133.
     DOI: 10.1021/acsomega.9b02011
   
   for metadynamics refer to:
   * S. Grimme, J. Chem. Theory Comput., 2019, 155, 2847-2862
     DOI: 10.1021/acs.jctc.9b00143
   
   for SPH calculations refer to:
   * S. Spicher and S. Grimme, J. Chem. Theory Comput., 2021, 17, 1701-1714
     DOI: 10.1021/acs.jctc.0c01306
   
   for ONIOM refer to:
   * C. Plett, A. Katbashev, S. Ehlert, S. Grimme, M. Bursch,
     Phys. Chem. Chem. Phys., 2023, 25, 17860-17868. DOI: 10.1039/D3CP02178E
   
   for DIPRO refer to:
   * J. Kohn, N. Gildemeister, S. Grimme, D. Fazzi, A. Hansen,
     J. Chem. Phys., 2023, just accepted.
   
   for PTB refer to:
   * S. Grimme, M. Mueller, A. Hansen, J. Chem. Phys., 2023, 158, 124111.
     DOI: 10.1063/5.0137838
   
   with help from (in alphabetical order)
   P. Atkinson, C. Bannwarth, F. Bohle, G. Brandenburg, E. Caldeweyher
   M. Checinski, S. Dohm, S. Ehlert, S. Ehrlich, I. Gerasimov, C. Hölzer
   A. Katbashev, J. Kohn, J. Koopman, C. Lavigne, S. Lehtola, F. März, M. Müller,
   F. Musil, H. Neugebauer, J. Pisarek, C. Plett, P. Pracht, F. Pultar,
   J. Seibert, P. Shushkov, S. Spicher, M. Stahn, M. Steiner, T. Strunk,
   J. Stückrath, T. Rose, and J. Unsleber
   
 * started run on 2026/03/16 at 14:17:31.082     
   ID    Z sym.   atoms
    1    6 C      1
    2    1 H      2-4
    3   17 Cl     5
    4   53 I      6

           -------------------------------------------------
          |                Calculation Setup                |
           -------------------------------------------------

          program call               : /software/orca-6.1.0-el8-x86_64/bin/otool_xtb product_optfreq_XTB.xyz --grad -c -1 -u 0 -P 8 --namespace product_optfreq --input product_optfreq_XTB.input.tmp --acc 0.200000
          hostname                   : midway3-login4.rcc.local
          calculation namespace      : product_optfreq
          coordinate file            : product_optfreq_XTB.xyz
          omp threads                :                     8


molecular fragmentation (1/2 indicates fragments):
111112
# atoms in fragment 1/2:     5     1
 fragment masses (1/2) :       50.49      126.90
CMA distance (Bohr)    :   8.532
constraining FC (au)   :  0.0500

           -------------------------------------------------
          |                 G F N 2 - x T B                 |
           -------------------------------------------------

        Reference                      10.1021/acs.jctc.8b01176
      * Hamiltonian:
        H0-scaling (s, p, d)           1.850000    2.230000    2.230000
        zeta-weighting                 0.500000
      * Dispersion:
        s8                             2.700000
        a1                             0.520000
        a2                             5.000000
        s9                             5.000000
      * Repulsion:
        kExp                           1.500000    1.000000
        rExp                           1.000000
      * Coulomb:
        alpha                          2.000000
        third order                    shell-resolved
        anisotropic                    true
        a3                             3.000000
        a5                             4.000000
        cn-shift                       1.200000
        cn-exp                         4.000000
        max-rad                        5.000000

q/qsh data taken from xtbrestart
CAMM data taken from xtbrestart

          ...................................................
          :                      SETUP                      :
          :.................................................:
          :  # basis functions                  27          :
          :  # atomic orbitals                  25          :
          :  # shells                           11          :
          :  # electrons                        22          :
          :  max. iterations                   250          :
          :  Hamiltonian                  GFN2-xTB          :
          :  restarted?                       true          :
          :  GBSA solvation                  false          :
          :  PC potential                    false          :
          :  electronic temp.          300.0000000     K    :
          :  accuracy                    0.2000000          :
          :  -> integral cutoff          0.3198970E+02      :
          :  -> integral neglect         0.2000000E-08      :
          :  -> SCF convergence          0.2000000E-06 Eh   :
          :  -> wf. convergence          0.2000000E-04 e    :
          :  Broyden damping             0.4000000          :
          :  net charge                         -1          :
          :  unpaired electrons                  0          :
          ...................................................

 iter      E             dE          RMSdq      gap      omega  full diag
   1    -12.3434806 -0.123435E+02  0.197E-01    3.28       0.0  T
   2    -12.3434817 -0.112148E-05  0.105E-01    3.27       1.0  T
   3    -12.3434822 -0.496429E-06  0.179E-02    3.26       2.3  T
   4    -12.3434823 -0.767372E-07  0.469E-03    3.26       8.7  T
   5    -12.3434823 -0.935460E-08  0.195E-03    3.26      20.9  T
   6    -12.3434823 -0.286995E-08  0.843E-04    3.26      48.4  T
   7    -12.3434823 -0.947185E-09  0.623E-04    3.26      65.6  T
   8    -12.3434823 -0.128888E-08  0.220E-04    3.26     185.4  T
   9    -12.3434823 -0.111635E-09  0.769E-06    3.26    5306.4  T
  10    -12.3434823 -0.444089E-13  0.515E-07    3.26   79304.6  T

   *** convergence criteria satisfied after 10 iterations ***

         #    Occupation            Energy/Eh            Energy/eV
      -------------------------------------------------------------
         1        2.0000           -0.9422455             -25.6398
       ...           ...                  ...                  ...
         5        2.0000           -0.3838576             -10.4453
         6        2.0000           -0.3786238             -10.3029
         7        2.0000           -0.3009937              -8.1905
         8        2.0000           -0.3009937              -8.1905
         9        2.0000           -0.1643402              -4.4719
        10        2.0000           -0.1605553              -4.3689
        11        2.0000           -0.1605553              -4.3689 (HOMO)
        12                         -0.0407402              -1.1086 (LUMO)
        13                          0.1378306               3.7506
        14                          0.1378312               3.7506
        15                          0.1419765               3.8634
        16                          0.1419765               3.8634
       ...                                ...                  ...
        25                          0.4320309              11.7562
      -------------------------------------------------------------
                  HL-Gap            0.1198151 Eh            3.2603 eV
             Fermi-level           -0.1006477 Eh           -2.7388 eV

 SCC (total)                   0 d,  0 h,  0 min,  0.202 sec
 SCC setup                      ...        0 min,  0.000 sec (  0.127%)
 Dispersion                     ...        0 min,  0.000 sec (  0.032%)
 classical contributions        ...        0 min,  0.000 sec (  0.017%)
 integral evaluation            ...        0 min,  0.199 sec ( 98.547%)
 iterations                     ...        0 min,  0.002 sec (  0.843%)
 molecular gradient             ...        0 min,  0.001 sec (  0.328%)
 printout                       ...        0 min,  0.000 sec (  0.095%)

         :::::::::::::::::::::::::::::::::::::::::::::::::::::
         ::                     SUMMARY                     ::
         :::::::::::::::::::::::::::::::::::::::::::::::::::::
         :: total energy             -12.286254484226 Eh    ::
         :: gradient norm              0.000646152813 Eh/a0 ::
         :: HOMO-LUMO gap              3.260334191562 eV    ::
         ::.................................................::
         :: SCC energy               -12.343483160820 Eh    ::
         :: -> isotropic ES            0.152214802444 Eh    ::
         :: -> anisotropic ES         -0.000956385098 Eh    ::
         :: -> anisotropic XC          0.001953030759 Eh    ::
         :: -> dispersion             -0.003033694174 Eh    ::
         :: repulsion energy           0.057228676594 Eh    ::
         :: add. restraining           0.000000000000 Eh    ::
         :: total charge              -1.000000000000 e     ::
         :::::::::::::::::::::::::::::::::::::::::::::::::::::


Property printout bound to 'properties.out'

           -------------------------------------------------
          | TOTAL ENERGY              -12.286254484226 Eh   |
          | GRADIENT NORM               0.000646152813 Eh/α |
          | HOMO-LUMO GAP               3.260334191562 eV   |
           -------------------------------------------------

------------------------------------------------------------------------
 * finished run on 2026/03/16 at 14:17:31.457     
------------------------------------------------------------------------
 total:
 * wall-time:     0 d,  0 h,  0 min,  0.375 sec
 *  cpu-time:     0 d,  0 h,  0 min,  0.583 sec
 * ratio c/w:     1.555 speedup
 SCF:
 * wall-time:     0 d,  0 h,  0 min,  0.202 sec
 *  cpu-time:     0 d,  0 h,  0 min,  0.432 sec
 * ratio c/w:     2.136 speedup


-------------------------   --------------------
FINAL SINGLE POINT ENERGY       -12.286254484230
-------------------------   --------------------


-------------
DIPOLE MOMENT
-------------
                                X             Y             Z
Total Dipole Moment    :     -0.00000      -0.00000       3.93200
                        -----------------------------------------
Magnitude (a.u.)       :      3.93200
Magnitude (Debye)      :      9.99435


------------------
CARTESIAN GRADIENT
------------------

   1   C   :   -0.000001615    0.000010395   -0.000461954
   2   H   :   -0.000000169   -0.000057241   -0.000026496
   3   H   :   -0.000037789    0.000022877   -0.000030428
   4   H   :    0.000039547    0.000024087   -0.000029815
   5   Cl  :    0.000000016   -0.000000032    0.000421963
   6   I   :    0.000000010   -0.000000086    0.000126730

Difference to translation invariance:
           :    0.0000000000   -0.0000000000    0.0000000000

Difference to rotation invariance:
           :    0.0000000004   -0.0000000044    0.0000000000

Norm of the Cartesian gradient     ...    0.0006461528
RMS gradient                       ...    0.0001522997
MAX gradient                       ...    0.0004619535
------------------------------------------------------------------------------
                         ORCA GEOMETRY RELAXATION STEP
------------------------------------------------------------------------------

Reading the OPT-File                    .... done
Getting information on internals        .... done
Copying old internal coords+grads       .... done
Making the new internal coordinates     .... (2022 redundants) done
Validating the new internal coordinates .... (2022 redundants) done
Calculating the B-matrix                .... done
Calculating the G,G- and P matrices     .... done
Transforming gradient to internals      .... done
Projecting the internal gradient        .... done
Number of atoms                         ....   6
Number of internal coordinates          ....  17
Current Energy                          ....   -12.286254484 Eh
Current gradient norm                   ....     0.000646153 Eh/bohr
Maximum allowed component of the step   ....  0.300
Current trust radius                    ....  0.200
Updating the Hessian (BFGS)             .... done
Forming the augmented Hessian           .... done
Diagonalizing the augmented Hessian     .... done
Last element of RFO vector              ....  0.999782744
Lowest eigenvalues of augmented Hessian:
 -0.000002090  0.003587544  0.041104502  0.041110378  0.193467091
Length of the computed step             ....  0.020848360
The final length of the internal step   ....  0.020848360
Converting the step to Cartesian space:
 Initial RMS(Int)=    0.0050564700
Transforming coordinates:
 Iter   0:  RMS(Cart)=    0.0022806967 RMS(Int)=    0.0050568217
done
Storing new coordinates                 .... done
The predicted energy change is          ....    -0.000001045
Previously predicted energy change      ....    -0.000026506
Actually observed energy change         ....    -0.000029663
Ratio of predicted to observed change   ....     1.119096322
New trust radius                        ....     0.300000000

                                .--------------------.
          ----------------------|Geometry convergence|-------------------------
          Item                value                   Tolerance       Converged
          ---------------------------------------------------------------------
          Energy change      -0.0000296625            0.0000050000      NO
          RMS gradient        0.0001048780            0.0001000000      NO
          MAX gradient        0.0004219625            0.0003000000      NO
          RMS step            0.0050564700            0.0020000000      NO
          MAX step            0.0108152052            0.0040000000      NO
          -------------------------------------------------------------------------
          ........................................................
          Max(Bonds)      0.0057      Max(Angles)    0.00
          Max(Dihed)        0.00      Max(Improp)    0.00
          ---------------------------------------------------------------------

The optimization has not yet converged - more geometry cycles are needed


    ---------------------------------------------------------------------------
                         Redundant Internal Coordinates
                            (Angstroem and degrees)

        Definition                    Value    dE/dq     Step     New-Value
    ----------------------------------------------------------------------------
     1. B(H   1,C   0)                1.0828 -0.000045  0.0001    1.0829   
     2. B(H   2,C   0)                1.0828 -0.000032  0.0001    1.0829   
     3. B(H   3,C   0)                1.0828 -0.000034  0.0001    1.0829   
     4. B(Cl  4,C   0)                1.7843  0.000422 -0.0009    1.7834   
     5. B(I   5,H   3)                3.1170 -0.000036  0.0054    3.1224   
     6. B(I   5,H   1)                3.1170 -0.000035  0.0054    3.1224   
     7. B(I   5,H   2)                3.1170 -0.000036  0.0054    3.1224   
     8. B(I   5,C   0)                3.2825 -0.000026  0.0057    3.2882   
     9. A(H   1,C   0,H   3)          110.62 -0.000006    0.00    110.62   
    10. A(H   2,C   0,H   3)          110.62 -0.000003    0.00    110.62   
    11. A(H   1,C   0,Cl  4)          108.29  0.000005   -0.00    108.29   
    12. A(H   2,C   0,Cl  4)          108.29  0.000005   -0.00    108.29   
    13. A(H   3,C   0,Cl  4)          108.29  0.000005   -0.00    108.29   
    14. A(H   1,C   0,I   5)           71.71 -0.000005    0.00     71.71   
    15. A(H   2,C   0,I   5)           71.71 -0.000005    0.00     71.71   
    16. A(H   3,C   0,I   5)           71.71 -0.000005    0.00     71.71   
    17. A(H   1,C   0,H   2)          110.62 -0.000005    0.00    110.62   
    ----------------------------------------------------------------------------

Geometry step timings:
Preparation and reading OPT file:      0.000 s ( 2.758 %)
Internal coordinates            :      0.000 s ( 4.385 %)
B/P matrices and projection     :      0.000 s (12.659 %)
Hessian update/contruction      :      0.000 s (24.682 %)
Making the step                 :      0.000 s (11.033 %)
Converting the step to Cartesian:      0.000 s ( 3.041 %)
Storing new data                :      0.000 s ( 7.355 %)
Checking convergence            :      0.000 s ( 9.760 %)
Final printing                  :      0.000 s (24.257 %)
Total time                      :      0.001 s

Time for energy+gradient        :      0.386 s
Time for complete geometry iter :      0.389 s

         *************************************************************
         *                GEOMETRY OPTIMIZATION CYCLE   4            *
         *************************************************************
---------------------------------
CARTESIAN COORDINATES (ANGSTROEM)
---------------------------------
  C    -0.000001    0.000030    0.443169
  H    -0.000002    1.028193    0.103293
  H     0.890415   -0.514052    0.103277
  H    -0.890416   -0.514053    0.103279
  Cl    0.000003    0.000006    2.226593
  I    -0.000001    0.000011   -2.845017

----------------------------
CARTESIAN COORDINATES (A.U.)
----------------------------
  NO LB    ZA    FRAG    MASS        X           Y           Z
   0 C   6.0000    0    12.011   -0.000002    0.000058    0.837468
   1 H   1.0000    0     1.008   -0.000003    1.943003    0.195196
   2 H   1.0000    0     1.008    1.682641   -0.971417    0.195166
[...]
        25                          0.4316485              11.7458
      -------------------------------------------------------------
                  HL-Gap            0.1197799 Eh            3.2594 eV
             Fermi-level           -0.1004757 Eh           -2.7341 eV

 SCC (total)                   0 d,  0 h,  0 min,  0.179 sec
 SCC setup                      ...        0 min,  0.000 sec (  0.172%)
 Dispersion                     ...        0 min,  0.000 sec (  0.031%)
 classical contributions        ...        0 min,  0.000 sec (  0.016%)
 integral evaluation            ...        0 min,  0.177 sec ( 98.763%)
 iterations                     ...        0 min,  0.001 sec (  0.567%)
 molecular gradient             ...        0 min,  0.001 sec (  0.355%)
 printout                       ...        0 min,  0.000 sec (  0.084%)

         :::::::::::::::::::::::::::::::::::::::::::::::::::::
         ::                     SUMMARY                     ::
         :::::::::::::::::::::::::::::::::::::::::::::::::::::
         :: total energy             -12.286255883638 Eh    ::
         :: gradient norm              0.000199069277 Eh/a0 ::
         :: HOMO-LUMO gap              3.259376859289 eV    ::
         ::.................................................::
         :: SCC energy               -12.343475240598 Eh    ::
         :: -> isotropic ES            0.152399042980 Eh    ::
         :: -> anisotropic ES         -0.000960503891 Eh    ::
         :: -> anisotropic XC          0.001921714634 Eh    ::
         :: -> dispersion             -0.003029831965 Eh    ::
         :: repulsion energy           0.057219356960 Eh    ::
         :: add. restraining           0.000000000000 Eh    ::
         :: total charge              -1.000000000000 e     ::
         :::::::::::::::::::::::::::::::::::::::::::::::::::::

           ------------------------------------------------- 
          |                Numerical Hessian                |
           ------------------------------------------------- 
step length          :   0.00500
SCC accuracy         :   0.30000
Hessian scale factor :   1.00000
frozen atoms in %    :   0.00000    0
RMS gradient         :   0.00020
estimated CPU  time      0.00 min
estimated wall time      0.00 min

writing file <hessian>.

 projected vibrational frequencies (cm⁻¹)
eigval :       -0.00    -0.00    -0.00     0.00     0.00     0.00
eigval :       93.33    93.36    93.38   634.23   983.46   983.46
eigval :     1306.64  1438.83  1438.87  3061.25  3075.30  3075.32

Property printout bound to 'properties.out'
Molecule has the following symmetry elements: (C3) 3*(sigma) 
It seems to be the C3v point group

           -------------------------------------------------
          | TOTAL ENERGY              -12.286255883638 Eh   |
          | TOTAL ENTHALPY            -12.242909777208 Eh   |
          | TOTAL FREE ENERGY         -12.279241379539 Eh   |
          | GRADIENT NORM               0.000199076117 Eh/α |
          | HOMO-LUMO GAP               3.259376709401 eV   |
           -------------------------------------------------

------------------------------------------------------------------------
 * finished run on 2026/03/16 at 14:17:32.259     
------------------------------------------------------------------------
 total:
 * wall-time:     0 d,  0 h,  0 min,  0.286 sec
 *  cpu-time:     0 d,  0 h,  0 min,  0.634 sec
 * ratio c/w:     2.212 speedup
 SCF:
 * wall-time:     0 d,  0 h,  0 min,  0.179 sec
 *  cpu-time:     0 d,  0 h,  0 min,  0.398 sec
 * ratio c/w:     2.217 speedup
 analytical hessian:
 * wall-time:     0 d,  0 h,  0 min,  0.094 sec
 *  cpu-time:     0 d,  0 h,  0 min,  0.157 sec
 * ratio c/w:     1.678 speedup


-------------------------   --------------------
FINAL SINGLE POINT ENERGY       -12.286255883640
-------------------------   --------------------


-------------
DIPOLE MOMENT
-------------
                                X             Y             Z
Total Dipole Moment    :      0.00000      -0.00000       3.94600
                        -----------------------------------------
Magnitude (a.u.)       :      3.94600
Magnitude (Debye)      :     10.02993


-----------------------
VIBRATIONAL FREQUENCIES
-----------------------

Scaling factor for frequencies =  1.000000000  (already applied!)

     0:       0.00 cm**-1
     1:       0.00 cm**-1
     2:       0.00 cm**-1
     3:       0.00 cm**-1
     4:       0.00 cm**-1
     5:       0.00 cm**-1
     6:      93.33 cm**-1
     7:      93.36 cm**-1
     8:      93.38 cm**-1
     9:     634.23 cm**-1
    10:     983.44 cm**-1
    11:     983.44 cm**-1
    12:    1306.60 cm**-1
    13:    1438.79 cm**-1
    14:    1438.83 cm**-1
    15:    3061.16 cm**-1
    16:    3075.22 cm**-1
    17:    3075.24 cm**-1


------------
NORMAL MODES
------------

These modes are the Cartesian displacements weighted by the diagonal matrix
M(i,i)=1/sqrt(m[i]) where m[i] is the mass of the displaced atom
Thus, these vectors are normalized but *not* orthogonal

                  0          1          2          3          4          5    
      0       0.000000   0.000000   0.000000   0.000000   0.000000   0.000000
      1       0.000000   0.000000   0.000000   0.000000   0.000000   0.000000
      2       0.000000   0.000000   0.000000   0.000000   0.000000   0.000000
      3       0.000000   0.000000   0.000000   0.000000   0.000000   0.000000
      4       0.000000   0.000000   0.000000   0.000000   0.000000   0.000000
      5       0.000000   0.000000   0.000000   0.000000   0.000000   0.000000
      6       0.000000   0.000000   0.000000   0.000000   0.000000   0.000000
      7       0.000000   0.000000   0.000000   0.000000   0.000000   0.000000
      8       0.000000   0.000000   0.000000   0.000000   0.000000   0.000000
      9       0.000000   0.000000   0.000000   0.000000   0.000000   0.000000
     10       0.000000   0.000000   0.000000   0.000000   0.000000   0.000000
     11       0.000000   0.000000   0.000000   0.000000   0.000000   0.000000
     12       0.000000   0.000000   0.000000   0.000000   0.000000   0.000000
     13       0.000000   0.000000   0.000000   0.000000   0.000000   0.000000
     14       0.000000   0.000000   0.000000   0.000000   0.000000   0.000000
     15       0.000000   0.000000   0.000000   0.000000   0.000000   0.000000
     16       0.000000   0.000000   0.000000   0.000000   0.000000   0.000000
     17       0.000000   0.000000   0.000000   0.000000   0.000000   0.000000
                  6          7          8          9         10         11    
      0       0.394445  -0.001322  -0.000843  -0.000004  -0.009111   0.112130
      1      -0.000763   0.091568  -0.393903   0.000012  -0.112132  -0.009111
      2      -0.000395  -0.443523  -0.023995  -0.642050  -0.000003  -0.000001
      3       0.484420  -0.001624  -0.001032  -0.000002   0.019369  -0.238364
      4      -0.000944   0.117717  -0.489072   0.043658   0.155103   0.012603
      5      -0.000920  -0.353209  -0.305332  -0.415427   0.756793   0.061488
      6       0.488609   0.001252   0.001527   0.037791   0.050359  -0.172994
      7      -0.003295   0.110803  -0.485257  -0.021822   0.220498  -0.018367
      8       0.245032  -0.452594   0.118147  -0.415439  -0.325131  -0.686141
      9       0.488592  -0.004526  -0.003619  -0.037795  -0.021774  -0.178848
     10       0.001411   0.110786  -0.485260  -0.021823   0.214640   0.053722
     11      -0.245234  -0.450951   0.119192  -0.415441  -0.431629   0.624659
     12      -0.108376   0.000363   0.000232   0.000001   0.001740  -0.021420
     13       0.000210  -0.025159   0.108227  -0.000004   0.021420   0.001740
     14      -0.000388  -0.438644  -0.023723   0.253569  -0.000000   0.000000
     15      -0.018666   0.000063   0.000040   0.000000  -0.000005   0.000059
     16       0.000036  -0.004333   0.018640  -0.000000  -0.000059  -0.000005
     17       0.000155   0.174509   0.009439  -0.000172  -0.000000   0.000000
                 12         13         14         15         16         17    
      0       0.000001   0.000575   0.072041  -0.000002  -0.091375  -0.001848
      1      -0.000000  -0.072035   0.000575   0.000078   0.001848  -0.091375
      2       0.098495   0.000001  -0.000000   0.036911  -0.000001   0.000033
      3      -0.000003  -0.005982  -0.749423  -0.000002  -0.043018  -0.000867
      4      -0.184575  -0.122124   0.000978   0.553328  -0.015622   0.772167
      5      -0.544025  -0.294335   0.002352  -0.160952   0.005102  -0.252181
      6      -0.159869   0.376621  -0.098777   0.480080   0.575096  -0.340842
      7       0.092285   0.528519  -0.381634  -0.277138  -0.356003   0.153262
      8      -0.544056   0.149179   0.253693  -0.161288  -0.220818   0.121461
      9       0.159863  -0.378144  -0.092753  -0.480058   0.560878   0.363808
     10       0.092286   0.534547   0.373151  -0.277124   0.349526   0.167523
     11      -0.544057   0.145114  -0.256040  -0.161274   0.215731   0.130283
     12       0.000000   0.000018   0.002273  -0.000000  -0.000173  -0.000003
     13       0.000000  -0.002274   0.000018   0.000000   0.000003  -0.000173
     14       0.011176   0.000001  -0.000000   0.001007  -0.000000   0.000001
     15       0.000000   0.000000   0.000021   0.000000   0.000015   0.000000
     16      -0.000000  -0.000021   0.000000   0.000000  -0.000000   0.000015
     17       0.000520  -0.000000  -0.000000   0.000066  -0.000000   0.000000


The first frequency considered to be a vibration is 6
The total number of vibrations considered is 12


--------------------------
THERMOCHEMISTRY AT 298.15K
--------------------------

Temperature         ...   298.15 K
Pressure            ...     1.00 atm
Total Mass          ...   177.39 AMU
Quasi RRHO          ...     True
Cut-Off Frequency   ...     1.00 cm^-1

Throughout the following assumptions are being made:
  (1) The electronic state is orbitally nondegenerate
  (2) There are no thermally accessible electronically excited states
  (3) Hindered rotations indicated by low frequency modes are not
      treated as such but are treated as vibrations and this may
      cause some error
  (4) All equations used are the standard statistical mechanics
      equations for an ideal gas
  (5) All vibrations are strictly harmonic

freq.      93.33  E(vib)   ...       0.47 
freq.      93.36  E(vib)   ...       0.47 
freq.      93.38  E(vib)   ...       0.47 
freq.     634.23  E(vib)   ...       0.09 
freq.     983.44  E(vib)   ...       0.02 
freq.     983.44  E(vib)   ...       0.02 
freq.    1306.60  E(vib)   ...       0.01 
freq.    1438.79  E(vib)   ...       0.00 
freq.    1438.83  E(vib)   ...       0.00 
freq.    3061.16  E(vib)   ...       0.00 
freq.    3075.22  E(vib)   ...       0.00 
freq.    3075.24  E(vib)   ...       0.00 

------------
INNER ENERGY
------------

The inner energy is: U= E(el) + E(ZPE) + E(vib) + E(rot) + E(trans)
    E(el)   - is the total energy from the electronic structure calculation
              = E(kin-el) + E(nuc-el) + E(el-el) + E(nuc-nuc)
    E(ZPE)  - the the zero temperature vibrational energy from the frequency calculation
    E(vib)  - the the finite temperature correction to E(ZPE) due to population
              of excited vibrational states
    E(rot)  - is the rotational thermal energy
    E(trans)- is the translational thermal energy

Summary of contributions to the inner energy U:
Electronic energy                ...    -12.28625588 Eh
Zero point energy                ...      0.03708175 Eh      23.27 kcal/mol
Thermal vibrational correction   ...      0.00248656 Eh       1.56 kcal/mol
Thermal rotational correction    ...      0.00141627 Eh       0.89 kcal/mol
Thermal translational correction ...      0.00141627 Eh       0.89 kcal/mol
-----------------------------------------------------------------------
Total thermal energy                    -12.24385503 Eh


Summary of corrections to the electronic energy:
(perhaps to be used in another calculation)
Total thermal correction                  0.00531910 Eh       3.34 kcal/mol
Non-thermal (ZPE) correction              0.03708175 Eh      23.27 kcal/mol
-----------------------------------------------------------------------
Total correction                          0.04240085 Eh      26.61 kcal/mol


--------
ENTHALPY
--------

The enthalpy is H = U + kB*T
                kB is Boltzmann's constant
Total thermal energy              ...    -12.24385503 Eh 
Thermal Enthalpy correction       ...      0.00094421 Eh       0.59 kcal/mol
-----------------------------------------------------------------------
Total Enthalpy                    ...    -12.24291082 Eh


WARNING (ORCA/SYM): The number of Z matrix atoms does not agree with
the number of centers in the basis set. The point group will therefore
be determined without considering basis set information.


Note: Rotational entropy computed according to Herzberg 
Infrared and Raman Spectra, Chapter V,1, Van Nostrand Reinhold, 1945 
Point Group:  C3v, Symmetry Number:   3  
Rotational constants in cm-1:     5.273295     0.021717     0.021717 

Vibrational entropy computed according to the QRRHO of S. Grimme
Chem.Eur.J. 2012 18 9955 using a reference frequency of 100.0 cm-1


-------
ENTROPY
-------

The entropy contributions are T*S = T*(S(el)+S(vib)+S(rot)+S(trans))
     S(el)   - electronic entropy
     S(vib)  - vibrational entropy
     S(rot)  - rotational entropy
     S(trans)- translational entropy
The entropies will be listed as multiplied by the temperature to get
units of energy

Electronic entropy                ...      0.00000000 Eh      0.00 kcal/mol
Vibrational entropy               ...      0.00488589 Eh      3.07 kcal/mol
Rotational entropy                ...      0.01130451 Eh      7.09 kcal/mol
Translational entropy             ...      0.01968301 Eh     12.35 kcal/mol
-----------------------------------------------------------------------
Final entropy term                ...      0.03587340 Eh     22.51 kcal/mol

In case the symmetry of your molecule has not been determined correctly
or in case you have a reason to use a different symmetry number we print 
out the resulting rotational entropy values for sn=1,12:

 non-linear molecules -----------------------------------
|  sn= 1 | S(rot)=       0.01234180 Eh      7.74 kcal/mol|
|  sn= 2 | S(rot)=       0.01168734 Eh      7.33 kcal/mol|
|  sn= 3 | S(rot)=       0.01130451 Eh      7.09 kcal/mol|
|  sn= 4 | S(rot)=       0.01103289 Eh      6.92 kcal/mol|
|  sn= 5 | S(rot)=       0.01082220 Eh      6.79 kcal/mol|
|  sn= 6 | S(rot)=       0.01065005 Eh      6.68 kcal/mol|
|  sn= 7 | S(rot)=       0.01050451 Eh      6.59 kcal/mol|
|  sn= 8 | S(rot)=       0.01037843 Eh      6.51 kcal/mol|
|  sn= 9 | S(rot)=       0.01026722 Eh      6.44 kcal/mol|
|  sn=10 | S(rot)=       0.01016774 Eh      6.38 kcal/mol|
|  sn=11 | S(rot)=       0.01007775 Eh      6.32 kcal/mol|
|  sn=12 | S(rot)=       0.00999560 Eh      6.27 kcal/mol|
 linear molecules ---------------------------------------
|  Dinfh | S(rot)=       0.00894172 Eh      5.61 kcal/mol|
|  Cinfv | S(rot)=       0.00959617 Eh      6.02 kcal/mol|
 --------------------------------------------------------


-------------------
GIBBS FREE ENERGY
-------------------

The Gibbs free energy is G = H - T*S

Total enthalpy                    ...    -12.24291082 Eh 
Total entropy correction          ...     -0.03587340 Eh    -22.51 kcal/mol
-----------------------------------------------------------------------
Final Gibbs free energy         ...    -12.27878422 Eh

For completeness - the Gibbs free energy minus the electronic energy
G-E(el)                           ...      0.00747166 Eh      4.69 kcal/mol


--------------------------------
SUGGESTED CITATIONS FOR THIS RUN
--------------------------------

Below you find a list of papers that are relevant to this ORCA run
We neither can nor want to force you to cite these papers, but we appreciate if you do
You receive ORCA, which is the product of decades of hard work by many enthusiastic individuals, for free
The only thing we kindly ask in return is that you cite our papers,
We deeply appreciate it, if you show your appreciation for ORCA by not just citing the generic ORCA reference.

Please note that relegating all ORCA citations to the supporting information does *not* help us.
SI sections are not indexed - citations you put there will not count into any citation statistics
But we need these citations in order to attract the funding resources that allow us to do what we are doing

Therefore, if you are a happy ORCA user, please consider citing a few of the papers listed below in the main body of your paper

In addition to the list printed below, the program has created the file product_optfreq.bibtex that contains the list in bibtex format
You can import this file easily into all common literature databanks and citation aid programs


List of essential papers. We consider these as the minimum necessary citations

  1. Bannwarth, C.; Ehlert, S.; Grimme, S.
     GFN2-xTB—An Accurate and Broadly Parametrized Self-Consistent Tight-Binding Quantum Chemical Method with Multipole Electrostatics and Density-Dependent Dispersion Contributions
     J. Chem. Theory Comput. 2019 15(3), 1652-1671
     doi.org/10.1021/acs.jctc.8b01176
  2. Neese, F.
     Software update: the ORCA program system, version 6.0
     WIRES Comput. Molec. Sci. 2025 15(1), e70019
     doi.org/10.1002/wcms.7019

List of papers to cite with high priority. The work reported in these papers was absolutely
necessary for this run to complete.
Our perspective: the developers of density functionals and basis sets usually get cited in chemistry papers
Good! But without the algorithms to do something with them, the functionals or basis sets would not do anything.
Hence, in our opinion, the algorithm design and method developments papers are equally worthy of getting cited

  1. Bykov, D.; Petrenko, T.; Izsak, R.; Kossmann, S.; Becker, U.; Valeev, E.; Neese, F.
     Efficient implementation of the analytic second derivatives of Hartree-Fock and hybrid DFT energies: a detailed analysis of different approximations
     Molec. Phys. 2015 113 , 1961-1977
     doi.org/10.1080/00268976.2015.1025114
  2. Bannwarth, C.; Caldeweyher, E.; Ehlert, S.; Hansen, A.; Pracht, P.; Seibert, J.; Spicher, S.; Grimme, S.
     Extended tight-binding quantum chemistry methods
     WIRES Comput. Molec. Sci. 2020 11(2), e1493
     doi.org/10.1002/wcms.1493

List of suggested additional citations. These are papers that are important in the 'surrounding' of 
of this run, or papers that preceded the highly important papers. If you like your results we are grateful for a citation.

  1. Neese, F.
     The ORCA program system
     WIRES Comput. Molec. Sci. 2012 2(1), 73-78
     doi.org/10.1002/wcms.81
  2. Neese, F.
     Software update: the ORCA program system, version 4.0
     WIRES Comput. Molec. Sci. 2018 8(1), 1-6
     doi.org/10.1002/wcms.1327
  3. Neese, F.; Wennmohs, F.; Becker, U.; Riplinger, C.
     The ORCA quantum chemistry program package
     J. Chem. Phys. 2020 152(22), 224108
     doi.org/10.1063/5.0004608
  4. Neese, F.
     Software update: The ORCA program system—Version 5.0
     WIRES Comput. Molec. Sci. 2022 12(1), e1606
     doi.org/10.1002/wcms.1606

List of optional additional citations

  1. Neese, F.
     Approximate second-order SCF convergence for spin unrestricted wavefunctions
     Chem. Phys. Lett. 2000 325(1-3), 93-98
     doi.org/10.1016/s0009-2614(00)00662-x

Timings for individual modules:

Sum of individual times          ...        1.680 sec (=   0.028 min)
Geometry relaxation              ...        0.012 sec (=   0.000 min)   0.7 %
XTB module                       ...        1.668 sec (=   0.028 min)  99.3 %
                             ****ORCA TERMINATED NORMALLY****
TOTAL RUN TIME: 0 days 0 hours 0 minutes 2 seconds 586 msec
