
                                 *****************
                                 * O   R   C   A *
                                 *****************

                                            #,                                       
                                            ###                                      
                                            ####                                     
                                            #####                                    
                                            ######                                   
                                           ########,                                 
                                     ,,################,,,,,                         
                               ,,#################################,,                 
                          ,,##########################################,,             
                       ,#########################################, ''#####,          
                    ,#############################################,,   '####,        
                  ,##################################################,,,,####,       
                ,###########''''           ''''###############################       
              ,#####''   ,,,,##########,,,,          '''####'''          '####       
            ,##' ,,,,###########################,,,                        '##       
           ' ,,###''''                  '''############,,,                           
         ,,##''                                '''############,,,,        ,,,,,,###''
      ,#''                                            '''#######################'''  
     '                                                          ''''####''''         
             ,#######,   #######,   ,#######,      ##                                
            ,#'     '#,  ##    ##  ,#'     '#,    #''#        ,####,    ,#,          
            ##       ##  ##   ,#'  ##            #'  '#       #'       ,# #          
            ##       ##  #######   ##           ,######,      #####,      #          
            '#,     ,#'  ##    ##  '#,     ,#' ,#      #,     #,   #      #          
             '#######'   ##     ##  '#######'  #'      '#     '####' #    #          



                #########################################################
                #                        -***-                          #
                #          Department of theory and spectroscopy        #
                #                                                       #
                #                      Frank Neese                      #
                #                                                       #
                #     Directorship, Architecture, Infrastructure        #
                #                    SHARK, DRIVERS                     #
                #        Core code/Algorithms in most modules           #
                #                                                       #
                #        Max Planck Institute fuer Kohlenforschung      #
                #                Kaiser Wilhelm Platz 1                 #
                #                 D-45470 Muelheim/Ruhr                 #
                #                      Germany                          #
                #                                                       #
                #                  All rights reserved                  #
                #                        -***-                          #
                #########################################################


                         Program Version 6.1.0  -  RELEASE   -
                                (GIT: $679e74b$)
                          ($2025-06-10 18:02:51 +0200$)


 With contributions from (in alphabetic order):
[Max-Planck-Institut fuer Kohlenforschung]                               
  Daniel Aravena         : Magnetic Suceptibility                        
  Michael Atanasov       : Ab Initio Ligand Field Theory (pilot matlab implementation)
  Alexander A. Auer      : GIAO ZORA, VPT2 properties, NMR spectrum      
  Ute Becker             : All parallelization in ORCA, NUMFREQ, NUMCALC 
  Giovanni Bistoni       : ED, misc. LED, open-shell LED, HFLD           
  Dmytro Bykov           : pre 5.0 version of the SCF Hessian            
  Marcos Casanova-Páez   : Triplet and SCS-CIS(D). UHF-(DLPNO)-IP/EA/STEOM-CCSD. UHF-CVS-IP/STEOM-CCSD   
  Vijay G. Chilkuri      : MRCI spin determinant printing, contributions to CSF-ICE 
  Pauline Colinet        : FMM embedding                                 
  Dipayan Datta          : RHF DLPNO-CCSD density                        
  Achintya Kumar Dutta   : EOM-CC, STEOM-CC                              
  Nicolas Foglia         : Exact transition moments, OPA infrastructure, MCD improvements    
  Dmitry Ganyushin       : Spin-Orbit,Spin-Spin,Magnetic field MRCI      
  Miquel Garcia-Rates    : C-PCM and meta-GGA Hessian, CCSD/C-PCM, Gaussian charge scheme 
  Tiago L. C. Gouveia    : GS-ROHF, GS-ROCIS                             
  Yang Guo               : DLPNO-NEVPT2, F12-NEVPT2, CIM, IAO-localization        
  Andreas Hansen         : Spin unrestricted coupled pair/coupled cluster methods 
  Ingolf Harden          : AUTO-CI MPn and infrastructure                
  Benjamin Helmich-Paris : MC-RPA, TRAH-(SCF,CASSCF), AVAS, COSX integrals, SCF dyn. polar., MC-PDFT, srDFT 
  Lee Huntington         : MR-EOM, pCC                                   
  Robert Izsak           : Overlap fitted RIJCOSX, COSX-SCS-MP3, EOM     
  Riya Kayal             : Wick's Theorem for AUTO-CI, AUTO-CI UHF-CCSDT 
  Emily Kempfer          : AUTO-CI RHF CISDT and CCSDT, approximate NEVPT4
  Christian Kollmar      : KDIIS, OOCD, Brueckner-CCSD(T), CCSD density, CASPT2, CASPT2-K, improved NEVPT2 
  Axel Koslowski         : Symmetry handling                             
  Simone Kossmann        : meta-GGA functionals, TD-DFT gradient, OOMP2, (MP2 Hessian; deprecated post 5.0) 
  Lucas Lang             : DCDCAS, Hyperfine gauge corrections, ICE-SOC+SSC
  Marvin Lechner         : AUTO-CI (C++ implementation), FIC-MRCC        
  Spencer Leger          : CASSCF response                               
  Dagmar Lenk            : GEPOL surface, SMD, ORCA-2-JSON               
  Dimitrios Liakos       : Extrapolation schemes; Compound Job, Property file
  Dimitrios Manganas     : Further ROCIS development; embedding schemes. LFT, Crystal Embedding 
  Dimitrios Pantazis     : SARC Basis sets                               
  Anastasios Papadopoulos: AUTO-CI, single reference methods and gradients 
  Taras Petrenko         : pre 6.0 DFT Hessian and TD-DFT gradient,  ECA, NRVS 
  Petra Pikulova         : Analytic Raman intensities                    
  Peter Pinski           : DLPNO-MP2, DLPNO-MP2 Gradient                 
  Shashank Vittal Rao    : ES-AILFT, MagRelax                            
  Christoph Reimann      : Effective Core Potentials                     
  Marius Retegan         : Local ZFS, SOC                                
  Christoph Riplinger    : Optimizer, TS searches, QM/MM, DLPNO-CCSD(T), (RO)-DLPNO pert. Triples 
  Michael Roemelt        : Original ROCIS implementation, recursive CI coupling coefficients
  Masaaki Saitow         : Open-shell DLPNO-CCSD energy and density      
  Barbara Sandhoefer     : DKH picture change effects                    
  Yorick L. A. Schmerwitz: GMF and freeze-and-release deltaSCF, NEB S-IDPP initial path                    
  Kantharuban Sivalingam : CASSCF convergence/infrastructure, NEVPT2, NEVPT3, NEVPT4(SD), FIC-MRCI and CEPA variants
  Bernardo de Souza      : ESD, SOC TD-DFT                               
  Georgi L. Stoychev     : AutoAux, RI-MP2 NMR, DLPNO-MP2 response, X2C  
  Van Anh Tran           : RI-MP2 g-tensors                              
  Willem Van den Heuvel  : Paramagnetic NMR                              
  Zikuan Wang            : NOTCH, Electric field optimization            
  Frank Wennmohs         : Technical directorship and infrastructure     
  Hang Xu                : AUTO-CI-Response properties                   
                                                                         
[FACCTs GmbH]                                                            
  Markus Bursch, Nicolas Foglia, Miquel Garcia-Rates, Ingolf Harden, Hagen Neugebauer, Anastasios Papadopoulos, 
  Christoph Riplinger, Bernardo de Souza, Georgi L. Stoychev                                                    
                                                                 
  APM, various basis sets, CI-OPT, improved COSX, DLPNO-Multilevel,           
  DOCKER, DRACO, updates on ESD, Fragmentator, GOAT, IRC, LR-CPCM, L-BFGS, MBIS, meta-GGA TD-DFT gradient, ML-optimized integration grids, 
  MM, NACMEs, nearIR, NEB, NEB-TS, NL-DFT gradient (VV10), 2- and 3-layer-ONIOM, interface openCOSMO-RS, QMMM,   
  Crystal-QMMM, RESP, rigid body optimization, SF, symmetry and pop. for TD-DFT, various functionals, SOLVATOR                                   
                                                                         
[Other institutions]                                                     
  V. Asgeirsson          : NEB                                           
  Christoph Bannwarth    : sTDA-DFT, sTD-DFT, PBEh-3c, B97-3c, D3        
  Giovanni Bistoni       : ETS/NOCV, ADLD/ADEX, COVALED                  
  Martin Brehm           : Molecular dynamics                            
  Ronald Cardenas        : ETS/NOCV                                      
  Martina Colucci        : COVALED                                       
  Sebastian Ehlert       : rSCAN, r2SCAN, r2SCAN-3c, D4, dhf basis sets  
  Marvin Friede          : D4 for Fr, Ra, Ac-Lr                          
  Lars Goerigk           : TD-DFT with DH, B97 family of functionals     
  Stefan Grimme          : VdW corrections, initial TS optimization, DFT functionals, gCP, sTDA/sTD-DF 
  Waldemar Hujo          : DFT-NL                                        
  H. Jonsson             : NEB                                           
  Holger Kruse           : gCP                                           
  Marcel Mueller         : wB97X-3c, vDZP basis set                      
  Hagen Neugebauer       : wr2SCAN, Native XTB                           
  Gianluca Regni         : ADLD/ADEX                                     
  Tobias Risthaus        : pre 6.0 range-separated hybrid DFT and stability analysis
  Lukas Wittmann         : regularized MP2, r2SCAN double-hybrids, wr2SCAN        
                                                                         
We gratefully acknowledge several colleagues who have allowed us to      
interface, adapt or use parts of their codes:                            
  Ed Valeev, F. Pavosevic, A. Kumar             : LibInt (2-el integral package), F12 methods 
  Garnet Chan, S. Sharma, J. Yang, R. Olivares  : DMRG                   
  Ulf Ekstrom                                   : XCFun DFT Library      
  Mihaly Kallay                                 : mrcc  (arbitrary order and MRCC methods)
  Frank Weinhold                                : gennbo (NPA and NBO analysis)           
  Simon Mueller                                 : openCOSMO-RS                            
  Christopher J. Cramer and Donald G. Truhlar   : smd solvation model                     
  S Lehtola, MJT Oliveira, MAL Marques          : LibXC Library                           
  Liviu Ungur et al                             : ANISO software                          


 Your calculation uses the libint2 library for the computation of 2-el integrals
 For citations please refer to: http://libint.valeyev.net

 Your ORCA version has been built with support for libXC version: 7.0.0
 For citations please refer to: https://libxc.gitlab.io

 This ORCA versions uses:
   CBLAS   interface :  Fast vector & matrix operations
   LAPACKE interface :  Fast linear algebra routines
   SCALAPACK package :  Parallel linear algebra routines
   Shared memory     :  Shared parallel matrices
   BLAS/LAPACK       :  OpenBLAS 0.3.29  USE64BITINT DYNAMIC_ARCH NO_AFFINITY SkylakeX SINGLE_THREADED
        Core in use  :  SkylakeX
   Copyright (c) 2011-2014, The OpenBLAS Project


  ***********************************
  * Starting time: Mon Mar 16 14:17:25 2026
  * Host name:     midway3-login4.rcc.local
  * Process ID:    86395
  * Working dir.:  /home/rzhu16/evans-polanyi-principle-validation/runs/sn2_cl_i/geo_opt_reactant_product
  ***********************************

Your calculation utilizes the semiempirical GFN2-xTB method
Please cite in your paper:
Bannwarth, C.; Ehlert S.; Grimme, S. J. Chem. Theory Comput. 2019, 15, 1652.
   

================================================================================

cite the ECPs for I  [Def2-ECP] as follows:
Ce-Yb(ecp-28): M. Dolg, H. Stoll, H.Preuss, J. Chem. Phys., 1989, 90, 1730-1734.
Y-Cd(ecp-28), Hf-Hg(ecp-46): D. Andrae,U. Haeussermann, M. Dolg, H. Stoll, H. Preuss, Theor. Chim. Acta, 1990, 77, 123-141.
In-Sb(ecp-28), Tl-Bi(ecp-46): B. Metz, H. Stoll, M. Dolg, J. Chem. Phys., 2000, 113, 2563-2569.
Te-Xe(ecp-28), Po-Rn(ecp-46): K. A. Peterson, D. Figgen, E. Goll, H. Stoll, M. Dolg, J. Chem. Phys., 2003, 119, 11113-11123.
Rb(ecp-28), Cs(ecp-46): T. Leininger, A. Nicklass, W. Kuechle, H. Stoll, M. Dolg, A. Bergner, Chem. Phys. Lett., 1996, 255, 274-280.
Sr(ecp-28), Ba(ecp-46): M. Kaupp, P. V. Schleyer, H. Stoll and H. Preuss, J. Chem. Phys., 1991, 94, 1360-1366.
La(ecp-46): M. Dolg, H. Stoll, A. Savin, H. Preuss, Theor. Chim. Acta, 1989, 75, 173-194.
Lu(ecp-28): X. Cao, M. Dolg, J. Chem. Phys., 2001, 115, 7348-7355.

ECP parameters for I  [Def2-ECP] have been obtained from:
TURBOMOLE (7.0.2)

================================================================================
                                        WARNINGS
                       Please study these warnings very carefully!
================================================================================


WARNING: Analytical Hessian for XTB is limited in the analysis of the data.
       : If you want to obtain extensive IR and deltaG analysis, please use ! XTB NumFreq. 


WARNING: Geometry Optimization
  ===> : Switching off AutoStart
         For restart on a previous wavefunction, please use MOREAD

WARNING: Found dipole moment calculation with XTB calculation
  ===> : Switching off dipole moment calculation


WARNING: Found frequency calculation in combination with XTB calculation
  ===> : Need to redirect dipole moment calculation to properties.out


================================================================================
                                       INPUT FILE
================================================================================
NAME = reactant_optfreq.inp
|  1> ! XTB2 Opt Freq PAL8
|  2> 
|  3> %geom
|  4>   MaxIter 500
|  5> end
|  6> 
|  7> * xyz -1 1
|  8>   C       0.000021     -0.000326     -0.277360
|  9>   H       0.000000      1.026004      0.053841
| 10>   H       0.888331     -0.512899      0.053726
| 11>   H      -0.888350     -0.512910      0.053734
| 12>   Cl      0.000001     -0.000005      2.504455
| 13>   I      -0.000002      0.000002     -2.449790
| 14> *
| 15> 
| 16>                          ****END OF INPUT****
================================================================================

                       *****************************
                       * Geometry Optimization Run *
                       *****************************

Geometry optimization settings:
Update method            Update   .... BFGS
Choice of coordinates    CoordSys .... (2022) Redundant Internals
Initial Hessian          InHess   .... Almloef's Model
Max. no of cycles        MaxIter  .... 500

Convergence Tolerances:
Energy Change            TolE     ....  5.0000e-06 Eh
Max. Gradient            TolMAXG  ....  3.0000e-04 Eh/bohr
RMS Gradient             TolRMSG  ....  1.0000e-04 Eh/bohr
Max. Displacement        TolMAXD  ....  4.0000e-03 bohr
RMS Displacement         TolRMSD  ....  2.0000e-03 bohr
Strict Convergence                .... False

------------------------------------------------------------------------------
                        ORCA OPTIMIZATION COORDINATE SETUP
------------------------------------------------------------------------------

The optimization will be done in redundant internal coordinates (2022)
Making redundant internal coordinates   ...  (2022 redundants) done
Evaluating the initial hessian          ...  (Almloef) done
Evaluating the coordinates              ...  done
Calculating the B-matrix                .... done
Calculating the G-matrix                .... done
The number of degrees of freedom        ....   17

    -----------------------------------------------------------------
                    Redundant Internal Coordinates


    -----------------------------------------------------------------
         Definition                    Initial Value    Approx d2E/dq
    -----------------------------------------------------------------
      1. B(H   1,C   0)                  1.0784         0.375712   
      2. B(H   2,C   0)                  1.0777         0.376740   
      3. B(H   3,C   0)                  1.0778         0.376660   
      4. B(Cl  4,H   2)                  2.6567         0.010000   
      5. B(Cl  4,H   1)                  2.6567         0.010000   
      6. B(Cl  4,H   3)                  2.6567         0.010000   
      7. B(Cl  4,C   0)                  2.7818         0.010000   
      8. B(I   5,C   0)                  2.1724         0.118554   
      9. A(H   1,C   0,H   3)          110.9931         0.294872   
     10. A(H   2,C   0,H   3)          111.0288         0.294999   
     11. A(H   1,C   0,I   5)          107.8765         0.287803   
     12. A(H   2,C   0,I   5)          107.8963         0.287926   
     13. A(H   3,C   0,I   5)          107.8947         0.287916   
     14. A(H   1,C   0,Cl  4)           72.1083         0.195559   
     15. A(H   2,C   0,Cl  4)           72.1122         0.195625   
     16. A(H   3,C   0,Cl  4)           72.1121         0.195620   
     17. A(H   1,C   0,H   2)          110.9958         0.294882   
    -----------------------------------------------------------------

Number of atoms                         .... 6
Number of degrees of freedom            .... 17


         *************************************************************
         *                GEOMETRY OPTIMIZATION CYCLE   1            *
         *************************************************************
---------------------------------
CARTESIAN COORDINATES (ANGSTROEM)
---------------------------------
  C     0.000021   -0.000326   -0.277360
  H     0.000000    1.026004    0.053841
  H     0.888331   -0.512899    0.053726
  H    -0.888350   -0.512910    0.053734
  Cl    0.000001   -0.000005    2.504455
  I    -0.000002    0.000002   -2.449790

----------------------------
CARTESIAN COORDINATES (A.U.)
----------------------------
  NO LB    ZA    FRAG    MASS        X           Y           Z
   0 C   6.0000    0    12.011    0.000040   -0.000616   -0.524134
   1 H   1.0000    0     1.008    0.000000    1.938867    0.101745
   2 H   1.0000    0     1.008    1.678702   -0.969239    0.101527
   3 H   1.0000    0     1.008   -1.678738   -0.969259    0.101543
   4 Cl 17.0000    0    35.453    0.000002   -0.000009    4.732734
   5 I  53.0000    0   126.900   -0.000004    0.000004   -4.629432

      -----------------------------------------------------------      
     |                   =====================                   |     
     |                           x T B                           |     
     |                   =====================                   |     
     |                         S. Grimme                         |     
     |          Mulliken Center for Theoretical Chemistry        |     
     |                    University of Bonn                     |     
      -----------------------------------------------------------      

   * xtb version 6.7.1 (edcfbbe) compiled by 'albert@albert-system' on 2024-07-22

   xtb is free software: you can redistribute it and/or modify it under
   the terms of the GNU Lesser General Public License as published by
   the Free Software Foundation, either version 3 of the License, or
   (at your option) any later version.
   
   xtb is distributed in the hope that it will be useful,
   but WITHOUT ANY WARRANTY; without even the implied warranty of
   MERCHANTABILITY or FITNESS FOR A PARTICULAR PURPOSE.  See the
   GNU Lesser General Public License for more details.
   
   Cite this work as:
   * C. Bannwarth, E. Caldeweyher, S. Ehlert, A. Hansen, P. Pracht,
     J. Seibert, S. Spicher, S. Grimme, WIREs Comput. Mol. Sci., 2020, 11,
     e01493. DOI: 10.1002/wcms.1493
   
   for GFN2-xTB:
   * C. Bannwarth, S. Ehlert and S. Grimme., J. Chem. Theory Comput., 2019,
     15, 1652-1671. DOI: 10.1021/acs.jctc.8b01176
   for GFN1-xTB:
   * S. Grimme, C. Bannwarth, P. Shushkov, J. Chem. Theory Comput., 2017,
     13, 1989-2009. DOI: 10.1021/acs.jctc.7b00118
   for GFN0-xTB:
   * P. Pracht, E. Caldeweyher, S. Ehlert, S. Grimme, ChemRxiv, 2019, preprint.
     DOI: 10.26434/chemrxiv.8326202.v1
   for GFN-FF:
   * S. Spicher and S. Grimme, Angew. Chem. Int. Ed., 2020, 59, 15665-15673.
     DOI: 10.1002/anie.202004239
   
   for ALPB and GBSA implicit solvation:
   * S. Ehlert, M. Stahn, S. Spicher, S. Grimme, J. Chem. Theory Comput.,
     2021, 17, 4250-4261. DOI: 10.1021/acs.jctc.1c00471
   
   for ddCOSMO and CPCM-X implicit solvation:
   * M. Stahn, S. Ehlert, S. Grimme, J. Phys. Chem. A,
     2023, XX, XXXX-XXXX. DOI: 10.1021/acs.jpca.3c04382
   
   for DFT-D4:
   * E. Caldeweyher, C. Bannwarth and S. Grimme, J. Chem. Phys., 2017,
     147, 034112. DOI: 10.1063/1.4993215
   * E. Caldeweyher, S. Ehlert, A. Hansen, H. Neugebauer, S. Spicher,
     C. Bannwarth and S. Grimme, J. Chem. Phys., 2019, 150, 154122.
     DOI: 10.1063/1.5090222
   * E. Caldeweyher, J.-M. Mewes, S. Ehlert and S. Grimme, Phys. Chem. Chem. Phys.
     2020, 22, 8499-8512. DOI: 10.1039/D0CP00502A
   
   for sTDA-xTB:
   * S. Grimme and C. Bannwarth, J. Chem. Phys., 2016, 145, 054103.
     DOI: 10.1063/1.4959605
   
   in the mass-spec context:
   * V. Asgeirsson, C. Bauer and S. Grimme, Chem. Sci., 2017, 8, 4879.
     DOI: 10.1039/c7sc00601b
   * J. Koopman and S. Grimme, ACS Omega 2019, 4, 12, 15120-15133.
     DOI: 10.1021/acsomega.9b02011
   
   for metadynamics refer to:
   * S. Grimme, J. Chem. Theory Comput., 2019, 155, 2847-2862
     DOI: 10.1021/acs.jctc.9b00143
   
   for SPH calculations refer to:
   * S. Spicher and S. Grimme, J. Chem. Theory Comput., 2021, 17, 1701-1714
     DOI: 10.1021/acs.jctc.0c01306
   
   for ONIOM refer to:
   * C. Plett, A. Katbashev, S. Ehlert, S. Grimme, M. Bursch,
     Phys. Chem. Chem. Phys., 2023, 25, 17860-17868. DOI: 10.1039/D3CP02178E
   
   for DIPRO refer to:
   * J. Kohn, N. Gildemeister, S. Grimme, D. Fazzi, A. Hansen,
     J. Chem. Phys., 2023, just accepted.
   
   for PTB refer to:
   * S. Grimme, M. Mueller, A. Hansen, J. Chem. Phys., 2023, 158, 124111.
     DOI: 10.1063/5.0137838
   
   with help from (in alphabetical order)
   P. Atkinson, C. Bannwarth, F. Bohle, G. Brandenburg, E. Caldeweyher
   M. Checinski, S. Dohm, S. Ehlert, S. Ehrlich, I. Gerasimov, C. Hölzer
   A. Katbashev, J. Kohn, J. Koopman, C. Lavigne, S. Lehtola, F. März, M. Müller,
   F. Musil, H. Neugebauer, J. Pisarek, C. Plett, P. Pracht, F. Pultar,
   J. Seibert, P. Shushkov, S. Spicher, M. Stahn, M. Steiner, T. Strunk,
   J. Stückrath, T. Rose, and J. Unsleber
   
 * started run on 2026/03/16 at 14:17:27.288     
   ID    Z sym.   atoms
    1    6 C      1
    2    1 H      2-4
    3   17 Cl     5
    4   53 I      6

           -------------------------------------------------
          |                Calculation Setup                |
           -------------------------------------------------

          program call               : /software/orca-6.1.0-el8-x86_64/bin/otool_xtb reactant_optfreq_XTB.xyz --grad -c -1 -u 0 -P 8 --namespace reactant_optfreq --input reactant_optfreq_XTB.input.tmp --acc 0.200000
          hostname                   : midway3-login4.rcc.local
          calculation namespace      : reactant_optfreq
          coordinate file            : reactant_optfreq_XTB.xyz
          omp threads                :                     8


molecular fragmentation (1/2 indicates fragments):
111121
# atoms in fragment 1/2:     5     1
 fragment masses (1/2) :      141.94       35.45
CMA distance (Bohr)    :   8.914
constraining FC (au)   :  0.0500

           -------------------------------------------------
          |                 G F N 2 - x T B                 |
           -------------------------------------------------

        Reference                      10.1021/acs.jctc.8b01176
      * Hamiltonian:
        H0-scaling (s, p, d)           1.850000    2.230000    2.230000
        zeta-weighting                 0.500000
      * Dispersion:
        s8                             2.700000
        a1                             0.520000
        a2                             5.000000
        s9                             5.000000
      * Repulsion:
        kExp                           1.500000    1.000000
        rExp                           1.000000
      * Coulomb:
        alpha                          2.000000
        third order                    shell-resolved
        anisotropic                    true
        a3                             3.000000
        a5                             4.000000
        cn-shift                       1.200000
        cn-exp                         4.000000
        max-rad                        5.000000


          ...................................................
          :                      SETUP                      :
          :.................................................:
          :  # basis functions                  27          :
          :  # atomic orbitals                  25          :
          :  # shells                           11          :
          :  # electrons                        22          :
          :  max. iterations                   250          :
          :  Hamiltonian                  GFN2-xTB          :
          :  restarted?                      false          :
          :  GBSA solvation                  false          :
          :  PC potential                    false          :
          :  electronic temp.          300.0000000     K    :
          :  accuracy                    0.2000000          :
          :  -> integral cutoff          0.3198970E+02      :
          :  -> integral neglect         0.2000000E-08      :
          :  -> SCF convergence          0.2000000E-06 Eh   :
          :  -> wf. convergence          0.2000000E-04 e    :
          :  Broyden damping             0.4000000          :
          :  net charge                         -1          :
          :  unpaired electrons                  0          :
          ...................................................

 iter      E             dE          RMSdq      gap      omega  full diag
   1    -12.3098749 -0.123099E+02  0.135E+01    5.11       0.0  T
   2    -12.3347068 -0.248319E-01  0.526E+00    4.80       1.0  T
   3    -12.3404525 -0.574573E-02  0.206E+00    3.13       1.0  T
   4    -12.3407937 -0.341224E-03  0.155E+00    2.94       1.0  T
   5    -12.3412670 -0.473244E-03  0.510E-01    2.75       1.0  T
   6    -12.3413965 -0.129543E-03  0.336E-01    2.75       1.0  T
   7    -12.3414181 -0.215697E-04  0.386E-02    2.84       1.1  T
   8    -12.3414206 -0.247971E-05  0.229E-02    2.81       1.8  T
   9    -12.3414211 -0.554410E-06  0.160E-02    2.81       2.6  T
  10    -12.3414216 -0.478724E-06  0.808E-03    2.81       5.1  T
  11    -12.3414216 -0.648000E-08  0.766E-04    2.82      53.3  T
  12    -12.3414216 -0.105541E-08  0.382E-04    2.82     107.0  T
  13    -12.3414216 -0.948024E-10  0.545E-06    2.82    7485.1  T
  14    -12.3414216 -0.337508E-13  0.276E-06    2.82   14795.7  T

   *** convergence criteria satisfied after 14 iterations ***

         #    Occupation            Energy/Eh            Energy/eV
      -------------------------------------------------------------
         1        2.0000           -0.8029472             -21.8493
       ...           ...                  ...                  ...
         5        2.0000           -0.3614386              -9.8352
         6        2.0000           -0.3456458              -9.4055
         7        2.0000           -0.2838985              -7.7253
         8        2.0000           -0.2838920              -7.7251
         9        2.0000           -0.2011700              -5.4741
        10        2.0000           -0.2002599              -5.4493
        11        2.0000           -0.2002596              -5.4493 (HOMO)
        12                         -0.0967769              -2.6334 (LUMO)
        13                          0.1567183               4.2645
        14                          0.1567410               4.2651
        15                          0.1857627               5.0549
        16                          0.1857737               5.0552
       ...                                ...                  ...
        25                          0.4826490              13.1335
      -------------------------------------------------------------
                  HL-Gap            0.1034827 Eh            2.8159 eV
             Fermi-level           -0.1485183 Eh           -4.0414 eV

 SCC (total)                   0 d,  0 h,  0 min,  0.211 sec
 SCC setup                      ...        0 min,  0.000 sec (  0.138%)
 Dispersion                     ...        0 min,  0.000 sec (  0.036%)
 classical contributions        ...        0 min,  0.000 sec (  0.021%)
 integral evaluation            ...        0 min,  0.208 sec ( 98.391%)
 iterations                     ...        0 min,  0.002 sec (  1.003%)
 molecular gradient             ...        0 min,  0.001 sec (  0.327%)
 printout                       ...        0 min,  0.000 sec (  0.071%)

         :::::::::::::::::::::::::::::::::::::::::::::::::::::
         ::                     SUMMARY                     ::
         :::::::::::::::::::::::::::::::::::::::::::::::::::::
         :: total energy             -12.280328343171 Eh    ::
         :: gradient norm              0.001731456731 Eh/a0 ::
         :: HOMO-LUMO gap              2.815907620488 eV    ::
         ::.................................................::
         :: SCC energy               -12.341422460410 Eh    ::
         :: -> isotropic ES            0.145464255691 Eh    ::
         :: -> anisotropic ES         -0.008885551715 Eh    ::
         :: -> anisotropic XC         -0.003496235946 Eh    ::
         :: -> dispersion             -0.003185012368 Eh    ::
         :: repulsion energy           0.061094117239 Eh    ::
         :: add. restraining           0.000000000000 Eh    ::
         :: total charge              -1.000000000000 e     ::
         :::::::::::::::::::::::::::::::::::::::::::::::::::::


Property printout bound to 'properties.out'

           -------------------------------------------------
          | TOTAL ENERGY              -12.280328343171 Eh   |
          | GRADIENT NORM               0.001731456731 Eh/α |
          | HOMO-LUMO GAP               2.815907620488 eV   |
           -------------------------------------------------

------------------------------------------------------------------------
 * finished run on 2026/03/16 at 14:17:27.575     
------------------------------------------------------------------------
 total:
 * wall-time:     0 d,  0 h,  0 min,  0.286 sec
 *  cpu-time:     0 d,  0 h,  0 min,  0.560 sec
 * ratio c/w:     1.957 speedup
 SCF:
 * wall-time:     0 d,  0 h,  0 min,  0.211 sec
 *  cpu-time:     0 d,  0 h,  0 min,  0.435 sec
 * ratio c/w:     2.058 speedup


-------------------------   --------------------
FINAL SINGLE POINT ENERGY       -12.280328343170
-------------------------   --------------------


-------------
DIPOLE MOMENT
-------------
                                X             Y             Z
Total Dipole Moment    :      0.00000      -0.00000      -1.93800
                        -----------------------------------------
Magnitude (a.u.)       :      1.93800
Magnitude (Debye)      :      4.92600


------------------
CARTESIAN GRADIENT
------------------

   1   C   :    0.000031914   -0.000453929    0.000376360
   2   H   :   -0.000001159    0.000292214    0.000405404
   3   H   :   -0.000115762    0.000083611    0.000271450
   4   H   :    0.000085759    0.000067628    0.000281832
   5   Cl  :   -0.000000109    0.000001608   -0.001480786
   6   I   :   -0.000000643    0.000008868    0.000145739

Difference to translation invariance:
           :    0.0000000000    0.0000000000    0.0000000000

Difference to rotation invariance:
           :   -0.0000000217   -0.0000000006    0.0000000000

Norm of the Cartesian gradient     ...    0.0017314567
RMS gradient                       ...    0.0004081083
MAX gradient                       ...    0.0014807857
------------------------------------------------------------------------------
                         ORCA GEOMETRY RELAXATION STEP
------------------------------------------------------------------------------

Reading the OPT-File                    .... done
Getting information on internals        .... done
Copying old internal coords+grads       .... done
Making the new internal coordinates     .... (2022 redundants) done
Validating the new internal coordinates .... (2022 redundants) done
Calculating the B-matrix                .... done
Calculating the G,G- and P matrices     .... done
Transforming gradient to internals      .... done
Projecting the internal gradient        .... done
Number of atoms                         ....   6
Number of internal coordinates          ....  17
Current Energy                          ....   -12.280328343 Eh
Current gradient norm                   ....     0.001731457 Eh/bohr
Maximum allowed component of the step   ....  0.300
Current trust radius                    ....  0.300
Evaluating the initial hessian          ....  (Almloef) done
Projecting the Hessian                  .... done
Forming the augmented Hessian           .... done
Diagonalizing the augmented Hessian     .... done
Last element of RFO vector              ....  0.996964130
Lowest eigenvalues of augmented Hessian:
 -0.000062143  0.010061339  0.046208746  0.046242285  0.118553934
Length of the computed step             ....  0.078099303
The final length of the internal step   ....  0.078099303
Converting the step to Cartesian space:
 Initial RMS(Int)=    0.0189418632
Transforming coordinates:
 Iter   0:  RMS(Cart)=    0.0090158962 RMS(Int)=    0.0189513969
done
Storing new coordinates                 .... done

                                .--------------------.
          ----------------------|Geometry convergence|-------------------------
          Item                value                   Tolerance       Converged
          ---------------------------------------------------------------------
          RMS gradient        0.0002235473            0.0001000000      NO
          MAX gradient        0.0004898006            0.0003000000      NO
          RMS step            0.0189418632            0.0020000000      NO
          MAX step            0.0418028748            0.0040000000      NO
          -------------------------------------------------------------------------
          ........................................................
          Max(Bonds)      0.0221      Max(Angles)    0.02
          Max(Dihed)        0.00      Max(Improp)    0.00
          ---------------------------------------------------------------------

The optimization has not yet converged - more geometry cycles are needed


    ---------------------------------------------------------------------------
                         Redundant Internal Coordinates
                            (Angstroem and degrees)

        Definition                    Value    dE/dq     Step     New-Value
    ----------------------------------------------------------------------------
     1. B(H   1,C   0)                1.0784  0.000433 -0.0006    1.0778   
     2. B(H   2,C   0)                1.0777 -0.000022  0.0000    1.0777   
     3. B(H   3,C   0)                1.0778  0.000014 -0.0000    1.0777   
     4. B(Cl  4,H   2)                2.6567 -0.000360  0.0201    2.6769   
     5. B(Cl  4,H   1)                2.6567 -0.000356  0.0201    2.6769   
     6. B(Cl  4,H   3)                2.6567 -0.000359  0.0201    2.6769   
     7. B(Cl  4,C   0)                2.7818 -0.000490  0.0221    2.8039   
     8. B(I   5,C   0)                2.1724 -0.000146  0.0007    2.1731   
     9. A(H   1,C   0,H   3)          110.99  0.000025   -0.01    110.98   
    10. A(H   2,C   0,H   3)          111.03  0.000061   -0.02    111.01   
    11. A(H   1,C   0,I   5)          107.88 -0.000065    0.02    107.89   
    12. A(H   2,C   0,I   5)          107.90 -0.000027    0.01    107.91   
    13. A(H   3,C   0,I   5)          107.89 -0.000030    0.01    107.91   
    14. A(H   1,C   0,Cl  4)           72.11  0.000029   -0.01     72.10   
    15. A(H   2,C   0,Cl  4)           72.11  0.000046   -0.01     72.10   
    16. A(H   3,C   0,Cl  4)           72.11  0.000045   -0.01     72.10   
    17. A(H   1,C   0,H   2)          111.00  0.000028   -0.01    110.99   
    ----------------------------------------------------------------------------

Geometry step timings:
Preparation and reading OPT file:      0.000 s ( 0.061 %)
Internal coordinates            :      0.000 s ( 0.096 %)
B/P matrices and projection     :      0.000 s ( 0.237 %)
Hessian update/contruction      :      0.065 s (91.762 %)
Making the step                 :      0.000 s ( 0.274 %)
Converting the step to Cartesian:      0.000 s ( 0.116 %)
Storing new data                :      0.000 s ( 0.199 %)
Checking convergence            :      0.000 s ( 0.153 %)
Final printing                  :      0.005 s ( 7.097 %)
Total time                      :      0.071 s

Time for energy+gradient        :      0.298 s
Time for complete geometry iter :      0.372 s

         *************************************************************
         *                GEOMETRY OPTIMIZATION CYCLE   2            *
         *************************************************************
---------------------------------
CARTESIAN COORDINATES (ANGSTROEM)
---------------------------------
  C     0.000010   -0.000163   -0.281023
  H    -0.000007    1.025499    0.050253
  H     0.888254   -0.512761    0.050289
  H    -0.888252   -0.512751    0.050285
  Cl    0.000001   -0.000001    2.522905
  I    -0.000005    0.000044   -2.454103

----------------------------
CARTESIAN COORDINATES (A.U.)
----------------------------
  NO LB    ZA    FRAG    MASS        X           Y           Z
   0 C   6.0000    0    12.011    0.000018   -0.000308   -0.531057
   1 H   1.0000    0     1.008   -0.000013    1.937912    0.094965
   2 H   1.0000    0     1.008    1.678557   -0.968978    0.095032
   3 H   1.0000    0     1.008   -1.678553   -0.968960    0.095025
   4 Cl 17.0000    0    35.453    0.000002   -0.000002    4.767600
   5 I  53.0000    0   126.900   -0.000009    0.000082   -4.637583

      -----------------------------------------------------------      
     |                   =====================                   |     
     |                           x T B                           |     
     |                   =====================                   |     
     |                         S. Grimme                         |     
     |          Mulliken Center for Theoretical Chemistry        |     
     |                    University of Bonn                     |     
      -----------------------------------------------------------      

   * xtb version 6.7.1 (edcfbbe) compiled by 'albert@albert-system' on 2024-07-22

   xtb is free software: you can redistribute it and/or modify it under
   the terms of the GNU Lesser General Public License as published by
   the Free Software Foundation, either version 3 of the License, or
   (at your option) any later version.
   
   xtb is distributed in the hope that it will be useful,
   but WITHOUT ANY WARRANTY; without even the implied warranty of
   MERCHANTABILITY or FITNESS FOR A PARTICULAR PURPOSE.  See the
   GNU Lesser General Public License for more details.
   
   Cite this work as:
   * C. Bannwarth, E. Caldeweyher, S. Ehlert, A. Hansen, P. Pracht,
     J. Seibert, S. Spicher, S. Grimme, WIREs Comput. Mol. Sci., 2020, 11,
     e01493. DOI: 10.1002/wcms.1493
   
   for GFN2-xTB:
   * C. Bannwarth, S. Ehlert and S. Grimme., J. Chem. Theory Comput., 2019,
     15, 1652-1671. DOI: 10.1021/acs.jctc.8b01176
   for GFN1-xTB:
   * S. Grimme, C. Bannwarth, P. Shushkov, J. Chem. Theory Comput., 2017,
     13, 1989-2009. DOI: 10.1021/acs.jctc.7b00118
   for GFN0-xTB:
   * P. Pracht, E. Caldeweyher, S. Ehlert, S. Grimme, ChemRxiv, 2019, preprint.
     DOI: 10.26434/chemrxiv.8326202.v1
   for GFN-FF:
   * S. Spicher and S. Grimme, Angew. Chem. Int. Ed., 2020, 59, 15665-15673.
     DOI: 10.1002/anie.202004239
   
   for ALPB and GBSA implicit solvation:
   * S. Ehlert, M. Stahn, S. Spicher, S. Grimme, J. Chem. Theory Comput.,
     2021, 17, 4250-4261. DOI: 10.1021/acs.jctc.1c00471
   
   for ddCOSMO and CPCM-X implicit solvation:
   * M. Stahn, S. Ehlert, S. Grimme, J. Phys. Chem. A,
     2023, XX, XXXX-XXXX. DOI: 10.1021/acs.jpca.3c04382
   
   for DFT-D4:
   * E. Caldeweyher, C. Bannwarth and S. Grimme, J. Chem. Phys., 2017,
     147, 034112. DOI: 10.1063/1.4993215
   * E. Caldeweyher, S. Ehlert, A. Hansen, H. Neugebauer, S. Spicher,
     C. Bannwarth and S. Grimme, J. Chem. Phys., 2019, 150, 154122.
     DOI: 10.1063/1.5090222
   * E. Caldeweyher, J.-M. Mewes, S. Ehlert and S. Grimme, Phys. Chem. Chem. Phys.
     2020, 22, 8499-8512. DOI: 10.1039/D0CP00502A
   
   for sTDA-xTB:
   * S. Grimme and C. Bannwarth, J. Chem. Phys., 2016, 145, 054103.
     DOI: 10.1063/1.4959605
   
   in the mass-spec context:
   * V. Asgeirsson, C. Bauer and S. Grimme, Chem. Sci., 2017, 8, 4879.
     DOI: 10.1039/c7sc00601b
   * J. Koopman and S. Grimme, ACS Omega 2019, 4, 12, 15120-15133.
     DOI: 10.1021/acsomega.9b02011
   
   for metadynamics refer to:
   * S. Grimme, J. Chem. Theory Comput., 2019, 155, 2847-2862
     DOI: 10.1021/acs.jctc.9b00143
   
   for SPH calculations refer to:
   * S. Spicher and S. Grimme, J. Chem. Theory Comput., 2021, 17, 1701-1714
     DOI: 10.1021/acs.jctc.0c01306
   
   for ONIOM refer to:
   * C. Plett, A. Katbashev, S. Ehlert, S. Grimme, M. Bursch,
     Phys. Chem. Chem. Phys., 2023, 25, 17860-17868. DOI: 10.1039/D3CP02178E
   
   for DIPRO refer to:
   * J. Kohn, N. Gildemeister, S. Grimme, D. Fazzi, A. Hansen,
     J. Chem. Phys., 2023, just accepted.
   
   for PTB refer to:
   * S. Grimme, M. Mueller, A. Hansen, J. Chem. Phys., 2023, 158, 124111.
     DOI: 10.1063/5.0137838
   
   with help from (in alphabetical order)
   P. Atkinson, C. Bannwarth, F. Bohle, G. Brandenburg, E. Caldeweyher
   M. Checinski, S. Dohm, S. Ehlert, S. Ehrlich, I. Gerasimov, C. Hölzer
   A. Katbashev, J. Kohn, J. Koopman, C. Lavigne, S. Lehtola, F. März, M. Müller,
   F. Musil, H. Neugebauer, J. Pisarek, C. Plett, P. Pracht, F. Pultar,
   J. Seibert, P. Shushkov, S. Spicher, M. Stahn, M. Steiner, T. Strunk,
   J. Stückrath, T. Rose, and J. Unsleber
   
 * started run on 2026/03/16 at 14:17:27.660     
   ID    Z sym.   atoms
    1    6 C      1
    2    1 H      2-4
    3   17 Cl     5
    4   53 I      6

           -------------------------------------------------
          |                Calculation Setup                |
           -------------------------------------------------

          program call               : /software/orca-6.1.0-el8-x86_64/bin/otool_xtb reactant_optfreq_XTB.xyz --grad -c -1 -u 0 -P 8 --namespace reactant_optfreq --input reactant_optfreq_XTB.input.tmp --acc 0.200000
          hostname                   : midway3-login4.rcc.local
          calculation namespace      : reactant_optfreq
          coordinate file            : reactant_optfreq_XTB.xyz
          omp threads                :                     8


molecular fragmentation (1/2 indicates fragments):
111121
# atoms in fragment 1/2:     5     1
 fragment masses (1/2) :      141.94       35.45
CMA distance (Bohr)    :   8.957
constraining FC (au)   :  0.0500

           -------------------------------------------------
          |                 G F N 2 - x T B                 |
           -------------------------------------------------

        Reference                      10.1021/acs.jctc.8b01176
      * Hamiltonian:
        H0-scaling (s, p, d)           1.850000    2.230000    2.230000
        zeta-weighting                 0.500000
      * Dispersion:
        s8                             2.700000
        a1                             0.520000
        a2                             5.000000
        s9                             5.000000
      * Repulsion:
        kExp                           1.500000    1.000000
        rExp                           1.000000
      * Coulomb:
        alpha                          2.000000
        third order                    shell-resolved
        anisotropic                    true
        a3                             3.000000
        a5                             4.000000
        cn-shift                       1.200000
        cn-exp                         4.000000
        max-rad                        5.000000

q/qsh data taken from xtbrestart
CAMM data taken from xtbrestart

          ...................................................
          :                      SETUP                      :
          :.................................................:
          :  # basis functions                  27          :
          :  # atomic orbitals                  25          :
          :  # shells                           11          :
          :  # electrons                        22          :
          :  max. iterations                   250          :
          :  Hamiltonian                  GFN2-xTB          :
          :  restarted?                       true          :
          :  GBSA solvation                  false          :
          :  PC potential                    false          :
          :  electronic temp.          300.0000000     K    :
          :  accuracy                    0.2000000          :
          :  -> integral cutoff          0.3198970E+02      :
          :  -> integral neglect         0.2000000E-08      :
          :  -> SCF convergence          0.2000000E-06 Eh   :
          :  -> wf. convergence          0.2000000E-04 e    :
          :  Broyden damping             0.4000000          :
          :  net charge                         -1          :
          :  unpaired electrons                  0          :
          ...................................................

 iter      E             dE          RMSdq      gap      omega  full diag
   1    -12.3415252 -0.123415E+02  0.601E-02    2.78       0.0  T
   2    -12.3415281 -0.287458E-05  0.439E-02    2.77       1.0  T
   3    -12.3415287 -0.605989E-06  0.240E-02    2.77       1.7  T
   4    -12.3415288 -0.482171E-07  0.129E-02    2.76       3.2  T
   5    -12.3415288 -0.715918E-07  0.440E-03    2.76       9.3  T
   6    -12.3415288 -0.120041E-07  0.126E-03    2.76      32.4  T
   7    -12.3415289 -0.327443E-09  0.543E-04    2.76      75.2  T
   8    -12.3415289 -0.126363E-09  0.165E-04    2.76     246.7  T
   9    -12.3415289 -0.458460E-10  0.467E-05    2.76     875.0  T

   *** convergence criteria satisfied after 9 iterations ***

         #    Occupation            Energy/Eh            Energy/eV
      -------------------------------------------------------------
         1        2.0000           -0.8021261             -21.8270
       ...           ...                  ...                  ...
         5        2.0000           -0.3623544              -9.8602
         6        2.0000           -0.3465909              -9.4312
         7        2.0000           -0.2848359              -7.7508
         8        2.0000           -0.2848317              -7.7507
         9        2.0000           -0.2007341              -5.4623
        10        2.0000           -0.1997302              -5.4349
        11        2.0000           -0.1997300              -5.4349 (HOMO)
        12                         -0.0982352              -2.6731 (LUMO)
        13                          0.1555757               4.2334
        14                          0.1555847               4.2337
        15                          0.1845244               5.0212
        16                          0.1845296               5.0213
       ...                                ...                  ...
        25                          0.4808759              13.0853
      -------------------------------------------------------------
                  HL-Gap            0.1014948 Eh            2.7618 eV
             Fermi-level           -0.1489826 Eh           -4.0540 eV

 SCC (total)                   0 d,  0 h,  0 min,  0.323 sec
 SCC setup                      ...        0 min,  0.000 sec (  0.147%)
 Dispersion                     ...        0 min,  0.000 sec (  0.030%)
 classical contributions        ...        0 min,  0.000 sec (  0.022%)
 integral evaluation            ...        0 min,  0.319 sec ( 98.882%)
 iterations                     ...        0 min,  0.002 sec (  0.578%)
 molecular gradient             ...        0 min,  0.001 sec (  0.274%)
 printout                       ...        0 min,  0.000 sec (  0.058%)

         :::::::::::::::::::::::::::::::::::::::::::::::::::::
         ::                     SUMMARY                     ::
         :::::::::::::::::::::::::::::::::::::::::::::::::::::
         :: total energy             -12.280374201944 Eh    ::
         :: gradient norm              0.001321972848 Eh/a0 ::
         :: HOMO-LUMO gap              2.761815009535 eV    ::
         ::.................................................::
         :: SCC energy               -12.341529722986 Eh    ::
         :: -> isotropic ES            0.145893662295 Eh    ::
         :: -> anisotropic ES         -0.008787350752 Eh    ::
         :: -> anisotropic XC         -0.003425626819 Eh    ::
         :: -> dispersion             -0.003171596295 Eh    ::
         :: repulsion energy           0.061155521042 Eh    ::
         :: add. restraining           0.000000000000 Eh    ::
         :: total charge              -1.000000000000 e     ::
         :::::::::::::::::::::::::::::::::::::::::::::::::::::


Property printout bound to 'properties.out'

           -------------------------------------------------
          | TOTAL ENERGY              -12.280374201944 Eh   |
          | GRADIENT NORM               0.001321972848 Eh/α |
          | HOMO-LUMO GAP               2.761815009535 eV   |
           -------------------------------------------------

------------------------------------------------------------------------
 * finished run on 2026/03/16 at 14:17:28.080     
------------------------------------------------------------------------
 total:
 * wall-time:     0 d,  0 h,  0 min,  0.419 sec
 *  cpu-time:     0 d,  0 h,  0 min,  0.443 sec
 * ratio c/w:     1.059 speedup
 SCF:
 * wall-time:     0 d,  0 h,  0 min,  0.323 sec
 *  cpu-time:     0 d,  0 h,  0 min,  0.373 sec
 * ratio c/w:     1.154 speedup


-------------------------   --------------------
FINAL SINGLE POINT ENERGY       -12.280374201940
-------------------------   --------------------


-------------
DIPOLE MOMENT
-------------
                                X             Y             Z
Total Dipole Moment    :      0.00000      -0.00000      -1.99800
                        -----------------------------------------
Magnitude (a.u.)       :      1.99800
Magnitude (Debye)      :      5.07851


------------------
CARTESIAN GRADIENT
------------------

   1   C   :    0.000006501   -0.000093183    0.000842413
   2   H   :   -0.000001772   -0.000130126    0.000165586
   3   H   :   -0.000144348    0.000108184    0.000150677
   4   H   :    0.000140140    0.000107801    0.000151778
   5   Cl  :   -0.000000024    0.000000407   -0.000746435
   6   I   :   -0.000000497    0.000006917   -0.000564020

Difference to translation invariance:
           :    0.0000000000    0.0000000000   -0.0000000000

Difference to rotation invariance:
           :    0.0000000007    0.0000000008    0.0000000000

Norm of the Cartesian gradient     ...    0.0013219728
RMS gradient                       ...    0.0003115920
MAX gradient                       ...    0.0008424130
------------------------------------------------------------------------------
                         ORCA GEOMETRY RELAXATION STEP
------------------------------------------------------------------------------

Reading the OPT-File                    .... done
Getting information on internals        .... done
Copying old internal coords+grads       .... done
Making the new internal coordinates     .... (2022 redundants) done
Validating the new internal coordinates .... (2022 redundants) done
Calculating the B-matrix                .... done
Calculating the G,G- and P matrices     .... done
Transforming gradient to internals      .... done
Projecting the internal gradient        .... done
Number of atoms                         ....   6
Number of internal coordinates          ....  17
Current Energy                          ....   -12.280374202 Eh
Current gradient norm                   ....     0.001321973 Eh/bohr
Maximum allowed component of the step   ....  0.300
Current trust radius                    ....  0.300
Updating the Hessian (BFGS)             .... done
Forming the augmented Hessian           .... done
Diagonalizing the augmented Hessian     .... done
Last element of RFO vector              ....  0.995662665
Lowest eigenvalues of augmented Hessian:
 -0.000041960  0.004554529  0.046208750  0.046242285  0.133679245
Length of the computed step             ....  0.093442149
The final length of the internal step   ....  0.093442149
Converting the step to Cartesian space:
 Initial RMS(Int)=    0.0226630500
Transforming coordinates:
 Iter   0:  RMS(Cart)=    0.0103744938 RMS(Int)=    0.0226749605
done
Storing new coordinates                 .... done
The predicted energy change is          ....    -0.000021163
Previously predicted energy change      ....    -0.000031261
Actually observed energy change         ....    -0.000045859
Ratio of predicted to observed change   ....     1.466959060
New trust radius                        ....     0.300000000

                                .--------------------.
          ----------------------|Geometry convergence|-------------------------
          Item                value                   Tolerance       Converged
          ---------------------------------------------------------------------
          Energy change      -0.0000458588            0.0000050000      NO
          RMS gradient        0.0001720001            0.0001000000      NO
          MAX gradient        0.0005640205            0.0003000000      NO
          RMS step            0.0226630500            0.0020000000      NO
          MAX step            0.0493423125            0.0040000000      NO
          -------------------------------------------------------------------------
          ........................................................
          Max(Bonds)      0.0261      Max(Angles)    0.02
          Max(Dihed)        0.00      Max(Improp)    0.00
          ---------------------------------------------------------------------

The optimization has not yet converged - more geometry cycles are needed


    ---------------------------------------------------------------------------
                         Redundant Internal Coordinates
                            (Angstroem and degrees)

        Definition                    Value    dE/dq     Step     New-Value
    ----------------------------------------------------------------------------
     1. B(H   1,C   0)                1.0778 -0.000057  0.0000    1.0779   
     2. B(H   2,C   0)                1.0777 -0.000108  0.0003    1.0780   
     3. B(H   3,C   0)                1.0777 -0.000104  0.0003    1.0780   
     4. B(Cl  4,H   2)                2.6769 -0.000197  0.0241    2.7010   
     5. B(Cl  4,H   1)                2.6769 -0.000197  0.0241    2.7010   
     6. B(Cl  4,H   3)                2.6769 -0.000197  0.0241    2.7010   
     7. B(Cl  4,C   0)                2.8039 -0.000202  0.0261    2.8300   
     8. B(I   5,C   0)                2.1731  0.000564 -0.0047    2.1684   
     9. A(H   1,C   0,H   3)          110.98 -0.000021    0.01    110.99   
    10. A(H   2,C   0,H   3)          111.01  0.000033   -0.02    111.00   
    11. A(H   1,C   0,I   5)          107.89 -0.000017    0.01    107.90   
    12. A(H   2,C   0,I   5)          107.91  0.000012   -0.00    107.90   
    13. A(H   3,C   0,I   5)          107.91  0.000010   -0.00    107.90   
    14. A(H   1,C   0,Cl  4)           72.10 -0.000003   -0.00     72.10   
    15. A(H   2,C   0,Cl  4)           72.10 -0.000001   -0.00     72.10   
    16. A(H   3,C   0,Cl  4)           72.10 -0.000001   -0.00     72.10   
    17. A(H   1,C   0,H   2)          110.99 -0.000017    0.00    110.99   
    ----------------------------------------------------------------------------

Geometry step timings:
Preparation and reading OPT file:      0.000 s ( 3.540 %)
Internal coordinates            :      0.000 s ( 4.056 %)
B/P matrices and projection     :      0.000 s (12.684 %)
Hessian update/contruction      :      0.000 s (28.614 %)
Making the step                 :      0.000 s ( 8.702 %)
Converting the step to Cartesian:      0.000 s ( 3.245 %)
Storing new data                :      0.000 s ( 7.006 %)
Checking convergence            :      0.000 s ( 8.038 %)
Final printing                  :      0.000 s (24.115 %)
Total time                      :      0.001 s

Time for energy+gradient        :      0.430 s
Time for complete geometry iter :      0.433 s

         *************************************************************
         *                GEOMETRY OPTIMIZATION CYCLE   3            *
         *************************************************************
---------------------------------
CARTESIAN COORDINATES (ANGSTROEM)
---------------------------------
  C    -0.000002   -0.000003   -0.286207
  H    -0.000005    1.025648    0.045163
  H     0.888409   -0.512877    0.045206
  H    -0.888403   -0.512867    0.045202
  Cl    0.000003   -0.000030    2.543813
  I    -0.000001   -0.000004   -2.454571

----------------------------
CARTESIAN COORDINATES (A.U.)
----------------------------
  NO LB    ZA    FRAG    MASS        X           Y           Z
   0 C   6.0000    0    12.011   -0.000003   -0.000006   -0.540853
   1 H   1.0000    0     1.008   -0.000010    1.938193    0.085346
   2 H   1.0000    0     1.008    1.678850   -0.969198    0.085427
   3 H   1.0000    0     1.008   -1.678838   -0.969179    0.085419
   4 Cl 17.0000    0    35.453    0.000006   -0.000057    4.807110
   5 I  53.0000    0   126.900   -0.000002   -0.000007   -4.638467

      -----------------------------------------------------------      
     |                   =====================                   |     
     |                           x T B                           |     
     |                   =====================                   |     
     |                         S. Grimme                         |     
     |          Mulliken Center for Theoretical Chemistry        |     
     |                    University of Bonn                     |     
      -----------------------------------------------------------      

   * xtb version 6.7.1 (edcfbbe) compiled by 'albert@albert-system' on 2024-07-22

   xtb is free software: you can redistribute it and/or modify it under
   the terms of the GNU Lesser General Public License as published by
   the Free Software Foundation, either version 3 of the License, or
   (at your option) any later version.
   
   xtb is distributed in the hope that it will be useful,
   but WITHOUT ANY WARRANTY; without even the implied warranty of
   MERCHANTABILITY or FITNESS FOR A PARTICULAR PURPOSE.  See the
   GNU Lesser General Public License for more details.
   
   Cite this work as:
   * C. Bannwarth, E. Caldeweyher, S. Ehlert, A. Hansen, P. Pracht,
     J. Seibert, S. Spicher, S. Grimme, WIREs Comput. Mol. Sci., 2020, 11,
     e01493. DOI: 10.1002/wcms.1493
   
   for GFN2-xTB:
   * C. Bannwarth, S. Ehlert and S. Grimme., J. Chem. Theory Comput., 2019,
     15, 1652-1671. DOI: 10.1021/acs.jctc.8b01176
   for GFN1-xTB:
   * S. Grimme, C. Bannwarth, P. Shushkov, J. Chem. Theory Comput., 2017,
     13, 1989-2009. DOI: 10.1021/acs.jctc.7b00118
   for GFN0-xTB:
   * P. Pracht, E. Caldeweyher, S. Ehlert, S. Grimme, ChemRxiv, 2019, preprint.
     DOI: 10.26434/chemrxiv.8326202.v1
   for GFN-FF:
   * S. Spicher and S. Grimme, Angew. Chem. Int. Ed., 2020, 59, 15665-15673.
     DOI: 10.1002/anie.202004239
   
   for ALPB and GBSA implicit solvation:
   * S. Ehlert, M. Stahn, S. Spicher, S. Grimme, J. Chem. Theory Comput.,
     2021, 17, 4250-4261. DOI: 10.1021/acs.jctc.1c00471
   
   for ddCOSMO and CPCM-X implicit solvation:
   * M. Stahn, S. Ehlert, S. Grimme, J. Phys. Chem. A,
     2023, XX, XXXX-XXXX. DOI: 10.1021/acs.jpca.3c04382
   
   for DFT-D4:
   * E. Caldeweyher, C. Bannwarth and S. Grimme, J. Chem. Phys., 2017,
     147, 034112. DOI: 10.1063/1.4993215
   * E. Caldeweyher, S. Ehlert, A. Hansen, H. Neugebauer, S. Spicher,
     C. Bannwarth and S. Grimme, J. Chem. Phys., 2019, 150, 154122.
     DOI: 10.1063/1.5090222
   * E. Caldeweyher, J.-M. Mewes, S. Ehlert and S. Grimme, Phys. Chem. Chem. Phys.
     2020, 22, 8499-8512. DOI: 10.1039/D0CP00502A
   
   for sTDA-xTB:
   * S. Grimme and C. Bannwarth, J. Chem. Phys., 2016, 145, 054103.
     DOI: 10.1063/1.4959605
   
   in the mass-spec context:
   * V. Asgeirsson, C. Bauer and S. Grimme, Chem. Sci., 2017, 8, 4879.
     DOI: 10.1039/c7sc00601b
   * J. Koopman and S. Grimme, ACS Omega 2019, 4, 12, 15120-15133.
     DOI: 10.1021/acsomega.9b02011
   
   for metadynamics refer to:
   * S. Grimme, J. Chem. Theory Comput., 2019, 155, 2847-2862
     DOI: 10.1021/acs.jctc.9b00143
   
   for SPH calculations refer to:
   * S. Spicher and S. Grimme, J. Chem. Theory Comput., 2021, 17, 1701-1714
     DOI: 10.1021/acs.jctc.0c01306
   
   for ONIOM refer to:
   * C. Plett, A. Katbashev, S. Ehlert, S. Grimme, M. Bursch,
     Phys. Chem. Chem. Phys., 2023, 25, 17860-17868. DOI: 10.1039/D3CP02178E
   
   for DIPRO refer to:
   * J. Kohn, N. Gildemeister, S. Grimme, D. Fazzi, A. Hansen,
     J. Chem. Phys., 2023, just accepted.
   
   for PTB refer to:
   * S. Grimme, M. Mueller, A. Hansen, J. Chem. Phys., 2023, 158, 124111.
     DOI: 10.1063/5.0137838
   
   with help from (in alphabetical order)
   P. Atkinson, C. Bannwarth, F. Bohle, G. Brandenburg, E. Caldeweyher
   M. Checinski, S. Dohm, S. Ehlert, S. Ehrlich, I. Gerasimov, C. Hölzer
   A. Katbashev, J. Kohn, J. Koopman, C. Lavigne, S. Lehtola, F. März, M. Müller,
   F. Musil, H. Neugebauer, J. Pisarek, C. Plett, P. Pracht, F. Pultar,
   J. Seibert, P. Shushkov, S. Spicher, M. Stahn, M. Steiner, T. Strunk,
   J. Stückrath, T. Rose, and J. Unsleber
   
 * started run on 2026/03/16 at 14:17:28.151     
   ID    Z sym.   atoms
    1    6 C      1
    2    1 H      2-4
    3   17 Cl     5
    4   53 I      6

           -------------------------------------------------
          |                Calculation Setup                |
           -------------------------------------------------

          program call               : /software/orca-6.1.0-el8-x86_64/bin/otool_xtb reactant_optfreq_XTB.xyz --grad -c -1 -u 0 -P 8 --namespace reactant_optfreq --input reactant_optfreq_XTB.input.tmp --acc 0.200000
          hostname                   : midway3-login4.rcc.local
          calculation namespace      : reactant_optfreq
          coordinate file            : reactant_optfreq_XTB.xyz
          omp threads                :                     8


molecular fragmentation (1/2 indicates fragments):
111121
# atoms in fragment 1/2:     5     1
 fragment masses (1/2) :      141.94       35.45
CMA distance (Bohr)    :   8.998
constraining FC (au)   :  0.0500

           -------------------------------------------------
          |                 G F N 2 - x T B                 |
           -------------------------------------------------

        Reference                      10.1021/acs.jctc.8b01176
      * Hamiltonian:
        H0-scaling (s, p, d)           1.850000    2.230000    2.230000
        zeta-weighting                 0.500000
      * Dispersion:
        s8                             2.700000
        a1                             0.520000
        a2                             5.000000
        s9                             5.000000
      * Repulsion:
        kExp                           1.500000    1.000000
        rExp                           1.000000
      * Coulomb:
        alpha                          2.000000
        third order                    shell-resolved
        anisotropic                    true
        a3                             3.000000
        a5                             4.000000
        cn-shift                       1.200000
        cn-exp                         4.000000
        max-rad                        5.000000

q/qsh data taken from xtbrestart
CAMM data taken from xtbrestart

          ...................................................
          :                      SETUP                      :
          :.................................................:
          :  # basis functions                  27          :
          :  # atomic orbitals                  25          :
          :  # shells                           11          :
          :  # electrons                        22          :
          :  max. iterations                   250          :
          :  Hamiltonian                  GFN2-xTB          :
          :  restarted?                       true          :
          :  GBSA solvation                  false          :
          :  PC potential                    false          :
          :  electronic temp.          300.0000000     K    :
          :  accuracy                    0.2000000          :
          :  -> integral cutoff          0.3198970E+02      :
          :  -> integral neglect         0.2000000E-08      :
          :  -> SCF convergence          0.2000000E-06 Eh   :
          :  -> wf. convergence          0.2000000E-04 e    :
          :  Broyden damping             0.4000000          :
          :  net charge                         -1          :
          :  unpaired electrons                  0          :
          ...................................................

 iter      E             dE          RMSdq      gap      omega  full diag
   1    -12.3416430 -0.123416E+02  0.112E-01    2.76       0.0  T
   2    -12.3416490 -0.608579E-05  0.428E-02    2.74       1.0  T
   3    -12.3416502 -0.115096E-05  0.193E-02    2.73       2.1  T
   4    -12.3416502 -0.375828E-07  0.167E-02    2.73       2.5  T
   5    -12.3416503 -0.919446E-07  0.360E-03    2.72      11.3  T
   6    -12.3416503 -0.955565E-08  0.128E-03    2.73      31.9  T
   7    -12.3416503 -0.714204E-09  0.854E-04    2.73      47.8  T
   8    -12.3416503 -0.192749E-09  0.105E-04    2.72     387.5  T
   9    -12.3416503 -0.529532E-11  0.350E-05    2.72    1165.2  T

   *** convergence criteria satisfied after 9 iterations ***

         #    Occupation            Energy/Eh            Energy/eV
      -------------------------------------------------------------
         1        2.0000           -0.8009847             -21.7959
       ...           ...                  ...                  ...
         5        2.0000           -0.3635818              -9.8936
         6        2.0000           -0.3480464              -9.4708
         7        2.0000           -0.2860918              -7.7850
         8        2.0000           -0.2860914              -7.7849
         9        2.0000           -0.2000589              -5.4439
        10        2.0000           -0.1989989              -5.4150
        11        2.0000           -0.1989989              -5.4150 (HOMO)
        12                         -0.0988579              -2.6901 (LUMO)
        13                          0.1536800               4.1818
        14                          0.1536819               4.1819
        15                          0.1830763               4.9818
        16                          0.1830776               4.9818
       ...                                ...                  ...
        25                          0.4831784              13.1480
      -------------------------------------------------------------
                  HL-Gap            0.1001410 Eh            2.7250 eV
             Fermi-level           -0.1489284 Eh           -4.0525 eV

 SCC (total)                   0 d,  0 h,  0 min,  0.270 sec
 SCC setup                      ...        0 min,  0.000 sec (  0.085%)
 Dispersion                     ...        0 min,  0.000 sec (  0.025%)
 classical contributions        ...        0 min,  0.000 sec (  0.018%)
 integral evaluation            ...        0 min,  0.194 sec ( 71.920%)
 iterations                     ...        0 min,  0.074 sec ( 27.573%)
 molecular gradient             ...        0 min,  0.001 sec (  0.307%)
 printout                       ...        0 min,  0.000 sec (  0.062%)

         :::::::::::::::::::::::::::::::::::::::::::::::::::::
         ::                     SUMMARY                     ::
         :::::::::::::::::::::::::::::::::::::::::::::::::::::
         :: total energy             -12.280396940661 Eh    ::
         :: gradient norm              0.000594996629 Eh/a0 ::
         :: HOMO-LUMO gap              2.724975637006 eV    ::
         ::.................................................::
         :: SCC energy               -12.341651232025 Eh    ::
         :: -> isotropic ES            0.146538916974 Eh    ::
         :: -> anisotropic ES         -0.008756116549 Eh    ::
         :: -> anisotropic XC         -0.003515778820 Eh    ::
         :: -> dispersion             -0.003159649907 Eh    ::
         :: repulsion energy           0.061254291365 Eh    ::
         :: add. restraining           0.000000000000 Eh    ::
         :: total charge              -1.000000000000 e     ::
         :::::::::::::::::::::::::::::::::::::::::::::::::::::


Property printout bound to 'properties.out'

           -------------------------------------------------
          | TOTAL ENERGY              -12.280396940661 Eh   |
          | GRADIENT NORM               0.000594996629 Eh/α |
          | HOMO-LUMO GAP               2.724975637006 eV   |
           -------------------------------------------------

------------------------------------------------------------------------
 * finished run on 2026/03/16 at 14:17:28.460     
------------------------------------------------------------------------
 total:
 * wall-time:     0 d,  0 h,  0 min,  0.307 sec
 *  cpu-time:     0 d,  0 h,  0 min,  0.581 sec
 * ratio c/w:     1.892 speedup
 SCF:
 * wall-time:     0 d,  0 h,  0 min,  0.270 sec
 *  cpu-time:     0 d,  0 h,  0 min,  0.522 sec
 * ratio c/w:     1.930 speedup


-------------------------   --------------------
FINAL SINGLE POINT ENERGY       -12.280396940660
-------------------------   --------------------


-------------
DIPOLE MOMENT
-------------
                                X             Y             Z
Total Dipole Moment    :     -0.00000       0.00000      -2.07100
                        -----------------------------------------
Magnitude (a.u.)       :      2.07100
Magnitude (Debye)      :      5.26406


------------------
CARTESIAN GRADIENT
------------------

   1   C   :   -0.000006381    0.000090745    0.000490545
   2   H   :   -0.000000771   -0.000125868   -0.000176987
   3   H   :   -0.000007606    0.000015021   -0.000144786
   4   H   :    0.000014759    0.000020041   -0.000147312
   5   Cl  :    0.000000026   -0.000000299   -0.000094831
   6   I   :   -0.000000026    0.000000361    0.000073370

Difference to translation invariance:
           :    0.0000000000    0.0000000000    0.0000000000

Difference to rotation invariance:
           :    0.0000000043    0.0000000014    0.0000000000

Norm of the Cartesian gradient     ...    0.0005949966
RMS gradient                       ...    0.0001402421
MAX gradient                       ...    0.0004905454
------------------------------------------------------------------------------
                         ORCA GEOMETRY RELAXATION STEP
------------------------------------------------------------------------------

Reading the OPT-File                    .... done
Getting information on internals        .... done
Copying old internal coords+grads       .... done
Making the new internal coordinates     .... (2022 redundants) done
Validating the new internal coordinates .... (2022 redundants) done
Calculating the B-matrix                .... done
Calculating the G,G- and P matrices     .... done
Transforming gradient to internals      .... done
Projecting the internal gradient        .... done
Number of atoms                         ....   6
Number of internal coordinates          ....  17
Current Energy                          ....   -12.280396941 Eh
Current gradient norm                   ....     0.000594997 Eh/bohr
Maximum allowed component of the step   ....  0.300
Current trust radius                    ....  0.300
Updating the Hessian (BFGS)             .... done
Forming the augmented Hessian           .... done
Diagonalizing the augmented Hessian     .... done
Last element of RFO vector              ....  0.999911687
Lowest eigenvalues of augmented Hessian:
 -0.000001222  0.003974832  0.046208748  0.046242285  0.136000290
Length of the computed step             ....  0.013290971
The final length of the internal step   ....  0.013290971
Converting the step to Cartesian space:
 Initial RMS(Int)=    0.0032235340
Transforming coordinates:
 Iter   0:  RMS(Cart)=    0.0015417142 RMS(Int)=    0.0032237508
done
Storing new coordinates                 .... done
The predicted energy change is          ....    -0.000000611
Previously predicted energy change      ....    -0.000021163
Actually observed energy change         ....    -0.000022739
Ratio of predicted to observed change   ....     1.074451320
New trust radius                        ....     0.450000000

                                .--------------------.
          ----------------------|Geometry convergence|-------------------------
          Item                value                   Tolerance       Converged
          ---------------------------------------------------------------------
          Energy change      -0.0000227387            0.0000050000      NO
          RMS gradient        0.0000850322            0.0001000000      YES
          MAX gradient        0.0001755786            0.0003000000      YES
          RMS step            0.0032235340            0.0020000000      NO
          MAX step            0.0077036720            0.0040000000      NO
          -------------------------------------------------------------------------
          ........................................................
          Max(Bonds)      0.0041      Max(Angles)    0.03
          Max(Dihed)        0.00      Max(Improp)    0.00
          ---------------------------------------------------------------------

The optimization has not yet converged - more geometry cycles are needed


    ---------------------------------------------------------------------------
                         Redundant Internal Coordinates
                            (Angstroem and degrees)

        Definition                    Value    dE/dq     Step     New-Value
    ----------------------------------------------------------------------------
     1. B(H   1,C   0)                1.0779 -0.000176  0.0003    1.0781   
     2. B(H   2,C   0)                1.0780 -0.000059  0.0001    1.0781   
     3. B(H   3,C   0)                1.0780 -0.000068  0.0001    1.0781   
     4. B(Cl  4,H   2)                2.7010  0.000019  0.0033    2.7043   
     5. B(Cl  4,H   1)                2.7010  0.000018  0.0033    2.7043   
     6. B(Cl  4,H   3)                2.7010  0.000019  0.0033    2.7043   
     7. B(Cl  4,C   0)                2.8300 -0.000147  0.0041    2.8341   
     8. B(I   5,C   0)                2.1684 -0.000073 -0.0001    2.1683   
     9. A(H   1,C   0,H   3)          110.99  0.000067   -0.02    110.97   
    10. A(H   2,C   0,H   3)          111.00  0.000090   -0.03    110.97   
    11. A(H   1,C   0,I   5)          107.90 -0.000081    0.03    107.93   
    12. A(H   2,C   0,I   5)          107.90 -0.000080    0.03    107.93   
    13. A(H   3,C   0,I   5)          107.90 -0.000080    0.03    107.93   
    14. A(H   1,C   0,Cl  4)           72.10  0.000083   -0.03     72.07   
    15. A(H   2,C   0,Cl  4)           72.10  0.000079   -0.03     72.07   
    16. A(H   3,C   0,Cl  4)           72.10  0.000079   -0.03     72.07   
    17. A(H   1,C   0,H   2)          110.99  0.000069   -0.02    110.97   
    ----------------------------------------------------------------------------

Geometry step timings:
Preparation and reading OPT file:      0.000 s ( 2.698 %)
Internal coordinates            :      0.000 s ( 4.007 %)
B/P matrices and projection     :      0.000 s (12.837 %)
Hessian update/contruction      :      0.000 s (27.555 %)
Making the step                 :      0.000 s ( 9.240 %)
Converting the step to Cartesian:      0.000 s ( 3.189 %)
Storing new data                :      0.000 s ( 7.032 %)
Checking convergence            :      0.000 s ( 8.095 %)
Final printing                  :      0.000 s (25.266 %)
Total time                      :      0.001 s

Time for energy+gradient        :      0.376 s
Time for complete geometry iter :      0.379 s

         *************************************************************
         *                GEOMETRY OPTIMIZATION CYCLE   4            *
         *************************************************************
---------------------------------
CARTESIAN COORDINATES (ANGSTROEM)
---------------------------------
  C    -0.000001   -0.000009   -0.287166
  H    -0.000001    1.025746    0.044778
  H     0.888346   -0.512900    0.044762
  H    -0.888347   -0.512900    0.044763
  Cl    0.000003   -0.000037    2.546929
  I     0.000001   -0.000033   -2.455461

----------------------------
CARTESIAN COORDINATES (A.U.)
----------------------------
  NO LB    ZA    FRAG    MASS        X           Y           Z
   0 C   6.0000    0    12.011   -0.000002   -0.000018   -0.542665
   1 H   1.0000    0     1.008   -0.000002    1.938380    0.084619
   2 H   1.0000    0     1.008    1.678730   -0.969241    0.084588
[...]
        25                          0.4832620              13.1502
      -------------------------------------------------------------
                  HL-Gap            0.0997598 Eh            2.7146 eV
             Fermi-level           -0.1489896 Eh           -4.0542 eV

 SCC (total)                   0 d,  0 h,  0 min,  0.265 sec
 SCC setup                      ...        0 min,  0.000 sec (  0.099%)
 Dispersion                     ...        0 min,  0.000 sec (  0.022%)
 classical contributions        ...        0 min,  0.000 sec (  0.023%)
 integral evaluation            ...        0 min,  0.179 sec ( 67.674%)
 iterations                     ...        0 min,  0.001 sec (  0.372%)
 molecular gradient             ...        0 min,  0.084 sec ( 31.725%)
 printout                       ...        0 min,  0.000 sec (  0.077%)

         :::::::::::::::::::::::::::::::::::::::::::::::::::::
         ::                     SUMMARY                     ::
         :::::::::::::::::::::::::::::::::::::::::::::::::::::
         :: total energy             -12.280397965309 Eh    ::
         :: gradient norm              0.000269032458 Eh/a0 ::
         :: HOMO-LUMO gap              2.714603403699 eV    ::
         ::.................................................::
         :: SCC energy               -12.341574793946 Eh    ::
         :: -> isotropic ES            0.146648841200 Eh    ::
         :: -> anisotropic ES         -0.008744188608 Eh    ::
         :: -> anisotropic XC         -0.003502890396 Eh    ::
         :: -> dispersion             -0.003156759200 Eh    ::
         :: repulsion energy           0.061176828638 Eh    ::
         :: add. restraining           0.000000000000 Eh    ::
         :: total charge              -1.000000000000 e     ::
         :::::::::::::::::::::::::::::::::::::::::::::::::::::

           ------------------------------------------------- 
          |                Numerical Hessian                |
           ------------------------------------------------- 
step length          :   0.00500
SCC accuracy         :   0.30000
Hessian scale factor :   1.00000
frozen atoms in %    :   0.00000    0
RMS gradient         :   0.00027
estimated CPU  time      0.00 min
estimated wall time      0.00 min

writing file <hessian>.

 projected vibrational frequencies (cm⁻¹)
eigval :       -0.00    -0.00     0.00     0.00     0.00     0.00
eigval :       88.95    89.02   112.60   483.65   914.11   914.16
eigval :     1269.08  1436.34  1436.45  3102.06  3122.84  3123.01

Property printout bound to 'properties.out'
Molecule has the following symmetry elements: (C3) 3*(sigma) 
It seems to be the C3v point group

           -------------------------------------------------
          | TOTAL ENERGY              -12.280397965309 Eh   |
          | TOTAL ENTHALPY            -12.237373225215 Eh   |
          | TOTAL FREE ENERGY         -12.273718982549 Eh   |
          | GRADIENT NORM               0.000269039136 Eh/α |
          | HOMO-LUMO GAP               2.714603655940 eV   |
           -------------------------------------------------

------------------------------------------------------------------------
 * finished run on 2026/03/16 at 14:17:29.575     
------------------------------------------------------------------------
 total:
 * wall-time:     0 d,  0 h,  0 min,  0.307 sec
 *  cpu-time:     0 d,  0 h,  0 min,  0.708 sec
 * ratio c/w:     2.307 speedup
 SCF:
 * wall-time:     0 d,  0 h,  0 min,  0.265 sec
 *  cpu-time:     0 d,  0 h,  0 min,  0.511 sec
 * ratio c/w:     1.931 speedup
 analytical hessian:
 * wall-time:     0 d,  0 h,  0 min,  0.016 sec
 *  cpu-time:     0 d,  0 h,  0 min,  0.125 sec
 * ratio c/w:     7.898 speedup


-------------------------   --------------------
FINAL SINGLE POINT ENERGY       -12.280397965310
-------------------------   --------------------


-------------
DIPOLE MOMENT
-------------
                                X             Y             Z
Total Dipole Moment    :     -0.00000       0.00000      -2.08500
                        -----------------------------------------
Magnitude (a.u.)       :      2.08500
Magnitude (Debye)      :      5.29965


-----------------------
VIBRATIONAL FREQUENCIES
-----------------------

Scaling factor for frequencies =  1.000000000  (already applied!)

     0:       0.00 cm**-1
     1:       0.00 cm**-1
     2:       0.00 cm**-1
     3:       0.00 cm**-1
     4:       0.00 cm**-1
     5:       0.00 cm**-1
     6:      88.95 cm**-1
     7:      89.02 cm**-1
     8:     112.60 cm**-1
     9:     483.64 cm**-1
    10:     914.08 cm**-1
    11:     914.13 cm**-1
    12:    1269.04 cm**-1
    13:    1436.29 cm**-1
    14:    1436.41 cm**-1
    15:    3101.97 cm**-1
    16:    3122.75 cm**-1
    17:    3122.93 cm**-1


------------
NORMAL MODES
------------

These modes are the Cartesian displacements weighted by the diagonal matrix
M(i,i)=1/sqrt(m[i]) where m[i] is the mass of the displaced atom
Thus, these vectors are normalized but *not* orthogonal

                  0          1          2          3          4          5    
      0       0.000000   0.000000   0.000000   0.000000   0.000000   0.000000
      1       0.000000   0.000000   0.000000   0.000000   0.000000   0.000000
      2       0.000000   0.000000   0.000000   0.000000   0.000000   0.000000
      3       0.000000   0.000000   0.000000   0.000000   0.000000   0.000000
      4       0.000000   0.000000   0.000000   0.000000   0.000000   0.000000
      5       0.000000   0.000000   0.000000   0.000000   0.000000   0.000000
      6       0.000000   0.000000   0.000000   0.000000   0.000000   0.000000
      7       0.000000   0.000000   0.000000   0.000000   0.000000   0.000000
      8       0.000000   0.000000   0.000000   0.000000   0.000000   0.000000
      9       0.000000   0.000000   0.000000   0.000000   0.000000   0.000000
     10       0.000000   0.000000   0.000000   0.000000   0.000000   0.000000
     11       0.000000   0.000000   0.000000   0.000000   0.000000   0.000000
     12       0.000000   0.000000   0.000000   0.000000   0.000000   0.000000
     13       0.000000   0.000000   0.000000   0.000000   0.000000   0.000000
     14       0.000000   0.000000   0.000000   0.000000   0.000000   0.000000
     15       0.000000   0.000000   0.000000   0.000000   0.000000   0.000000
     16       0.000000   0.000000   0.000000   0.000000   0.000000   0.000000
     17       0.000000   0.000000   0.000000   0.000000   0.000000   0.000000
                  6          7          8          9         10         11    
      0       0.428887   0.003380   0.000003  -0.000001  -0.102571  -0.002773
      1      -0.003380   0.428908   0.000528  -0.000042   0.002773  -0.102565
      2      -0.000001   0.000000  -0.245625  -0.641858   0.000000   0.000002
      3       0.493052   0.003882   0.000004  -0.000001   0.245438   0.006634
      4      -0.003941   0.500008  -0.012779  -0.049814  -0.004242   0.156914
      5       0.001677  -0.213040  -0.177892  -0.437997   0.020475  -0.757729
      6       0.498293   0.000948  -0.011607  -0.043107   0.178002   0.043207
      7      -0.006875   0.494778   0.007290   0.024904   0.032295   0.224390
      8      -0.185411   0.105114  -0.177502  -0.437907  -0.666537   0.361230
      9       0.498247   0.006911   0.011614   0.043104   0.180078  -0.033525
     10      -0.000925   0.494818   0.007290   0.024904  -0.044369   0.222320
     11       0.183728   0.108020  -0.177500  -0.437913   0.646044   0.396704
     12      -0.085983  -0.000678  -0.000000   0.000000  -0.000144  -0.000004
     13       0.000678  -0.085986  -0.000106   0.000005   0.000004  -0.000146
     14       0.000000  -0.000105   0.891814  -0.003251   0.000000   0.000000
     15      -0.028404  -0.000224  -0.000000   0.000000   0.004954   0.000134
     16       0.000224  -0.028406  -0.000035   0.000003  -0.000134   0.004954
     17       0.000000   0.000029  -0.221672   0.072096   0.000000  -0.000002
                 12         13         14         15         16         17    
      0       0.000001  -0.000345  -0.072363  -0.000041  -0.003603   0.092215
      1       0.000005  -0.072355   0.000345   0.000519  -0.092214  -0.003603
      2       0.094168   0.000013   0.000000   0.037931   0.000231   0.000027
      3      -0.000004   0.003567   0.749107  -0.000019  -0.001567   0.040231
      4       0.180114  -0.123311   0.000583  -0.559518   0.769751   0.029799
      5      -0.545962   0.294560  -0.001405  -0.158508   0.245227   0.009503
      6       0.155894   0.378316   0.092956  -0.478454  -0.332864  -0.583902
      7      -0.090086   0.532729   0.375274   0.276537   0.151042   0.358787
      8      -0.545781  -0.146153   0.255802  -0.156309  -0.115718  -0.218123
      9      -0.155901  -0.377409   0.096550   0.478967   0.377384  -0.555692
     10      -0.090084   0.529133  -0.380332   0.276855   0.178558  -0.345636
     11      -0.545787  -0.148582  -0.254401  -0.156505  -0.132378   0.208283
     12       0.000000  -0.000001  -0.000139   0.000000   0.000003  -0.000068
     13      -0.000001  -0.000138   0.000001  -0.000001   0.000068   0.000003
     14       0.002712   0.000001  -0.000000   0.000237   0.000001   0.000000
     15      -0.000000  -0.000003  -0.000568  -0.000000  -0.000001   0.000024
     16       0.000000  -0.000568   0.000003  -0.000000  -0.000024  -0.000001
     17       0.003337  -0.000000   0.000000   0.000088   0.000001   0.000000


The first frequency considered to be a vibration is 6
The total number of vibrations considered is 12


--------------------------
THERMOCHEMISTRY AT 298.15K
--------------------------

Temperature         ...   298.15 K
Pressure            ...     1.00 atm
Total Mass          ...   177.39 AMU
Quasi RRHO          ...     True
Cut-Off Frequency   ...     1.00 cm^-1

Throughout the following assumptions are being made:
  (1) The electronic state is orbitally nondegenerate
  (2) There are no thermally accessible electronically excited states
  (3) Hindered rotations indicated by low frequency modes are not
      treated as such but are treated as vibrations and this may
      cause some error
  (4) All equations used are the standard statistical mechanics
      equations for an ideal gas
  (5) All vibrations are strictly harmonic

freq.      88.95  E(vib)   ...       0.47 
freq.      89.02  E(vib)   ...       0.47 
freq.     112.60  E(vib)   ...       0.45 
freq.     483.64  E(vib)   ...       0.15 
freq.     914.08  E(vib)   ...       0.03 
freq.     914.13  E(vib)   ...       0.03 
freq.    1269.04  E(vib)   ...       0.01 
freq.    1436.29  E(vib)   ...       0.00 
freq.    1436.41  E(vib)   ...       0.00 
freq.    3101.97  E(vib)   ...       0.00 
freq.    3122.75  E(vib)   ...       0.00 
freq.    3122.93  E(vib)   ...       0.00 

------------
INNER ENERGY
------------

The inner energy is: U= E(el) + E(ZPE) + E(vib) + E(rot) + E(trans)
    E(el)   - is the total energy from the electronic structure calculation
              = E(kin-el) + E(nuc-el) + E(el-el) + E(nuc-nuc)
    E(ZPE)  - the the zero temperature vibrational energy from the frequency calculation
    E(vib)  - the the finite temperature correction to E(ZPE) due to population
              of excited vibrational states
    E(rot)  - is the rotational thermal energy
    E(trans)- is the translational thermal energy

Summary of contributions to the inner energy U:
Electronic energy                ...    -12.28039797 Eh
Zero point energy                ...      0.03665984 Eh      23.00 kcal/mol
Thermal vibrational correction   ...      0.00258711 Eh       1.62 kcal/mol
Thermal rotational correction    ...      0.00141627 Eh       0.89 kcal/mol
Thermal translational correction ...      0.00141627 Eh       0.89 kcal/mol
-----------------------------------------------------------------------
Total thermal energy                    -12.23831847 Eh


Summary of corrections to the electronic energy:
(perhaps to be used in another calculation)
Total thermal correction                  0.00541965 Eh       3.40 kcal/mol
Non-thermal (ZPE) correction              0.03665984 Eh      23.00 kcal/mol
-----------------------------------------------------------------------
Total correction                          0.04207950 Eh      26.41 kcal/mol


--------
ENTHALPY
--------

The enthalpy is H = U + kB*T
                kB is Boltzmann's constant
Total thermal energy              ...    -12.23831847 Eh 
Thermal Enthalpy correction       ...      0.00094421 Eh       0.59 kcal/mol
-----------------------------------------------------------------------
Total Enthalpy                    ...    -12.23737426 Eh


WARNING (ORCA/SYM): The number of Z matrix atoms does not agree with
the number of centers in the basis set. The point group will therefore
be determined without considering basis set information.


Note: Rotational entropy computed according to Herzberg 
Infrared and Raman Spectra, Chapter V,1, Van Nostrand Reinhold, 1945 
Point Group:  C3v, Symmetry Number:   3  
Rotational constants in cm-1:     5.299194     0.023624     0.023624 

Vibrational entropy computed according to the QRRHO of S. Grimme
Chem.Eur.J. 2012 18 9955 using a reference frequency of 100.0 cm-1


-------
ENTROPY
-------

The entropy contributions are T*S = T*(S(el)+S(vib)+S(rot)+S(trans))
     S(el)   - electronic entropy
     S(vib)  - vibrational entropy
     S(rot)  - rotational entropy
     S(trans)- translational entropy
The entropies will be listed as multiplied by the temperature to get
units of energy

Electronic entropy                ...      0.00000000 Eh      0.00 kcal/mol
Vibrational entropy               ...      0.00501478 Eh      3.15 kcal/mol
Rotational entropy                ...      0.01122269 Eh      7.04 kcal/mol
Translational entropy             ...      0.01968301 Eh     12.35 kcal/mol
-----------------------------------------------------------------------
Final entropy term                ...      0.03592048 Eh     22.54 kcal/mol

In case the symmetry of your molecule has not been determined correctly
or in case you have a reason to use a different symmetry number we print 
out the resulting rotational entropy values for sn=1,12:

 non-linear molecules -----------------------------------
|  sn= 1 | S(rot)=       0.01225998 Eh      7.69 kcal/mol|
|  sn= 2 | S(rot)=       0.01160552 Eh      7.28 kcal/mol|
|  sn= 3 | S(rot)=       0.01122269 Eh      7.04 kcal/mol|
|  sn= 4 | S(rot)=       0.01095107 Eh      6.87 kcal/mol|
|  sn= 5 | S(rot)=       0.01074038 Eh      6.74 kcal/mol|
|  sn= 6 | S(rot)=       0.01056824 Eh      6.63 kcal/mol|
|  sn= 7 | S(rot)=       0.01042269 Eh      6.54 kcal/mol|
|  sn= 8 | S(rot)=       0.01029661 Eh      6.46 kcal/mol|
|  sn= 9 | S(rot)=       0.01018540 Eh      6.39 kcal/mol|
|  sn=10 | S(rot)=       0.01008592 Eh      6.33 kcal/mol|
|  sn=11 | S(rot)=       0.00999593 Eh      6.27 kcal/mol|
|  sn=12 | S(rot)=       0.00991378 Eh      6.22 kcal/mol|
 linear molecules ---------------------------------------
|  Dinfh | S(rot)=       0.00886221 Eh      5.56 kcal/mol|
|  Cinfv | S(rot)=       0.00951667 Eh      5.97 kcal/mol|
 --------------------------------------------------------


-------------------
GIBBS FREE ENERGY
-------------------

The Gibbs free energy is G = H - T*S

Total enthalpy                    ...    -12.23737426 Eh 
Total entropy correction          ...     -0.03592048 Eh    -22.54 kcal/mol
-----------------------------------------------------------------------
Final Gibbs free energy         ...    -12.27329474 Eh

For completeness - the Gibbs free energy minus the electronic energy
G-E(el)                           ...      0.00710323 Eh      4.46 kcal/mol


--------------------------------
SUGGESTED CITATIONS FOR THIS RUN
--------------------------------

Below you find a list of papers that are relevant to this ORCA run
We neither can nor want to force you to cite these papers, but we appreciate if you do
You receive ORCA, which is the product of decades of hard work by many enthusiastic individuals, for free
The only thing we kindly ask in return is that you cite our papers,
We deeply appreciate it, if you show your appreciation for ORCA by not just citing the generic ORCA reference.

Please note that relegating all ORCA citations to the supporting information does *not* help us.
SI sections are not indexed - citations you put there will not count into any citation statistics
But we need these citations in order to attract the funding resources that allow us to do what we are doing

Therefore, if you are a happy ORCA user, please consider citing a few of the papers listed below in the main body of your paper

In addition to the list printed below, the program has created the file reactant_optfreq.bibtex that contains the list in bibtex format
You can import this file easily into all common literature databanks and citation aid programs


List of essential papers. We consider these as the minimum necessary citations

  1. Bannwarth, C.; Ehlert, S.; Grimme, S.
     GFN2-xTB—An Accurate and Broadly Parametrized Self-Consistent Tight-Binding Quantum Chemical Method with Multipole Electrostatics and Density-Dependent Dispersion Contributions
     J. Chem. Theory Comput. 2019 15(3), 1652-1671
     doi.org/10.1021/acs.jctc.8b01176
  2. Neese, F.
     Software update: the ORCA program system, version 6.0
     WIRES Comput. Molec. Sci. 2025 15(1), e70019
     doi.org/10.1002/wcms.7019

List of papers to cite with high priority. The work reported in these papers was absolutely
necessary for this run to complete.
Our perspective: the developers of density functionals and basis sets usually get cited in chemistry papers
Good! But without the algorithms to do something with them, the functionals or basis sets would not do anything.
Hence, in our opinion, the algorithm design and method developments papers are equally worthy of getting cited

  1. Bykov, D.; Petrenko, T.; Izsak, R.; Kossmann, S.; Becker, U.; Valeev, E.; Neese, F.
     Efficient implementation of the analytic second derivatives of Hartree-Fock and hybrid DFT energies: a detailed analysis of different approximations
     Molec. Phys. 2015 113 , 1961-1977
     doi.org/10.1080/00268976.2015.1025114
  2. Bannwarth, C.; Caldeweyher, E.; Ehlert, S.; Hansen, A.; Pracht, P.; Seibert, J.; Spicher, S.; Grimme, S.
     Extended tight-binding quantum chemistry methods
     WIRES Comput. Molec. Sci. 2020 11(2), e1493
     doi.org/10.1002/wcms.1493

List of suggested additional citations. These are papers that are important in the 'surrounding' of 
of this run, or papers that preceded the highly important papers. If you like your results we are grateful for a citation.

  1. Neese, F.
     The ORCA program system
     WIRES Comput. Molec. Sci. 2012 2(1), 73-78
     doi.org/10.1002/wcms.81
  2. Neese, F.
     Software update: the ORCA program system, version 4.0
     WIRES Comput. Molec. Sci. 2018 8(1), 1-6
     doi.org/10.1002/wcms.1327
  3. Neese, F.; Wennmohs, F.; Becker, U.; Riplinger, C.
     The ORCA quantum chemistry program package
     J. Chem. Phys. 2020 152(22), 224108
     doi.org/10.1063/5.0004608
  4. Neese, F.
     Software update: The ORCA program system—Version 5.0
     WIRES Comput. Molec. Sci. 2022 12(1), e1606
     doi.org/10.1002/wcms.1606

List of optional additional citations

  1. Neese, F.
     Approximate second-order SCF convergence for spin unrestricted wavefunctions
     Chem. Phys. Lett. 2000 325(1-3), 93-98
     doi.org/10.1016/s0009-2614(00)00662-x

Timings for individual modules:

Sum of individual times          ...        2.364 sec (=   0.039 min)
Geometry relaxation              ...        0.080 sec (=   0.001 min)   3.4 %
XTB module                       ...        2.284 sec (=   0.038 min)  96.6 %
                             ****ORCA TERMINATED NORMALLY****
TOTAL RUN TIME: 0 days 0 hours 0 minutes 4 seconds 5 msec
