
                                 *****************
                                 * O   R   C   A *
                                 *****************

                                            #,                                       
                                            ###                                      
                                            ####                                     
                                            #####                                    
                                            ######                                   
                                           ########,                                 
                                     ,,################,,,,,                         
                               ,,#################################,,                 
                          ,,##########################################,,             
                       ,#########################################, ''#####,          
                    ,#############################################,,   '####,        
                  ,##################################################,,,,####,       
                ,###########''''           ''''###############################       
              ,#####''   ,,,,##########,,,,          '''####'''          '####       
            ,##' ,,,,###########################,,,                        '##       
           ' ,,###''''                  '''############,,,                           
         ,,##''                                '''############,,,,        ,,,,,,###''
      ,#''                                            '''#######################'''  
     '                                                          ''''####''''         
             ,#######,   #######,   ,#######,      ##                                
            ,#'     '#,  ##    ##  ,#'     '#,    #''#        ,####,    ,#,          
            ##       ##  ##   ,#'  ##            #'  '#       #'       ,# #          
            ##       ##  #######   ##           ,######,      #####,      #          
            '#,     ,#'  ##    ##  '#,     ,#' ,#      #,     #,   #      #          
             '#######'   ##     ##  '#######'  #'      '#     '####' #    #          



                #########################################################
                #                        -***-                          #
                #          Department of theory and spectroscopy        #
                #                                                       #
                #                      Frank Neese                      #
                #                                                       #
                #     Directorship, Architecture, Infrastructure        #
                #                    SHARK, DRIVERS                     #
                #        Core code/Algorithms in most modules           #
                #                                                       #
                #        Max Planck Institute fuer Kohlenforschung      #
                #                Kaiser Wilhelm Platz 1                 #
                #                 D-45470 Muelheim/Ruhr                 #
                #                      Germany                          #
                #                                                       #
                #                  All rights reserved                  #
                #                        -***-                          #
                #########################################################


                         Program Version 6.1.0  -  RELEASE   -
                                (GIT: $679e74b$)
                          ($2025-06-10 18:02:51 +0200$)


 With contributions from (in alphabetic order):
[Max-Planck-Institut fuer Kohlenforschung]                               
  Daniel Aravena         : Magnetic Suceptibility                        
  Michael Atanasov       : Ab Initio Ligand Field Theory (pilot matlab implementation)
  Alexander A. Auer      : GIAO ZORA, VPT2 properties, NMR spectrum      
  Ute Becker             : All parallelization in ORCA, NUMFREQ, NUMCALC 
  Giovanni Bistoni       : ED, misc. LED, open-shell LED, HFLD           
  Dmytro Bykov           : pre 5.0 version of the SCF Hessian            
  Marcos Casanova-Páez   : Triplet and SCS-CIS(D). UHF-(DLPNO)-IP/EA/STEOM-CCSD. UHF-CVS-IP/STEOM-CCSD   
  Vijay G. Chilkuri      : MRCI spin determinant printing, contributions to CSF-ICE 
  Pauline Colinet        : FMM embedding                                 
  Dipayan Datta          : RHF DLPNO-CCSD density                        
  Achintya Kumar Dutta   : EOM-CC, STEOM-CC                              
  Nicolas Foglia         : Exact transition moments, OPA infrastructure, MCD improvements    
  Dmitry Ganyushin       : Spin-Orbit,Spin-Spin,Magnetic field MRCI      
  Miquel Garcia-Rates    : C-PCM and meta-GGA Hessian, CCSD/C-PCM, Gaussian charge scheme 
  Tiago L. C. Gouveia    : GS-ROHF, GS-ROCIS                             
  Yang Guo               : DLPNO-NEVPT2, F12-NEVPT2, CIM, IAO-localization        
  Andreas Hansen         : Spin unrestricted coupled pair/coupled cluster methods 
  Ingolf Harden          : AUTO-CI MPn and infrastructure                
  Benjamin Helmich-Paris : MC-RPA, TRAH-(SCF,CASSCF), AVAS, COSX integrals, SCF dyn. polar., MC-PDFT, srDFT 
  Lee Huntington         : MR-EOM, pCC                                   
  Robert Izsak           : Overlap fitted RIJCOSX, COSX-SCS-MP3, EOM     
  Riya Kayal             : Wick's Theorem for AUTO-CI, AUTO-CI UHF-CCSDT 
  Emily Kempfer          : AUTO-CI RHF CISDT and CCSDT, approximate NEVPT4
  Christian Kollmar      : KDIIS, OOCD, Brueckner-CCSD(T), CCSD density, CASPT2, CASPT2-K, improved NEVPT2 
  Axel Koslowski         : Symmetry handling                             
  Simone Kossmann        : meta-GGA functionals, TD-DFT gradient, OOMP2, (MP2 Hessian; deprecated post 5.0) 
  Lucas Lang             : DCDCAS, Hyperfine gauge corrections, ICE-SOC+SSC
  Marvin Lechner         : AUTO-CI (C++ implementation), FIC-MRCC        
  Spencer Leger          : CASSCF response                               
  Dagmar Lenk            : GEPOL surface, SMD, ORCA-2-JSON               
  Dimitrios Liakos       : Extrapolation schemes; Compound Job, Property file
  Dimitrios Manganas     : Further ROCIS development; embedding schemes. LFT, Crystal Embedding 
  Dimitrios Pantazis     : SARC Basis sets                               
  Anastasios Papadopoulos: AUTO-CI, single reference methods and gradients 
  Taras Petrenko         : pre 6.0 DFT Hessian and TD-DFT gradient,  ECA, NRVS 
  Petra Pikulova         : Analytic Raman intensities                    
  Peter Pinski           : DLPNO-MP2, DLPNO-MP2 Gradient                 
  Shashank Vittal Rao    : ES-AILFT, MagRelax                            
  Christoph Reimann      : Effective Core Potentials                     
  Marius Retegan         : Local ZFS, SOC                                
  Christoph Riplinger    : Optimizer, TS searches, QM/MM, DLPNO-CCSD(T), (RO)-DLPNO pert. Triples 
  Michael Roemelt        : Original ROCIS implementation, recursive CI coupling coefficients
  Masaaki Saitow         : Open-shell DLPNO-CCSD energy and density      
  Barbara Sandhoefer     : DKH picture change effects                    
  Yorick L. A. Schmerwitz: GMF and freeze-and-release deltaSCF, NEB S-IDPP initial path                    
  Kantharuban Sivalingam : CASSCF convergence/infrastructure, NEVPT2, NEVPT3, NEVPT4(SD), FIC-MRCI and CEPA variants
  Bernardo de Souza      : ESD, SOC TD-DFT                               
  Georgi L. Stoychev     : AutoAux, RI-MP2 NMR, DLPNO-MP2 response, X2C  
  Van Anh Tran           : RI-MP2 g-tensors                              
  Willem Van den Heuvel  : Paramagnetic NMR                              
  Zikuan Wang            : NOTCH, Electric field optimization            
  Frank Wennmohs         : Technical directorship and infrastructure     
  Hang Xu                : AUTO-CI-Response properties                   
                                                                         
[FACCTs GmbH]                                                            
  Markus Bursch, Nicolas Foglia, Miquel Garcia-Rates, Ingolf Harden, Hagen Neugebauer, Anastasios Papadopoulos, 
  Christoph Riplinger, Bernardo de Souza, Georgi L. Stoychev                                                    
                                                                 
  APM, various basis sets, CI-OPT, improved COSX, DLPNO-Multilevel,           
  DOCKER, DRACO, updates on ESD, Fragmentator, GOAT, IRC, LR-CPCM, L-BFGS, MBIS, meta-GGA TD-DFT gradient, ML-optimized integration grids, 
  MM, NACMEs, nearIR, NEB, NEB-TS, NL-DFT gradient (VV10), 2- and 3-layer-ONIOM, interface openCOSMO-RS, QMMM,   
  Crystal-QMMM, RESP, rigid body optimization, SF, symmetry and pop. for TD-DFT, various functionals, SOLVATOR                                   
                                                                         
[Other institutions]                                                     
  V. Asgeirsson          : NEB                                           
  Christoph Bannwarth    : sTDA-DFT, sTD-DFT, PBEh-3c, B97-3c, D3        
  Giovanni Bistoni       : ETS/NOCV, ADLD/ADEX, COVALED                  
  Martin Brehm           : Molecular dynamics                            
  Ronald Cardenas        : ETS/NOCV                                      
  Martina Colucci        : COVALED                                       
  Sebastian Ehlert       : rSCAN, r2SCAN, r2SCAN-3c, D4, dhf basis sets  
  Marvin Friede          : D4 for Fr, Ra, Ac-Lr                          
  Lars Goerigk           : TD-DFT with DH, B97 family of functionals     
  Stefan Grimme          : VdW corrections, initial TS optimization, DFT functionals, gCP, sTDA/sTD-DF 
  Waldemar Hujo          : DFT-NL                                        
  H. Jonsson             : NEB                                           
  Holger Kruse           : gCP                                           
  Marcel Mueller         : wB97X-3c, vDZP basis set                      
  Hagen Neugebauer       : wr2SCAN, Native XTB                           
  Gianluca Regni         : ADLD/ADEX                                     
  Tobias Risthaus        : pre 6.0 range-separated hybrid DFT and stability analysis
  Lukas Wittmann         : regularized MP2, r2SCAN double-hybrids, wr2SCAN        
                                                                         
We gratefully acknowledge several colleagues who have allowed us to      
interface, adapt or use parts of their codes:                            
  Ed Valeev, F. Pavosevic, A. Kumar             : LibInt (2-el integral package), F12 methods 
  Garnet Chan, S. Sharma, J. Yang, R. Olivares  : DMRG                   
  Ulf Ekstrom                                   : XCFun DFT Library      
  Mihaly Kallay                                 : mrcc  (arbitrary order and MRCC methods)
  Frank Weinhold                                : gennbo (NPA and NBO analysis)           
  Simon Mueller                                 : openCOSMO-RS                            
  Christopher J. Cramer and Donald G. Truhlar   : smd solvation model                     
  S Lehtola, MJT Oliveira, MAL Marques          : LibXC Library                           
  Liviu Ungur et al                             : ANISO software                          


 Your calculation uses the libint2 library for the computation of 2-el integrals
 For citations please refer to: http://libint.valeyev.net

 Your ORCA version has been built with support for libXC version: 7.0.0
 For citations please refer to: https://libxc.gitlab.io

 This ORCA versions uses:
   CBLAS   interface :  Fast vector & matrix operations
   LAPACKE interface :  Fast linear algebra routines
   SCALAPACK package :  Parallel linear algebra routines
   Shared memory     :  Shared parallel matrices
   BLAS/LAPACK       :  OpenBLAS 0.3.29  USE64BITINT DYNAMIC_ARCH NO_AFFINITY SkylakeX SINGLE_THREADED
        Core in use  :  SkylakeX
   Copyright (c) 2011-2014, The OpenBLAS Project


  ***********************************
  * Starting time: Mon Mar 16 14:14:30 2026
  * Host name:     midway3-login4.rcc.local
  * Process ID:    54319
  * Working dir.:  /home/rzhu16/evans-polanyi-principle-validation/runs/da_f/geo_opt_reactant_product
  ***********************************

Your calculation utilizes the semiempirical GFN2-xTB method
Please cite in your paper:
Bannwarth, C.; Ehlert S.; Grimme, S. J. Chem. Theory Comput. 2019, 15, 1652.
   

================================================================================

================================================================================
                                        WARNINGS
                       Please study these warnings very carefully!
================================================================================


WARNING: Analytical Hessian for XTB is limited in the analysis of the data.
       : If you want to obtain extensive IR and deltaG analysis, please use ! XTB NumFreq. 


WARNING: Geometry Optimization
  ===> : Switching off AutoStart
         For restart on a previous wavefunction, please use MOREAD

WARNING: Found dipole moment calculation with XTB calculation
  ===> : Switching off dipole moment calculation


WARNING: Found frequency calculation in combination with XTB calculation
  ===> : Need to redirect dipole moment calculation to properties.out


================================================================================
                                       INPUT FILE
================================================================================
NAME = reactant_optfreq.inp
|  1> ! XTB2 Opt Freq PAL8
|  2> 
|  3> %geom
|  4>   MaxIter 500
|  5> end
|  6> 
|  7> * xyz 0 1
|  8>   C       0.078329      0.094335     -0.052174
|  9>   C       1.323297      0.035751     -0.511888
| 10>   C       2.174997      1.208027     -0.486209
| 11>   C       3.430805      1.128727     -0.060822
| 12>   C       2.307714      0.903798      2.430166
| 13>   C       1.184036      0.219103      2.416343
| 14>   H      -0.513936     -0.783050      0.139552
| 15>   H      -0.369706      1.043495      0.191527
| 16>   H       1.794711     -0.913545     -0.729669
| 17>   H       1.699542      2.168038     -0.633919
| 18>   H       4.018860      2.000543      0.165705
| 19>   H       3.889512      0.170318      0.124571
| 20>   H       0.232215      0.715774      2.444323
| 21>   H       1.195079     -0.851157      2.355064
| 22>   H       3.306881      0.497855      2.420975
| 23>   F       2.314938      2.248485      2.473984
| 24> *
| 25> 
| 26>                          ****END OF INPUT****
================================================================================

                       *****************************
                       * Geometry Optimization Run *
                       *****************************

Geometry optimization settings:
Update method            Update   .... BFGS
Choice of coordinates    CoordSys .... (2022) Redundant Internals
Initial Hessian          InHess   .... Almloef's Model
Max. no of cycles        MaxIter  .... 500

Convergence Tolerances:
Energy Change            TolE     ....  5.0000e-06 Eh
Max. Gradient            TolMAXG  ....  3.0000e-04 Eh/bohr
RMS Gradient             TolRMSG  ....  1.0000e-04 Eh/bohr
Max. Displacement        TolMAXD  ....  4.0000e-03 bohr
RMS Displacement         TolRMSD  ....  2.0000e-03 bohr
Strict Convergence                .... False

------------------------------------------------------------------------------
                        ORCA OPTIMIZATION COORDINATE SETUP
------------------------------------------------------------------------------

The optimization will be done in redundant internal coordinates (2022)
Making redundant internal coordinates   ...  (2022 redundants) done
Evaluating the initial hessian          ...  (Almloef) done
Evaluating the coordinates              ...  done
Calculating the B-matrix                .... done
Calculating the G-matrix                .... done
The number of degrees of freedom        ....  164

    -----------------------------------------------------------------
                    Redundant Internal Coordinates


    -----------------------------------------------------------------
         Definition                    Initial Value    Approx d2E/dq
    -----------------------------------------------------------------
      1. B(C   1,C   0)                  1.3284         0.783388   
      2. B(C   2,C   1)                  1.4492         0.502611   
      3. B(C   3,C   2)                  1.3283         0.783841   
      4. B(C   4,C   3)                  2.7417         0.010000   
      5. B(C   4,C   2)                  2.9352         0.010000   
      6. B(C   5,C   1)                  2.9373         0.010000   
      7. B(C   5,C   0)                  2.7077         0.010000   
      8. B(C   5,C   4)                  1.3159         0.820211   
      9. B(H   6,C   5)                  3.0118         0.010000   
     10. B(H   6,C   0)                  1.0758         0.379386   
     11. B(H   7,C   5)                  2.8361         0.010000   
     12. B(H   7,C   0)                  1.0775         0.377006   
     13. B(H   8,C   1)                  1.0820         0.370778   
     14. B(H   9,C   2)                  1.0814         0.371614   
     15. B(H  10,C   3)                  1.0757         0.379487   
     16. B(H  10,C   4)                  3.0428         0.010000   
     17. B(H  11,C   4)                  2.8906         0.010000   
     18. B(H  11,C   3)                  1.0786         0.375531   
     19. B(H  12,H   7)                  2.3547         0.010000   
     20. B(H  12,H   6)                  2.8487         0.010000   
     21. B(H  12,C   5)                  1.0740         0.381932   
     22. B(H  12,C   0)                  2.5773         0.010000   
     23. B(H  13,C   1)                  3.0037         0.010000   
     24. B(H  13,C   5)                  1.0721         0.384618   
     25. B(H  13,C   0)                  2.8171         0.010000   
     26. B(H  13,H   6)                  2.7989         0.010000   
     27. B(H  14,C   4)                  1.0785         0.375609   
     28. B(H  14,H  10)                  2.8020         0.010000   
     29. B(H  14,C   3)                  2.5637         0.010000   
     30. B(H  14,H  11)                  2.3917         0.010000   
     31. B(F  15,C   3)                  2.9873         0.010000   
     32. B(F  15,C   4)                  1.3454         0.612479   
     33. B(F  15,H  10)                  2.8798         0.010000   
     34. A(C   5,C   0,H   6)           95.7346         0.178434   
     35. A(C   1,C   0,C   5)           86.2629         0.210847   
     36. A(C   1,C   0,H   7)          120.4508         0.370162   
     37. A(H   6,C   0,H   7)          116.6920         0.295369   
     38. A(C   1,C   0,H   6)          122.7964         0.370563   
     39. A(C   5,C   0,H   7)           85.5847         0.178307   
     40. A(C   0,C   1,H   8)          121.1071         0.369104   
     41. A(C   5,C   1,H   8)          106.0257         0.162511   
     42. A(C   2,C   1,H   8)          117.2055         0.342334   
     43. A(C   0,C   1,C   2)          120.5948         0.435946   
     44. A(C   2,C   1,C   5)           87.6907         0.180054   
     45. A(C   0,C   1,C   5)           66.9098         0.189675   
     46. A(C   1,C   2,C   4)           87.7269         0.180210   
     47. A(C   1,C   2,C   3)          120.8646         0.435991   
     48. A(C   3,C   2,H   9)          120.8245         0.369283   
     49. A(C   4,C   2,H   9)          104.3356         0.162675   
     50. A(C   1,C   2,H   9)          117.2112         0.342463   
     51. A(C   3,C   2,C   4)           68.4607         0.189862   
     52. A(C   4,C   3,H  11)           86.8554         0.175741   
     53. A(C   4,C   3,H  10)           95.6870         0.175947   
     54. A(C   2,C   3,C   4)           84.7549         0.207467   
     55. A(C   4,C   3,F  15)           26.7245         0.117211   
     56. A(H  10,C   3,H  11)          116.8377         0.295198   
     57. A(H  11,C   3,F  15)          110.2479         0.155903   
     58. A(C   2,C   3,H  11)          120.6762         0.369949   
     59. A(H  10,C   3,F  15)           73.8431         0.156062   
     60. A(C   2,C   3,H  10)          122.4044         0.370616   
     61. A(C   2,C   3,F  15)           84.0426         0.180373   
     62. A(C   3,C   4,F  15)           86.8698         0.199492   
     63. A(C   3,C   4,H  14)           69.1234         0.175745   
     64. A(C   3,C   4,C   5)          112.5154         0.208690   
     65. A(C   2,C   4,F  15)           85.9292         0.183071   
     66. A(H  14,C   4,F  15)          111.8073         0.351047   
     67. A(C   2,C   4,H  14)           94.1538         0.162854   
     68. A(C   5,C   4,F  15)          121.6655         0.450568   
     69. A(C   2,C   4,C   3)           26.7845         0.120140   
     70. A(C   2,C   4,C   5)           90.2798         0.190902   
     71. A(C   5,C   4,H  14)          126.5234         0.372862   
     72. A(H  12,C   5,H  13)          118.1835         0.296619   
     73. A(C   4,C   5,H  13)          120.7466         0.374388   
     74. A(C   4,C   5,H  12)          121.0566         0.373936   
     75. A(C   0,C   5,H  13)           84.6117         0.178712   
     76. A(C   0,C   5,H  12)           71.5277         0.178570   
     77. A(C   0,C   5,C   1)           26.8274         0.120978   
     78. A(C   1,C   5,H  13)           83.1201         0.163124   
     79. A(C   1,C   5,H  12)           95.5584         0.163006   
     80. A(C   1,C   5,C   4)           90.1413         0.190727   
     81. A(C   0,C   5,C   4)          112.4731         0.212121   
     82. A(C   3,F  15,C   4)           66.4057         0.174222   
     83. D(C   5,C   1,C   0,H   7)     82.6522         0.061752   
     84. D(H   8,C   1,C   0,H   6)      0.9332         0.061752   
     85. D(C   2,C   1,C   0,H   7)     10.2882         0.061752   
     86. D(C   5,C   1,C   0,H   6)    -94.4180         0.061752   
     87. D(C   2,C   1,C   0,C   5)    -72.3640         0.061752   
     88. D(C   2,C   1,C   0,H   6)   -166.7819         0.061752   
     89. D(H   8,C   1,C   0,C   5)     95.3512         0.061752   
     90. D(H   8,C   1,C   0,H   7)    178.0034         0.061752   
     91. D(H   9,C   2,C   1,C   0)    -33.7311         0.021293   
     92. D(C   3,C   2,C   1,C   5)     73.0499         0.021293   
     93. D(H   9,C   2,C   1,C   5)    -95.0574         0.021293   
     94. D(H   9,C   2,C   1,H   8)    158.0888         0.021293   
     95. D(C   3,C   2,C   1,C   0)    134.3762         0.021293   
     96. D(C   4,C   2,C   1,C   0)     71.2336         0.021293   
     97. D(C   3,C   2,C   1,H   8)    -33.8039         0.021293   
     98. D(C   4,C   3,C   2,C   1)    -73.4071         0.058641   
     99. D(H  11,C   3,C   2,H   9)    177.4642         0.058641   
    100. D(H  10,C   3,C   2,H   9)      0.8536         0.058641   
    101. D(H  10,C   3,C   2,C   4)    -93.4165         0.058641   
    102. D(H  11,C   3,C   2,C   4)     83.1941         0.058641   
    103. D(H  11,C   3,C   2,C   1)      9.7870         0.058641   
    104. D(C   4,C   3,C   2,H   9)     94.2701         0.058641   
    105. D(H  10,C   3,C   2,C   1)   -166.8236         0.058641   
    106. D(H  14,C   4,C   2,C   3)    -20.4892         0.010000   
    107. D(H  14,C   4,C   2,C   1)    104.0958         0.010000   
    108. D(C   5,C   4,C   2,H   9)     94.9636         0.010000   
    109. D(C   5,C   4,C   2,C   3)   -147.1503         0.010000   
    110. D(H  14,C   4,C   2,H   9)   -138.3753         0.010000   
    111. D(C   5,C   4,C   2,C   1)    -22.5653         0.010000   
    112. D(F  15,C   4,C   2,C   3)     91.1178         0.010000   
    113. D(F  15,C   4,C   3,H  10)     34.9516         0.010000   
    114. D(F  15,C   4,C   3,C   2)    -87.1664         0.010000   
    115. D(H  14,C   4,C   3,F  15)   -114.7739         0.010000   
    116. D(H  14,C   4,C   3,H  10)    -79.8223         0.010000   
    117. D(C   5,C   4,C   3,F  15)    123.1242         0.010000   
    118. D(C   5,C   4,C   3,H  11)    -85.2503         0.010000   
    119. D(C   5,C   4,C   3,H  10)    158.0758         0.010000   
    120. D(H  14,C   4,C   3,H  11)     36.8515         0.010000   
    121. D(C   5,C   4,C   3,C   2)     35.9577         0.010000   
    122. D(F  15,C   4,C   2,H   9)    -26.7683         0.010000   
    123. D(H  14,C   4,C   3,C   2)    158.0596         0.010000   
    124. D(F  15,C   4,C   3,H  11)    151.6255         0.010000   
    125. D(F  15,C   4,C   2,C   1)   -144.2972         0.010000   
    126. D(H  13,C   5,C   1,C   2)   -143.5232         0.010000   
    127. D(H  13,C   5,C   1,C   0)     91.6616         0.010000   
    128. D(H  12,C   5,C   1,H   8)   -143.6369         0.010000   
    129. D(H  12,C   5,C   1,C   0)    -26.1281         0.010000   
    130. D(C   4,C   5,C   1,H   8)     95.1271         0.010000   
    131. D(C   4,C   5,C   1,C   2)    -22.5489         0.010000   
    132. D(C   1,C   5,C   0,H   7)   -120.9596         0.010000   
    133. D(C   1,C   5,C   0,H   6)    122.6143         0.010000   
    134. D(H  13,C   5,C   0,H   7)    153.6350         0.010000   
    135. D(H  13,C   5,C   0,H   6)     37.2088         0.010000   
    136. D(C   4,C   5,C   1,C   0)   -147.3641         0.010000   
    137. D(H  13,C   5,C   0,C   1)    -85.4054         0.010000   
    138. D(H  12,C   5,C   0,H   7)     31.5165         0.010000   
    139. D(H  12,C   5,C   0,H   6)    -84.9097         0.010000   
    140. D(H  12,C   5,C   1,C   2)     98.6871         0.010000   
    141. D(H  12,C   5,C   0,C   1)    152.4761         0.010000   
    142. D(C   4,C   5,C   0,H   7)    -85.2542         0.010000   
    143. D(C   4,C   5,C   0,H   6)    158.3196         0.010000   
    144. D(H  13,C   5,C   1,H   8)    -25.8472         0.010000   
    145. D(C   4,C   5,C   0,C   1)     35.7054         0.010000   
    146. D(C   0,C   5,C   4,C   2)     -4.3661         0.078297   
    147. D(C   0,C   5,C   4,F  15)     81.0226         0.078297   
    148. D(C   0,C   5,C   4,H  14)    -99.7456         0.078297   
    149. D(H  13,C   5,C   4,C   2)     92.9780         0.078297   
    150. D(H  13,C   5,C   4,C   3)     77.6342         0.078297   
    151. D(H  13,C   5,C   4,F  15)    178.3667         0.078297   
    152. D(H  13,C   5,C   4,H  14)     -2.4015         0.078297   
    153. D(H  12,C   5,C   4,C   2)    -85.6726         0.078297   
    154. D(H  12,C   5,C   4,C   3)   -101.0164         0.078297   
    155. D(H  12,C   5,C   4,F  15)     -0.2839         0.078297   
    156. D(C   0,C   5,C   4,C   3)    -19.7099         0.078297   
    157. D(H  12,C   5,C   4,H  14)    178.9479         0.078297   
    158. D(C   0,C   5,C   1,C   2)    124.8152         0.010000   
    159. D(C   3,F  15,C   4,C   2)    -26.8222         0.044645   
    160. D(C   3,F  15,C   4,H  14)     66.0288         0.044645   
    161. D(C   3,F  15,C   4,C   5)   -114.6361         0.044645   
    162. D(C   4,F  15,C   3,H  11)    -30.3826         0.010000   
    163. D(C   4,F  15,C   3,H  10)   -143.5938         0.010000   
    164. D(C   4,F  15,C   3,C   2)     90.1647         0.010000   
    -----------------------------------------------------------------

Number of atoms                         .... 16
Number of degrees of freedom            .... 164


         *************************************************************
         *                GEOMETRY OPTIMIZATION CYCLE   1            *
         *************************************************************
---------------------------------
CARTESIAN COORDINATES (ANGSTROEM)
---------------------------------
  C     0.078329    0.094335   -0.052174
  C     1.323297    0.035751   -0.511888
  C     2.174997    1.208027   -0.486209
  C     3.430805    1.128727   -0.060822
  C     2.307714    0.903798    2.430166
  C     1.184036    0.219103    2.416343
  H    -0.513936   -0.783050    0.139552
  H    -0.369706    1.043495    0.191527
  H     1.794711   -0.913545   -0.729669
  H     1.699542    2.168038   -0.633919
  H     4.018860    2.000543    0.165705
  H     3.889512    0.170318    0.124571
  H     0.232215    0.715774    2.444323
  H     1.195079   -0.851157    2.355064
  H     3.306881    0.497855    2.420975
  F     2.314938    2.248485    2.473984

----------------------------
CARTESIAN COORDINATES (A.U.)
----------------------------
  NO LB    ZA    FRAG    MASS        X           Y           Z
   0 C   6.0000    0    12.011    0.148020    0.178267   -0.098595
   1 C   6.0000    0    12.011    2.500669    0.067560   -0.967328
   2 C   6.0000    0    12.011    4.110149    2.282840   -0.918802
   3 C   6.0000    0    12.011    6.483282    2.132985   -0.114937
   4 C   6.0000    0    12.011    4.360947    1.707931    4.592348
   5 C   6.0000    0    12.011    2.237504    0.414045    4.566227
   6 H   1.0000    0     1.008   -0.971198   -1.479750    0.263715
   7 H   1.0000    0     1.008   -0.698643    1.971920    0.361934
   8 H   1.0000    0     1.008    3.391512   -1.726350   -1.378875
   9 H   1.0000    0     1.008    3.211669    4.096998   -1.197933
  10 H   1.0000    0     1.008    7.594545    3.780478    0.313137
  11 H   1.0000    0     1.008    7.350112    0.321854    0.235405
  12 H   1.0000    0     1.008    0.438823    1.352617    4.619101
  13 H   1.0000    0     1.008    2.258372   -1.608454    4.450426
  14 H   1.0000    0     1.008    6.249099    0.940810    4.574980
  15 F   9.0000    0    18.998    4.374599    4.249021    4.675152

      -----------------------------------------------------------      
     |                   =====================                   |     
     |                           x T B                           |     
     |                   =====================                   |     
     |                         S. Grimme                         |     
     |          Mulliken Center for Theoretical Chemistry        |     
     |                    University of Bonn                     |     
      -----------------------------------------------------------      

   * xtb version 6.7.1 (edcfbbe) compiled by 'albert@albert-system' on 2024-07-22

   xtb is free software: you can redistribute it and/or modify it under
   the terms of the GNU Lesser General Public License as published by
   the Free Software Foundation, either version 3 of the License, or
   (at your option) any later version.
   
   xtb is distributed in the hope that it will be useful,
   but WITHOUT ANY WARRANTY; without even the implied warranty of
   MERCHANTABILITY or FITNESS FOR A PARTICULAR PURPOSE.  See the
   GNU Lesser General Public License for more details.
   
   Cite this work as:
   * C. Bannwarth, E. Caldeweyher, S. Ehlert, A. Hansen, P. Pracht,
     J. Seibert, S. Spicher, S. Grimme, WIREs Comput. Mol. Sci., 2020, 11,
     e01493. DOI: 10.1002/wcms.1493
   
   for GFN2-xTB:
   * C. Bannwarth, S. Ehlert and S. Grimme., J. Chem. Theory Comput., 2019,
     15, 1652-1671. DOI: 10.1021/acs.jctc.8b01176
   for GFN1-xTB:
   * S. Grimme, C. Bannwarth, P. Shushkov, J. Chem. Theory Comput., 2017,
     13, 1989-2009. DOI: 10.1021/acs.jctc.7b00118
   for GFN0-xTB:
   * P. Pracht, E. Caldeweyher, S. Ehlert, S. Grimme, ChemRxiv, 2019, preprint.
     DOI: 10.26434/chemrxiv.8326202.v1
   for GFN-FF:
   * S. Spicher and S. Grimme, Angew. Chem. Int. Ed., 2020, 59, 15665-15673.
     DOI: 10.1002/anie.202004239
   
   for ALPB and GBSA implicit solvation:
   * S. Ehlert, M. Stahn, S. Spicher, S. Grimme, J. Chem. Theory Comput.,
     2021, 17, 4250-4261. DOI: 10.1021/acs.jctc.1c00471
   
   for ddCOSMO and CPCM-X implicit solvation:
   * M. Stahn, S. Ehlert, S. Grimme, J. Phys. Chem. A,
     2023, XX, XXXX-XXXX. DOI: 10.1021/acs.jpca.3c04382
   
   for DFT-D4:
   * E. Caldeweyher, C. Bannwarth and S. Grimme, J. Chem. Phys., 2017,
     147, 034112. DOI: 10.1063/1.4993215
   * E. Caldeweyher, S. Ehlert, A. Hansen, H. Neugebauer, S. Spicher,
     C. Bannwarth and S. Grimme, J. Chem. Phys., 2019, 150, 154122.
     DOI: 10.1063/1.5090222
   * E. Caldeweyher, J.-M. Mewes, S. Ehlert and S. Grimme, Phys. Chem. Chem. Phys.
     2020, 22, 8499-8512. DOI: 10.1039/D0CP00502A
   
   for sTDA-xTB:
   * S. Grimme and C. Bannwarth, J. Chem. Phys., 2016, 145, 054103.
     DOI: 10.1063/1.4959605
   
   in the mass-spec context:
   * V. Asgeirsson, C. Bauer and S. Grimme, Chem. Sci., 2017, 8, 4879.
     DOI: 10.1039/c7sc00601b
   * J. Koopman and S. Grimme, ACS Omega 2019, 4, 12, 15120-15133.
     DOI: 10.1021/acsomega.9b02011
   
   for metadynamics refer to:
   * S. Grimme, J. Chem. Theory Comput., 2019, 155, 2847-2862
     DOI: 10.1021/acs.jctc.9b00143
   
   for SPH calculations refer to:
   * S. Spicher and S. Grimme, J. Chem. Theory Comput., 2021, 17, 1701-1714
     DOI: 10.1021/acs.jctc.0c01306
   
   for ONIOM refer to:
   * C. Plett, A. Katbashev, S. Ehlert, S. Grimme, M. Bursch,
     Phys. Chem. Chem. Phys., 2023, 25, 17860-17868. DOI: 10.1039/D3CP02178E
   
   for DIPRO refer to:
   * J. Kohn, N. Gildemeister, S. Grimme, D. Fazzi, A. Hansen,
     J. Chem. Phys., 2023, just accepted.
   
   for PTB refer to:
   * S. Grimme, M. Mueller, A. Hansen, J. Chem. Phys., 2023, 158, 124111.
     DOI: 10.1063/5.0137838
   
   with help from (in alphabetical order)
   P. Atkinson, C. Bannwarth, F. Bohle, G. Brandenburg, E. Caldeweyher
   M. Checinski, S. Dohm, S. Ehlert, S. Ehrlich, I. Gerasimov, C. Hölzer
   A. Katbashev, J. Kohn, J. Koopman, C. Lavigne, S. Lehtola, F. März, M. Müller,
   F. Musil, H. Neugebauer, J. Pisarek, C. Plett, P. Pracht, F. Pultar,
   J. Seibert, P. Shushkov, S. Spicher, M. Stahn, M. Steiner, T. Strunk,
   J. Stückrath, T. Rose, and J. Unsleber
   
 * started run on 2026/03/16 at 14:14:31.569     
   ID    Z sym.   atoms
    1    6 C      1-6
    2    1 H      7-15
    3    9 F      16

           -------------------------------------------------
          |                Calculation Setup                |
           -------------------------------------------------

          program call               : /software/orca-6.1.0-el8-x86_64/bin/otool_xtb reactant_optfreq_XTB.xyz --grad -c 0 -u 0 -P 8 --namespace reactant_optfreq --input reactant_optfreq_XTB.input.tmp --acc 0.200000
          hostname                   : midway3-login4.rcc.local
          calculation namespace      : reactant_optfreq
          coordinate file            : reactant_optfreq_XTB.xyz
          omp threads                :                     8


molecular fragmentation (1/2 indicates fragments):
1111221111112222
# atoms in fragment 1/2:    10     6
 fragment masses (1/2) :       54.09       46.04
CMA distance (Bohr)    :   5.255
constraining FC (au)   :  0.0500

           -------------------------------------------------
          |                 G F N 2 - x T B                 |
           -------------------------------------------------

        Reference                      10.1021/acs.jctc.8b01176
      * Hamiltonian:
        H0-scaling (s, p, d)           1.850000    2.230000    2.230000
        zeta-weighting                 0.500000
      * Dispersion:
        s8                             2.700000
        a1                             0.520000
        a2                             5.000000
        s9                             5.000000
      * Repulsion:
        kExp                           1.500000    1.000000
        rExp                           1.000000
      * Coulomb:
        alpha                          2.000000
        third order                    shell-resolved
        anisotropic                    true
        a3                             3.000000
        a5                             4.000000
        cn-shift                       1.200000
        cn-exp                         4.000000
        max-rad                        5.000000


          ...................................................
          :                      SETUP                      :
          :.................................................:
          :  # basis functions                  37          :
          :  # atomic orbitals                  37          :
          :  # shells                           23          :
          :  # electrons                        40          :
          :  max. iterations                   250          :
          :  Hamiltonian                  GFN2-xTB          :
          :  restarted?                      false          :
          :  GBSA solvation                  false          :
          :  PC potential                    false          :
          :  electronic temp.          300.0000000     K    :
          :  accuracy                    0.2000000          :
          :  -> integral cutoff          0.3198970E+02      :
          :  -> integral neglect         0.2000000E-08      :
          :  -> SCF convergence          0.2000000E-06 Eh   :
          :  -> wf. convergence          0.2000000E-04 e    :
          :  Broyden damping             0.4000000          :
          :  net charge                          0          :
          :  unpaired electrons                  0          :
          ...................................................

 iter      E             dE          RMSdq      gap      omega  full diag
   1    -22.3529103 -0.223529E+02  0.500E+00    3.98       0.0  T
   2    -22.3874897 -0.345795E-01  0.315E+00    4.07       1.0  T
   3    -22.3730388  0.144510E-01  0.181E+00    4.04       1.0  T
   4    -22.3984206 -0.253819E-01  0.463E-01    4.06       1.0  T
   5    -22.3993963 -0.975661E-03  0.199E-01    4.06       1.0  T
   6    -22.3998165 -0.420204E-03  0.588E-02    4.06       1.0  T
   7    -22.3998269 -0.103757E-04  0.222E-02    4.05       1.1  T
   8    -22.3998267  0.128847E-06  0.842E-03    4.05       3.0  T
   9    -22.3998272 -0.470800E-06  0.420E-03    4.05       6.0  T
  10    -22.3998274 -0.147755E-06  0.823E-04    4.05      30.4  T
  11    -22.3998274 -0.275039E-08  0.359E-04    4.05      69.6  T
  12    -22.3998274 -0.146724E-09  0.594E-05    4.05     420.7  T
  13    -22.3998274 -0.101181E-10  0.315E-05    4.05     794.6  T

   *** convergence criteria satisfied after 13 iterations ***

         #    Occupation            Energy/Eh            Energy/eV
      -------------------------------------------------------------
         1        2.0000           -0.8114463             -22.0806
       ...           ...                  ...                  ...
        14        2.0000           -0.4682415             -12.7415
        15        2.0000           -0.4571786             -12.4405
        16        2.0000           -0.4545202             -12.3681
        17        2.0000           -0.4449613             -12.1080
        18        2.0000           -0.4285287             -11.6609
        19        2.0000           -0.4074032             -11.0860
        20        2.0000           -0.3909173             -10.6374 (HOMO)
        21                         -0.2419049              -6.5826 (LUMO)
        22                         -0.2143910              -5.8339
        23                         -0.1658603              -4.5133
        24                          0.0702696               1.9121
        25                          0.1051273               2.8607
       ...                                ...                  ...
        37                          0.6501411              17.6912
      -------------------------------------------------------------
                  HL-Gap            0.1490124 Eh            4.0548 eV
             Fermi-level           -0.3164111 Eh           -8.6100 eV

 SCC (total)                   0 d,  0 h,  0 min,  0.068 sec
 SCC setup                      ...        0 min,  0.000 sec (  0.391%)
 Dispersion                     ...        0 min,  0.000 sec (  0.140%)
 classical contributions        ...        0 min,  0.000 sec (  0.050%)
 integral evaluation            ...        0 min,  0.000 sec (  0.596%)
 iterations                     ...        0 min,  0.066 sec ( 96.187%)
 molecular gradient             ...        0 min,  0.001 sec (  2.174%)
 printout                       ...        0 min,  0.000 sec (  0.428%)

         :::::::::::::::::::::::::::::::::::::::::::::::::::::
         ::                     SUMMARY                     ::
         :::::::::::::::::::::::::::::::::::::::::::::::::::::
         :: total energy             -22.046651918116 Eh    ::
         :: gradient norm              0.009441705797 Eh/a0 ::
         :: HOMO-LUMO gap              4.054833921393 eV    ::
         ::.................................................::
         :: SCC energy               -22.399788489782 Eh    ::
         :: -> isotropic ES            0.013243231442 Eh    ::
         :: -> anisotropic ES          0.003107949322 Eh    ::
         :: -> anisotropic XC          0.013520094606 Eh    ::
         :: -> dispersion             -0.011029362519 Eh    ::
         :: repulsion energy           0.353136571666 Eh    ::
         :: add. restraining           0.000000000000 Eh    ::
         :: total charge               0.000000000000 e     ::
         :::::::::::::::::::::::::::::::::::::::::::::::::::::


Property printout bound to 'properties.out'

           -------------------------------------------------
          | TOTAL ENERGY              -22.046651918116 Eh   |
          | GRADIENT NORM               0.009441705797 Eh/α |
          | HOMO-LUMO GAP               4.054833921393 eV   |
           -------------------------------------------------

------------------------------------------------------------------------
 * finished run on 2026/03/16 at 14:14:31.671     
------------------------------------------------------------------------
 total:
 * wall-time:     0 d,  0 h,  0 min,  0.102 sec
 *  cpu-time:     0 d,  0 h,  0 min,  0.296 sec
 * ratio c/w:     2.902 speedup
 SCF:
 * wall-time:     0 d,  0 h,  0 min,  0.069 sec
 *  cpu-time:     0 d,  0 h,  0 min,  0.201 sec
 * ratio c/w:     2.927 speedup


-------------------------   --------------------
FINAL SINGLE POINT ENERGY       -22.046651918120
-------------------------   --------------------


-------------
DIPOLE MOMENT
-------------
                                X             Y             Z
Total Dipole Moment    :     -0.05700      -0.72600      -0.10100
                        -----------------------------------------
Magnitude (a.u.)       :      0.73520
Magnitude (Debye)      :      1.86874


------------------
CARTESIAN GRADIENT
------------------

   1   C   :    0.001041340    0.000071265    0.001906433
   2   C   :    0.000124361    0.000017820   -0.000425549
   3   C   :   -0.000087606   -0.000003727   -0.000421182
   4   C   :   -0.000961096   -0.000141129    0.001717032
   5   C   :   -0.000629976   -0.000480263   -0.002356967
   6   C   :    0.000492941    0.000524159   -0.002411637
   7   H   :    0.001539002    0.000191153    0.004211841
   8   H   :    0.001398014    0.000313496    0.001699097
   9   H   :    0.000225198   -0.000110207   -0.000279993
  10   H   :   -0.000238503    0.000133884   -0.000225535
  11   H   :   -0.001412514   -0.000313576    0.003907440
  12   H   :   -0.001239560   -0.000346148    0.001582413
  13   H   :   -0.000009224    0.000408388   -0.001946744
  14   H   :   -0.000365503   -0.000018988   -0.002842654
  15   H   :    0.000033902   -0.000296330   -0.001945066
  16   F   :    0.000089224    0.000050202   -0.002168932

Difference to translation invariance:
           :   -0.0000000000   -0.0000000000    0.0000000000

Difference to rotation invariance:
           :   -0.0000000077    0.0000000037    0.0000000250

Norm of the Cartesian gradient     ...    0.0094417058
RMS gradient                       ...    0.0013627928
MAX gradient                       ...    0.0042118411
------------------------------------------------------------------------------
                         ORCA GEOMETRY RELAXATION STEP
------------------------------------------------------------------------------

Reading the OPT-File                    .... done
Getting information on internals        .... done
Copying old internal coords+grads       .... done
Making the new internal coordinates     .... (2022 redundants) done
Validating the new internal coordinates .... (2022 redundants) done
Calculating the B-matrix                .... done
Calculating the G,G- and P matrices     .... done
Transforming gradient to internals      .... done
Projecting the internal gradient        .... done
Number of atoms                         ....  16
Number of internal coordinates          .... 164
Current Energy                          ....   -22.046651918 Eh
Current gradient norm                   ....     0.009441706 Eh/bohr
Maximum allowed component of the step   ....  0.300
Current trust radius                    ....  0.300
Evaluating the initial hessian          ....  (Almloef) done
Projecting the Hessian                  .... done
Forming the augmented Hessian           .... done
Diagonalizing the augmented Hessian     .... done
Last element of RFO vector              ....  0.952123061
Lowest eigenvalues of augmented Hessian:
 -0.001395770  0.011749597  0.014075577  0.018726122  0.026990804
Length of the computed step             ....  0.321087722
Warning: the length of the step is outside the trust region - taking restricted step instead
The input lambda is                     ....     0.009582
   iter:   5  x=    0.003610  g=  244.012969 f(x)=     0.511166
   iter:  10  x=   -0.002265  g=   13.575635 f(x)=     0.000044
The output lambda is                    ....    -0.002265 (12 iterations)
The final length of the internal step   ....  0.300000000
Converting the step to Cartesian space:
 Initial RMS(Int)=    0.0234260643
Transforming coordinates:
 Iter   0:  RMS(Cart)=    0.0210537553 RMS(Int)=    0.0234687604
done
Storing new coordinates                 .... done

                                .--------------------.
          ----------------------|Geometry convergence|-------------------------
          Item                value                   Tolerance       Converged
          ---------------------------------------------------------------------
          RMS gradient        0.0005062075            0.0001000000      NO
          MAX gradient        0.0036643827            0.0003000000      NO
          RMS step            0.0234260643            0.0020000000      NO
          MAX step            0.0859557165            0.0040000000      NO
          -------------------------------------------------------------------------
          ........................................................
          Max(Bonds)      0.0455      Max(Angles)    0.60
          Max(Dihed)        1.14      Max(Improp)    0.00
          ---------------------------------------------------------------------

The optimization has not yet converged - more geometry cycles are needed


    ---------------------------------------------------------------------------
                         Redundant Internal Coordinates
                            (Angstroem and degrees)

        Definition                    Value    dE/dq     Step     New-Value
    ----------------------------------------------------------------------------
     1. B(C   1,C   0)                1.3284 -0.000099  0.0002    1.3287   
     2. B(C   2,C   1)                1.4492 -0.000640  0.0006    1.4498   
     3. B(C   3,C   2)                1.3283 -0.000136  0.0003    1.3286   
     4. B(C   4,C   3)                2.7417 -0.000777  0.0334    2.7751   
     5. B(C   4,C   2)                2.9352 -0.000148  0.0250    2.9602   
     6. B(C   5,C   1)                2.9373 -0.000096  0.0252    2.9624   
     7. B(C   5,C   0)                2.7077 -0.000847  0.0364    2.7441   
     8. B(C   5,C   4)                1.3159 -0.003664  0.0024    1.3183   
     9. B(H   6,C   5)                3.0118 -0.001262  0.0428    3.0547   
    10. B(H   6,C   0)                1.0758  0.000996 -0.0011    1.0747   
    11. B(H   7,C   5)                2.8361 -0.001064  0.0375    2.8736   
    12. B(H   7,C   0)                1.0775  0.000418 -0.0005    1.0770   
    13. B(H   8,C   1)                1.0820  0.000251 -0.0004    1.0817   
    14. B(H   9,C   2)                1.0814  0.000255 -0.0004    1.0811   
    15. B(H  10,C   3)                1.0757  0.000783 -0.0008    1.0749   
    16. B(H  10,C   4)                3.0428 -0.001119  0.0368    3.0796   
    17. B(H  11,C   4)                2.8906 -0.000937  0.0348    2.9255   
    18. B(H  11,C   3)                1.0786  0.000410 -0.0005    1.0781   
    19. B(H  12,H   7)                2.3547 -0.001049  0.0409    2.3956   
    20. B(H  12,H   6)                2.8487 -0.000941  0.0408    2.8895   
    21. B(H  12,C   5)                1.0740 -0.000050  0.0000    1.0740   
    22. B(H  12,C   0)                2.5773 -0.000629  0.0351    2.6123   
    23. B(H  13,C   1)                3.0037 -0.000373  0.0252    3.0289   
    24. B(H  13,C   5)                1.0721  0.000473 -0.0007    1.0713   
    25. B(H  13,C   0)                2.8171 -0.000791  0.0347    2.8518   
    26. B(H  13,H   6)                2.7989 -0.001599  0.0455    2.8444   
    27. B(H  14,C   4)                1.0785 -0.000120  0.0001    1.0787   
    28. B(H  14,H  10)                2.8020 -0.000921  0.0369    2.8389   
    29. B(H  14,C   3)                2.5637 -0.000633  0.0328    2.5965   
    30. B(H  14,H  11)                2.3917 -0.000936  0.0377    2.4294   
    31. B(F  15,C   3)                2.9873 -0.000671  0.0323    3.0196   
    32. B(F  15,C   4)                1.3454  0.000319  0.0000    1.3455   
    33. B(F  15,H  10)                2.8798 -0.001405  0.0394    2.9192   
    34. A(C   5,C   0,H   6)           95.73 -0.000503    0.55     96.29   
    35. A(C   1,C   0,C   5)           86.26  0.000302   -0.35     85.92   
    36. A(C   1,C   0,H   7)          120.45 -0.000241    0.18    120.63   
    37. A(H   6,C   0,H   7)          116.69  0.000163   -0.07    116.62   
    38. A(C   1,C   0,H   6)          122.80  0.000059   -0.09    122.71   
    39. A(C   5,C   0,H   7)           85.58 -0.000210    0.22     85.81   
    40. A(C   0,C   1,H   8)          121.11  0.000206   -0.07    121.04   
    41. A(C   5,C   1,H   8)          106.03  0.000074   -0.12    105.91   
    42. A(C   2,C   1,H   8)          117.21  0.000256   -0.04    117.17   
    43. A(C   0,C   1,C   2)          120.59 -0.000547    0.21    120.80   
    44. A(C   2,C   1,C   5)           87.69 -0.000308    0.02     87.71   
    45. A(C   0,C   1,C   5)           66.91 -0.000301    0.60     67.51   
    46. A(C   1,C   2,C   4)           87.73 -0.000230    0.05     87.78   
    47. A(C   1,C   2,C   3)          120.86 -0.000474    0.21    121.08   
    48. A(C   3,C   2,H   9)          120.82  0.000177   -0.08    120.74   
    49. A(C   4,C   2,H   9)          104.34  0.000021   -0.10    104.23   
    50. A(C   1,C   2,H   9)          117.21  0.000222   -0.04    117.17   
    51. A(C   3,C   2,C   4)           68.46 -0.000253    0.48     68.94   
    52. A(C   4,C   3,H  11)           86.86 -0.000180    0.22     87.08   
    53. A(C   4,C   3,H  10)           95.69 -0.000405    0.35     96.04   
    54. A(C   2,C   3,C   4)           84.75  0.000255   -0.23     84.53   
    55. A(C   4,C   3,F  15)           26.72  0.000122   -0.31     26.42   
    56. A(H  10,C   3,H  11)          116.84  0.000141   -0.04    116.80   
    57. A(H  11,C   3,F  15)          110.25  0.000020   -0.13    110.12   
    58. A(C   2,C   3,H  11)          120.68 -0.000160    0.16    120.83   
    59. A(H  10,C   3,F  15)           73.84 -0.000417    0.50     74.34   
    60. A(C   2,C   3,H  10)          122.40  0.000002   -0.10    122.30   
    61. A(C   2,C   3,F  15)           84.04  0.000123   -0.11     83.93   
    62. A(C   3,C   4,F  15)           86.87 -0.000045    0.11     86.98   
    63. A(C   3,C   4,H  14)           69.12  0.000042    0.11     69.24   
    64. A(C   3,C   4,C   5)          112.52  0.000200   -0.22    112.29   
    65. A(C   2,C   4,F  15)           85.93 -0.000144    0.20     86.13   
    66. A(H  14,C   4,F  15)          111.81  0.000306   -0.19    111.62   
    67. A(C   2,C   4,H  14)           94.15  0.000022   -0.11     94.04   
    68. A(C   5,C   4,F  15)          121.67 -0.000083    0.08    121.75   
    69. A(C   2,C   4,C   3)           26.78 -0.000002   -0.25     26.53   
    70. A(C   2,C   4,C   5)           90.28  0.000234   -0.03     90.25   
    71. A(C   5,C   4,H  14)          126.52 -0.000225    0.10    126.63   
    72. A(H  12,C   5,H  13)          118.18  0.000441   -0.19    117.99   
    73. A(C   4,C   5,H  13)          120.75 -0.000098    0.02    120.77   
    74. A(C   4,C   5,H  12)          121.06 -0.000340    0.17    121.23   
    75. A(C   0,C   5,H  13)           84.61 -0.000075    0.07     84.68   
    76. A(C   0,C   5,H  12)           71.53  0.000076    0.09     71.61   
    77. A(C   0,C   5,C   1)           26.83 -0.000001   -0.25     26.57   
    78. A(C   1,C   5,H  13)           83.12 -0.000201    0.10     83.22   
    79. A(C   1,C   5,H  12)           95.56  0.000034   -0.10     95.45   
    80. A(C   1,C   5,C   4)           90.14  0.000274   -0.01     90.14   
    81. A(C   0,C   5,C   4)          112.47  0.000235   -0.21    112.26   
    82. A(C   3,F  15,C   4)           66.41 -0.000077    0.19     66.60   
    83. D(C   5,C   1,C   0,H   7)     82.65 -0.000030    0.02     82.68   
    84. D(H   8,C   1,C   0,H   6)      0.93  0.000249   -0.22      0.72   
    85. D(C   2,C   1,C   0,H   7)     10.29  0.000258   -0.33      9.96   
    86. D(C   5,C   1,C   0,H   6)    -94.42  0.000406   -0.44    -94.86   
    87. D(C   2,C   1,C   0,C   5)    -72.36  0.000287   -0.35    -72.72   
    88. D(C   2,C   1,C   0,H   6)   -166.78  0.000693   -0.79   -167.57   
    89. D(H   8,C   1,C   0,C   5)     95.35 -0.000157    0.22     95.57   
    90. D(H   8,C   1,C   0,H   7)    178.00 -0.000187    0.24    178.25   
    91. D(H   9,C   2,C   1,C   0)    -33.73 -0.000454    0.68    -33.05   
    92. D(C   3,C   2,C   1,C   5)     73.05 -0.000451    0.46     73.51   
    93. D(H   9,C   2,C   1,C   5)    -95.06 -0.000074    0.01    -95.05   
    94. D(H   9,C   2,C   1,H   8)    158.09 -0.000025    0.14    158.23   
    95. D(C   3,C   2,C   1,C   0)    134.38 -0.000831    1.14    135.51   
    96. D(C   4,C   2,C   1,C   0)     71.23 -0.000529    0.59     71.83   
    97. D(C   3,C   2,C   1,H   8)    -33.80 -0.000402    0.59    -33.21   
    98. D(C   4,C   3,C   2,C   1)    -73.41  0.000209   -0.30    -73.70   
    99. D(H  11,C   3,C   2,H   9)    177.46 -0.000211    0.28    177.74   
   100. D(H  10,C   3,C   2,H   9)      0.85  0.000139   -0.10      0.75   
   101. D(H  10,C   3,C   2,C   4)    -93.42  0.000320   -0.28    -93.70   
   102. D(H  11,C   3,C   2,C   4)     83.19 -0.000030    0.10     83.29   
   103. D(H  11,C   3,C   2,C   1)      9.79  0.000178   -0.20      9.59   
   104. D(C   4,C   3,C   2,H   9)     94.27 -0.000181    0.18     94.45   
   105. D(H  10,C   3,C   2,C   1)   -166.82  0.000529   -0.58   -167.40   
   106. D(H  14,C   4,C   2,C   3)    -20.49 -0.000113    0.06    -20.43   
   107. D(H  14,C   4,C   2,C   1)    104.10 -0.000447    0.12    104.22   
   108. D(C   5,C   4,C   2,H   9)     94.96 -0.000074   -0.01     94.95   
   109. D(C   5,C   4,C   2,C   3)   -147.15  0.000090   -0.03   -147.18   
   110. D(H  14,C   4,C   2,H   9)   -138.38 -0.000276    0.08   -138.30   
   111. D(C   5,C   4,C   2,C   1)    -22.57 -0.000244    0.03    -22.54   
   112. D(F  15,C   4,C   2,C   3)     91.12  0.000187   -0.11     91.01   
   113. D(F  15,C   4,C   3,H  10)     34.95  0.000267   -0.33     34.62   
   114. D(F  15,C   4,C   3,C   2)    -87.17  0.000232   -0.20    -87.37   
   115. D(H  14,C   4,C   3,F  15)   -114.77 -0.000346    0.28   -114.49   
   116. D(H  14,C   4,C   3,H  10)    -79.82 -0.000078   -0.05    -79.87   
   117. D(C   5,C   4,C   3,F  15)    123.12 -0.000071    0.10    123.22   
   118. D(C   5,C   4,C   3,H  11)    -85.25  0.000327   -0.26    -85.51   
   119. D(C   5,C   4,C   3,H  10)    158.08  0.000196   -0.23    157.84   
   120. D(H  14,C   4,C   3,H  11)     36.85  0.000053   -0.07     36.78   
   121. D(C   5,C   4,C   3,C   2)     35.96  0.000160   -0.10     35.86   
   122. D(F  15,C   4,C   2,H   9)    -26.77  0.000023   -0.09    -26.86   
   123. D(H  14,C   4,C   3,C   2)    158.06 -0.000114    0.08    158.14   
   124. D(F  15,C   4,C   3,H  11)    151.63  0.000399   -0.35    151.27   
   125. D(F  15,C   4,C   2,C   1)   -144.30 -0.000147   -0.05   -144.35   
   126. D(H  13,C   5,C   1,C   2)   -143.52 -0.000118    0.02   -143.51   
   127. D(H  13,C   5,C   1,C   0)     91.66  0.000234   -0.00     91.66   
   128. D(H  12,C   5,C   1,H   8)   -143.64 -0.000368    0.15   -143.48   
   129. D(H  12,C   5,C   1,C   0)    -26.13 -0.000199    0.18    -25.95   
   130. D(C   4,C   5,C   1,H   8)     95.13 -0.000059   -0.01     95.11   
   131. D(C   4,C   5,C   1,C   2)    -22.55 -0.000241    0.03    -22.52   
   132. D(C   1,C   5,C   0,H   7)   -120.96  0.000257   -0.20   -121.16   
   133. D(C   1,C   5,C   0,H   6)    122.61  0.000090   -0.12    122.49   
   134. D(H  13,C   5,C   0,H   7)    153.63  0.000556   -0.27    153.36   
   135. D(H  13,C   5,C   0,H   6)     37.21  0.000389   -0.20     37.01   
   136. D(C   4,C   5,C   1,C   0)   -147.36  0.000110    0.01   -147.35   
   137. D(H  13,C   5,C   0,C   1)    -85.41  0.000299   -0.07    -85.48   
   138. D(H  12,C   5,C   0,H   7)     31.52  0.000060    0.00     31.52   
   139. D(H  12,C   5,C   0,H   6)    -84.91 -0.000106    0.08    -84.83   
   140. D(H  12,C   5,C   1,C   2)     98.69 -0.000550    0.20     98.88   
   141. D(H  12,C   5,C   0,C   1)    152.48 -0.000196    0.20    152.68   
   142. D(C   4,C   5,C   0,H   7)    -85.25  0.000449   -0.25    -85.50   
   143. D(C   4,C   5,C   0,H   6)    158.32  0.000283   -0.18    158.14   
   144. D(H  13,C   5,C   1,H   8)    -25.85  0.000064   -0.03    -25.88   
   145. D(C   4,C   5,C   0,C   1)     35.71  0.000193   -0.05     35.65   
   146. D(C   0,C   5,C   4,C   2)     -4.37 -0.000003    0.05     -4.31   
   147. D(C   0,C   5,C   4,F  15)     81.02 -0.000024    0.26     81.29   
   148. D(C   0,C   5,C   4,H  14)    -99.75 -0.000187    0.21    -99.54   
   149. D(H  13,C   5,C   4,C   2)     92.98  0.000007    0.01     92.99   
   150. D(H  13,C   5,C   4,C   3)     77.63 -0.000052    0.18     77.82   
   151. D(H  13,C   5,C   4,F  15)    178.37 -0.000014    0.22    178.59   
   152. D(H  13,C   5,C   4,H  14)     -2.40 -0.000177    0.16     -2.24   
   153. D(H  12,C   5,C   4,C   2)    -85.67 -0.000112    0.01    -85.66   
   154. D(H  12,C   5,C   4,C   3)   -101.02 -0.000172    0.18   -100.83   
   155. D(H  12,C   5,C   4,F  15)     -0.28 -0.000133    0.22     -0.06   
   156. D(C   0,C   5,C   4,C   3)    -19.71 -0.000063    0.23    -19.48   
   157. D(H  12,C   5,C   4,H  14)    178.95 -0.000296    0.16    179.11   
   158. D(C   0,C   5,C   1,C   2)    124.82 -0.000352    0.02    124.83   
   159. D(C   3,F  15,C   4,C   2)    -26.82  0.000003    0.25    -26.57   
   160. D(C   3,F  15,C   4,H  14)     66.03 -0.000047    0.22     66.25   
   161. D(C   3,F  15,C   4,C   5)   -114.64 -0.000192    0.17   -114.46   
   162. D(C   4,F  15,C   3,H  11)    -30.38  0.000434   -0.36    -30.75   
   163. D(C   4,F  15,C   3,H  10)   -143.59  0.000401   -0.48   -144.08   
   164. D(C   4,F  15,C   3,C   2)     90.16  0.000310   -0.25     89.92   
    ----------------------------------------------------------------------------

Geometry step timings:
Preparation and reading OPT file:      0.000 s ( 0.121 %)
Internal coordinates            :      0.000 s ( 0.130 %)
B/P matrices and projection     :      0.001 s ( 2.153 %)
Hessian update/contruction      :      0.001 s ( 2.122 %)
Making the step                 :      0.003 s ( 4.354 %)
Converting the step to Cartesian:      0.000 s ( 0.257 %)
Storing new data                :      0.000 s ( 0.178 %)
Checking convergence            :      0.000 s ( 0.150 %)
Final printing                  :      0.062 s (90.525 %)
Total time                      :      0.069 s

Time for energy+gradient        :      0.116 s
Time for complete geometry iter :      0.187 s

         *************************************************************
         *                GEOMETRY OPTIMIZATION CYCLE   2            *
         *************************************************************
---------------------------------
CARTESIAN COORDINATES (ANGSTROEM)
---------------------------------
  C     0.072703    0.093665   -0.067705
  C     1.322389    0.035150   -0.515134
  C     2.175609    1.207089   -0.489992
  C     3.435261    1.129469   -0.074886
  C     2.309690    0.904466    2.451683
  C     1.183644    0.219048    2.438321
  H    -0.521883   -0.783584    0.110888
  H    -0.380492    1.040800    0.172067
  H     1.793510   -0.914264   -0.731259
  H     1.700363    2.166890   -0.637106
  H     4.023829    2.002643    0.140856
  H     3.899199    0.173486    0.106999
  H     0.230529    0.713307    2.465168
  H     1.193833   -0.850568    2.378557
  H     3.309512    0.499825    2.441019
  F     2.319578    2.249075    2.498051

----------------------------
CARTESIAN COORDINATES (A.U.)
----------------------------
  NO LB    ZA    FRAG    MASS        X           Y           Z
   0 C   6.0000    0    12.011    0.137388    0.177001   -0.127944
   1 C   6.0000    0    12.011    2.498954    0.066423   -0.973462
   2 C   6.0000    0    12.011    4.111305    2.281068   -0.925951
   3 C   6.0000    0    12.011    6.491702    2.134387   -0.141513
   4 C   6.0000    0    12.011    4.364681    1.709192    4.633009
   5 C   6.0000    0    12.011    2.236763    0.413940    4.607759
   6 H   1.0000    0     1.008   -0.986215   -1.480759    0.209548
   7 H   1.0000    0     1.008   -0.719026    1.966827    0.325160
   8 H   1.0000    0     1.008    3.389243   -1.727709   -1.381879
   9 H   1.0000    0     1.008    3.213220    4.094828   -1.203956
  10 H   1.0000    0     1.008    7.603935    3.784447    0.266180
  11 H   1.0000    0     1.008    7.368419    0.327841    0.202198
  12 H   1.0000    0     1.008    0.435637    1.347955    4.658493
  13 H   1.0000    0     1.008    2.256018   -1.607340    4.494820
  14 H   1.0000    0     1.008    6.254071    0.944533    4.612858
  15 F   9.0000    0    18.998    4.383367    4.250136    4.720633

      -----------------------------------------------------------      
     |                   =====================                   |     
     |                           x T B                           |     
     |                   =====================                   |     
     |                         S. Grimme                         |     
     |          Mulliken Center for Theoretical Chemistry        |     
     |                    University of Bonn                     |     
      -----------------------------------------------------------      

   * xtb version 6.7.1 (edcfbbe) compiled by 'albert@albert-system' on 2024-07-22

   xtb is free software: you can redistribute it and/or modify it under
   the terms of the GNU Lesser General Public License as published by
   the Free Software Foundation, either version 3 of the License, or
   (at your option) any later version.
   
   xtb is distributed in the hope that it will be useful,
   but WITHOUT ANY WARRANTY; without even the implied warranty of
   MERCHANTABILITY or FITNESS FOR A PARTICULAR PURPOSE.  See the
   GNU Lesser General Public License for more details.
   
   Cite this work as:
   * C. Bannwarth, E. Caldeweyher, S. Ehlert, A. Hansen, P. Pracht,
     J. Seibert, S. Spicher, S. Grimme, WIREs Comput. Mol. Sci., 2020, 11,
     e01493. DOI: 10.1002/wcms.1493
   
   for GFN2-xTB:
   * C. Bannwarth, S. Ehlert and S. Grimme., J. Chem. Theory Comput., 2019,
     15, 1652-1671. DOI: 10.1021/acs.jctc.8b01176
   for GFN1-xTB:
   * S. Grimme, C. Bannwarth, P. Shushkov, J. Chem. Theory Comput., 2017,
     13, 1989-2009. DOI: 10.1021/acs.jctc.7b00118
   for GFN0-xTB:
   * P. Pracht, E. Caldeweyher, S. Ehlert, S. Grimme, ChemRxiv, 2019, preprint.
     DOI: 10.26434/chemrxiv.8326202.v1
   for GFN-FF:
   * S. Spicher and S. Grimme, Angew. Chem. Int. Ed., 2020, 59, 15665-15673.
     DOI: 10.1002/anie.202004239
   
   for ALPB and GBSA implicit solvation:
   * S. Ehlert, M. Stahn, S. Spicher, S. Grimme, J. Chem. Theory Comput.,
     2021, 17, 4250-4261. DOI: 10.1021/acs.jctc.1c00471
   
   for ddCOSMO and CPCM-X implicit solvation:
   * M. Stahn, S. Ehlert, S. Grimme, J. Phys. Chem. A,
     2023, XX, XXXX-XXXX. DOI: 10.1021/acs.jpca.3c04382
   
   for DFT-D4:
   * E. Caldeweyher, C. Bannwarth and S. Grimme, J. Chem. Phys., 2017,
     147, 034112. DOI: 10.1063/1.4993215
   * E. Caldeweyher, S. Ehlert, A. Hansen, H. Neugebauer, S. Spicher,
     C. Bannwarth and S. Grimme, J. Chem. Phys., 2019, 150, 154122.
     DOI: 10.1063/1.5090222
   * E. Caldeweyher, J.-M. Mewes, S. Ehlert and S. Grimme, Phys. Chem. Chem. Phys.
     2020, 22, 8499-8512. DOI: 10.1039/D0CP00502A
   
   for sTDA-xTB:
   * S. Grimme and C. Bannwarth, J. Chem. Phys., 2016, 145, 054103.
     DOI: 10.1063/1.4959605
   
   in the mass-spec context:
   * V. Asgeirsson, C. Bauer and S. Grimme, Chem. Sci., 2017, 8, 4879.
     DOI: 10.1039/c7sc00601b
   * J. Koopman and S. Grimme, ACS Omega 2019, 4, 12, 15120-15133.
     DOI: 10.1021/acsomega.9b02011
   
   for metadynamics refer to:
   * S. Grimme, J. Chem. Theory Comput., 2019, 155, 2847-2862
     DOI: 10.1021/acs.jctc.9b00143
   
   for SPH calculations refer to:
   * S. Spicher and S. Grimme, J. Chem. Theory Comput., 2021, 17, 1701-1714
     DOI: 10.1021/acs.jctc.0c01306
   
   for ONIOM refer to:
   * C. Plett, A. Katbashev, S. Ehlert, S. Grimme, M. Bursch,
     Phys. Chem. Chem. Phys., 2023, 25, 17860-17868. DOI: 10.1039/D3CP02178E
   
   for DIPRO refer to:
   * J. Kohn, N. Gildemeister, S. Grimme, D. Fazzi, A. Hansen,
     J. Chem. Phys., 2023, just accepted.
   
   for PTB refer to:
   * S. Grimme, M. Mueller, A. Hansen, J. Chem. Phys., 2023, 158, 124111.
     DOI: 10.1063/5.0137838
   
   with help from (in alphabetical order)
   P. Atkinson, C. Bannwarth, F. Bohle, G. Brandenburg, E. Caldeweyher
   M. Checinski, S. Dohm, S. Ehlert, S. Ehrlich, I. Gerasimov, C. Hölzer
   A. Katbashev, J. Kohn, J. Koopman, C. Lavigne, S. Lehtola, F. März, M. Müller,
   F. Musil, H. Neugebauer, J. Pisarek, C. Plett, P. Pracht, F. Pultar,
   J. Seibert, P. Shushkov, S. Spicher, M. Stahn, M. Steiner, T. Strunk,
   J. Stückrath, T. Rose, and J. Unsleber
   
 * started run on 2026/03/16 at 14:14:31.753     
   ID    Z sym.   atoms
    1    6 C      1-6
    2    1 H      7-15
    3    9 F      16

           -------------------------------------------------
          |                Calculation Setup                |
           -------------------------------------------------

          program call               : /software/orca-6.1.0-el8-x86_64/bin/otool_xtb reactant_optfreq_XTB.xyz --grad -c 0 -u 0 -P 8 --namespace reactant_optfreq --input reactant_optfreq_XTB.input.tmp --acc 0.200000
          hostname                   : midway3-login4.rcc.local
          calculation namespace      : reactant_optfreq
          coordinate file            : reactant_optfreq_XTB.xyz
          omp threads                :                     8


molecular fragmentation (1/2 indicates fragments):
1111221111112222
# atoms in fragment 1/2:    10     6
 fragment masses (1/2) :       54.09       46.04
CMA distance (Bohr)    :   5.315
constraining FC (au)   :  0.0500

           -------------------------------------------------
          |                 G F N 2 - x T B                 |
           -------------------------------------------------

        Reference                      10.1021/acs.jctc.8b01176
      * Hamiltonian:
        H0-scaling (s, p, d)           1.850000    2.230000    2.230000
        zeta-weighting                 0.500000
      * Dispersion:
        s8                             2.700000
        a1                             0.520000
        a2                             5.000000
        s9                             5.000000
      * Repulsion:
        kExp                           1.500000    1.000000
        rExp                           1.000000
      * Coulomb:
        alpha                          2.000000
        third order                    shell-resolved
        anisotropic                    true
        a3                             3.000000
        a5                             4.000000
        cn-shift                       1.200000
        cn-exp                         4.000000
        max-rad                        5.000000

q/qsh data taken from xtbrestart
CAMM data taken from xtbrestart

          ...................................................
          :                      SETUP                      :
          :.................................................:
          :  # basis functions                  37          :
          :  # atomic orbitals                  37          :
          :  # shells                           23          :
          :  # electrons                        40          :
          :  max. iterations                   250          :
          :  Hamiltonian                  GFN2-xTB          :
          :  restarted?                       true          :
          :  GBSA solvation                  false          :
          :  PC potential                    false          :
          :  electronic temp.          300.0000000     K    :
          :  accuracy                    0.2000000          :
          :  -> integral cutoff          0.3198970E+02      :
          :  -> integral neglect         0.2000000E-08      :
          :  -> SCF convergence          0.2000000E-06 Eh   :
          :  -> wf. convergence          0.2000000E-04 e    :
          :  Broyden damping             0.4000000          :
          :  net charge                          0          :
          :  unpaired electrons                  0          :
          ...................................................

 iter      E             dE          RMSdq      gap      omega  full diag
   1    -22.4005756 -0.224006E+02  0.658E-02    4.04       0.0  T
   2    -22.4005763 -0.704756E-06  0.390E-02    4.04       1.0  T
   3    -22.4005733  0.300799E-05  0.159E-02    4.04       1.6  T
   4    -22.4005767 -0.337770E-05  0.211E-03    4.04      11.8  T
   5    -22.4005767 -0.232507E-07  0.105E-03    4.04      23.9  T
   6    -22.4005767 -0.109245E-07  0.380E-04    4.04      65.8  T
   7    -22.4005767 -0.746169E-09  0.962E-05    4.04     259.9  T
   8    -22.4005767 -0.316192E-11  0.394E-05    4.04     635.0  T

   *** convergence criteria satisfied after 8 iterations ***

         #    Occupation            Energy/Eh            Energy/eV
      -------------------------------------------------------------
         1        2.0000           -0.8118294             -22.0910
       ...           ...                  ...                  ...
        14        2.0000           -0.4678801             -12.7317
        15        2.0000           -0.4573524             -12.4452
        16        2.0000           -0.4545304             -12.3684
        17        2.0000           -0.4447706             -12.1028
        18        2.0000           -0.4282946             -11.6545
        19        2.0000           -0.4083482             -11.1117
        20        2.0000           -0.3908320             -10.6351 (HOMO)
        21                         -0.2423735              -6.5953 (LUMO)
        22                         -0.2158095              -5.8725
        23                         -0.1650800              -4.4921
        24                          0.0700122               1.9051
        25                          0.1062349               2.8908
       ...                                ...                  ...
        37                          0.6503691              17.6974
      -------------------------------------------------------------
                  HL-Gap            0.1484586 Eh            4.0398 eV
             Fermi-level           -0.3166027 Eh           -8.6152 eV

 SCC (total)                   0 d,  0 h,  0 min,  0.106 sec
 SCC setup                      ...        0 min,  0.000 sec (  0.332%)
 Dispersion                     ...        0 min,  0.000 sec (  0.128%)
 classical contributions        ...        0 min,  0.000 sec (  0.034%)
 integral evaluation            ...        0 min,  0.000 sec (  0.452%)
 iterations                     ...        0 min,  0.104 sec ( 97.795%)
 molecular gradient             ...        0 min,  0.001 sec (  1.059%)
 printout                       ...        0 min,  0.000 sec (  0.174%)

         :::::::::::::::::::::::::::::::::::::::::::::::::::::
         ::                     SUMMARY                     ::
         :::::::::::::::::::::::::::::::::::::::::::::::::::::
         :: total energy             -22.047870329011 Eh    ::
         :: gradient norm              0.009358751206 Eh/a0 ::
         :: HOMO-LUMO gap              4.039763331690 eV    ::
         ::.................................................::
         :: SCC energy               -22.400536484582 Eh    ::
         :: -> isotropic ES            0.013212211164 Eh    ::
         :: -> anisotropic ES          0.003116137411 Eh    ::
         :: -> anisotropic XC          0.013524592222 Eh    ::
         :: -> dispersion             -0.010961104621 Eh    ::
         :: repulsion energy           0.352666155571 Eh    ::
         :: add. restraining           0.000000000000 Eh    ::
         :: total charge               0.000000000000 e     ::
         :::::::::::::::::::::::::::::::::::::::::::::::::::::


Property printout bound to 'properties.out'

           -------------------------------------------------
          | TOTAL ENERGY              -22.047870329011 Eh   |
          | GRADIENT NORM               0.009358751206 Eh/α |
          | HOMO-LUMO GAP               4.039763331690 eV   |
           -------------------------------------------------

------------------------------------------------------------------------
 * finished run on 2026/03/16 at 14:14:31.886     
------------------------------------------------------------------------
 total:
 * wall-time:     0 d,  0 h,  0 min,  0.132 sec
 *  cpu-time:     0 d,  0 h,  0 min,  0.356 sec
 * ratio c/w:     2.692 speedup
 SCF:
 * wall-time:     0 d,  0 h,  0 min,  0.106 sec
 *  cpu-time:     0 d,  0 h,  0 min,  0.269 sec
 * ratio c/w:     2.534 speedup


-------------------------   --------------------
FINAL SINGLE POINT ENERGY       -22.047870329010
-------------------------   --------------------


-------------
DIPOLE MOMENT
-------------
                                X             Y             Z
Total Dipole Moment    :     -0.05800      -0.72500      -0.09800
                        -----------------------------------------
Magnitude (a.u.)       :      0.73389
Magnitude (Debye)      :      1.86540


------------------
CARTESIAN GRADIENT
------------------

   1   C   :    0.000169791   -0.000098475    0.002323653
   2   C   :    0.000544182   -0.000497590   -0.000875125
   3   C   :   -0.000529607    0.000486905   -0.000963582
   4   C   :   -0.000095201   -0.000116046    0.002041227
   5   C   :    0.001999468    0.000689872   -0.002131206
   6   C   :   -0.002173480   -0.001535575   -0.002035134
   7   H   :    0.001752568    0.000835469    0.003708260
   8   H   :    0.001184285   -0.000071709    0.001319374
   9   H   :    0.000063170    0.000075199   -0.000310818
  10   H   :   -0.000049401   -0.000053920   -0.000274162
  11   H   :   -0.001635431   -0.000750197    0.003530026
  12   H   :   -0.001076187   -0.000004359    0.001233913
  13   H   :   -0.000136510    0.000047210   -0.001701300
  14   H   :   -0.000575762    0.000491937   -0.002454381
  15   H   :    0.000192789    0.000032759   -0.001641124
  16   F   :    0.000365326    0.000468520   -0.001769619

Difference to translation invariance:
           :    0.0000000000    0.0000000000    0.0000000000

Difference to rotation invariance:
           :    0.0000001311    0.0000000049   -0.0000001861

Norm of the Cartesian gradient     ...    0.0093587512
RMS gradient                       ...    0.0013508194
MAX gradient                       ...    0.0037082601
------------------------------------------------------------------------------
                         ORCA GEOMETRY RELAXATION STEP
------------------------------------------------------------------------------

Reading the OPT-File                    .... done
Getting information on internals        .... done
Copying old internal coords+grads       .... done
Making the new internal coordinates     .... (2022 redundants) done
Validating the new internal coordinates .... (2022 redundants) done
Calculating the B-matrix                .... done
Calculating the G,G- and P matrices     .... done
Transforming gradient to internals      .... done
Projecting the internal gradient        .... done
Number of atoms                         ....  16
Number of internal coordinates          .... 164
Current Energy                          ....   -22.047870329 Eh
Current gradient norm                   ....     0.009358751 Eh/bohr
Maximum allowed component of the step   ....  0.300
Current trust radius                    ....  0.300
Updating the Hessian (BFGS)             .... done
Forming the augmented Hessian           .... done
Diagonalizing the augmented Hessian     .... done
Last element of RFO vector              ....  0.786466676
Lowest eigenvalues of augmented Hessian:
 -0.003044156  0.004689534  0.014077313  0.018561546  0.026697154
Length of the computed step             ....  0.785325980
Warning: the length of the step is outside the trust region - taking restricted step instead
The input lambda is                     ....     0.000752
   iter:   5  x=   -0.005186  g=  245.793018 f(x)=     0.509708
   iter:  10  x=   -0.010890  g=   14.065664 f(x)=     0.000040
The output lambda is                    ....    -0.010890 (12 iterations)
The final length of the internal step   ....  0.300000000
Converting the step to Cartesian space:
 Initial RMS(Int)=    0.0234260643
Transforming coordinates:
 Iter   0:  RMS(Cart)=    0.0212284938 RMS(Int)=    0.0234667498
done
Storing new coordinates                 .... done
The predicted energy change is          ....    -0.001090251
Previously predicted energy change      ....    -0.000757946
Actually observed energy change         ....    -0.001218411
Ratio of predicted to observed change   ....     1.607516399
New trust radius                        ....     0.200000000

[...]
     44       0.005388   0.000317   0.002115   0.000522   0.000420  -0.000049
     45      -0.020453  -0.000852  -0.000045   0.003945   0.000212  -0.000027
     46       0.007370   0.000786  -0.000293   0.017672   0.000142   0.000103
     47       0.000342  -0.000019   0.000082  -0.000057  -0.000031   0.000024
                 36         37         38         39         40         41    
      0      -0.343825   0.308137   0.004926   0.001810  -0.002419   0.000919
      1       0.002447  -0.011062   0.000174  -0.007090   0.007947  -0.000803
      2       0.001323  -0.001340  -0.000322  -0.000190   0.000214  -0.000034
      3       0.319820  -0.392524  -0.004803  -0.036866   0.016193  -0.000759
      4       0.012935  -0.059136   0.000160   0.064163  -0.025732   0.001018
      5      -0.000903  -0.000762   0.000008   0.001902  -0.000744   0.000047
      6       0.334281   0.379491  -0.003164   0.012778   0.038144  -0.000617
      7       0.014653   0.057996  -0.000654  -0.024051  -0.064744   0.000550
      8       0.003601   0.004048   0.000210  -0.000407  -0.001124  -0.000022
      9      -0.355360  -0.294504   0.003048   0.000147  -0.005520   0.003006
     10       0.003158   0.011495   0.000550  -0.000207   0.013763  -0.002645
     11      -0.003522  -0.002707   0.000270  -0.000002   0.000225   0.000007
     12      -0.004346   0.001456  -0.411660   0.001081  -0.001702  -0.078018
     13      -0.002791   0.000456  -0.340832  -0.000229   0.000335   0.024657
     14      -0.000277   0.000068   0.007121  -0.000010   0.000102   0.001334
     15       0.004350  -0.001441   0.424729  -0.000232  -0.000216   0.008755
     16       0.002552  -0.000452   0.254504  -0.000395   0.000534  -0.003266
     17      -0.000023   0.000154  -0.007341  -0.000018  -0.000001  -0.000158
     18       0.094990  -0.076827  -0.000941   0.044555  -0.027545  -0.001703
     19      -0.305565   0.256476   0.003033   0.059362  -0.033984  -0.003609
     20      -0.007988   0.007758   0.001541   0.001415  -0.000839  -0.000050
     21       0.178849  -0.139554  -0.002322  -0.035775   0.038326  -0.007536
     22       0.301881  -0.264535  -0.004151   0.053601  -0.068948   0.013979
     23       0.007106  -0.006670   0.000829   0.001572  -0.001882   0.000505
     24      -0.005146   0.190283   0.001896   0.432177  -0.164610   0.007273
     25      -0.190016   0.262980   0.002220  -0.815028   0.306077  -0.013487
     26      -0.004979   0.008038   0.000416  -0.023859   0.009060  -0.000434
     27      -0.011649  -0.187577  -0.000794  -0.168125  -0.427907   0.003909
     28      -0.199030  -0.253860  -0.000099   0.321838   0.807027  -0.007153
     29      -0.003615  -0.003344  -0.001565   0.005781   0.014474   0.000100
     30       0.097915   0.074579   0.002188  -0.010529  -0.047900  -0.007340
     31      -0.314759  -0.245025  -0.000360  -0.015696  -0.058887  -0.013806
     32      -0.004408  -0.002750  -0.000955  -0.000462  -0.001765  -0.000411
     33       0.183302   0.131819   0.000279   0.001334   0.076791  -0.024832
     34       0.311497   0.252417  -0.002527   0.004919  -0.131775   0.046367
     35       0.008921   0.007382  -0.001646   0.000163  -0.001821   0.000805
     36       0.001759  -0.001963   0.119792   0.001286   0.003628  -0.069106
     37      -0.003833  -0.000785  -0.390921  -0.000794  -0.002007   0.031811
     38       0.000733  -0.001918  -0.000819  -0.000132   0.000070   0.000972
     39      -0.003229   0.000380  -0.273136  -0.000060   0.000018   0.003025
     40       0.003346  -0.001055   0.280692   0.004355  -0.002974   0.058379
     41       0.001305   0.000562   0.003367   0.000141  -0.000293   0.000040
     42      -0.001639   0.002114  -0.207872  -0.011535   0.019911   0.911829
     43       0.004053   0.001003   0.321202   0.004937  -0.008523  -0.385642
     44      -0.000902  -0.001814   0.004145   0.000073  -0.000469  -0.015835
     45       0.000106  -0.000031   0.010883   0.000014  -0.000038  -0.001092
     46      -0.000013   0.000040   0.043339  -0.000057   0.000161   0.002158
     47       0.000078  -0.000044  -0.000248   0.000006  -0.000038   0.000016
                 42         43         44         45         46         47    
      0      -0.006912   0.059555   0.019982   0.005296   0.000787  -0.000064
      1       0.006280  -0.024193   0.086963   0.027241   0.000026  -0.001136
      2       0.000184  -0.000805   0.002201   0.000693   0.000014  -0.000025
      3       0.001641  -0.002068  -0.005159  -0.003305  -0.000060   0.000350
      4      -0.003156  -0.003530   0.011229   0.005378   0.000082  -0.000653
      5      -0.000094  -0.000086   0.000324   0.000163  -0.000023  -0.000029
      6       0.000589   0.000742   0.000258  -0.006977   0.000124   0.000319
      7      -0.008082  -0.003711  -0.001434   0.012803  -0.000177  -0.000577
      8      -0.000182  -0.000079  -0.000031   0.000218   0.000006   0.000005
      9       0.055560   0.007764  -0.009977   0.027779   0.000472  -0.000012
     10      -0.036898  -0.002495  -0.025154   0.082460   0.000504  -0.000962
     11      -0.000134   0.000034  -0.000626   0.001995   0.000016  -0.000034
     12       0.003834   0.001600  -0.000103  -0.000249  -0.000872   0.010002
     13      -0.001310  -0.000445   0.000084   0.000399  -0.004094  -0.004796
     14      -0.000030  -0.000017  -0.000016  -0.000051   0.000010  -0.000166
     15      -0.000809  -0.001215   0.000233  -0.000094   0.064712   0.034075
     16       0.000618   0.000209  -0.000856  -0.001377   0.013027  -0.088370
     17       0.000012  -0.000008  -0.000001  -0.000013  -0.000830  -0.000492
     18       0.018599  -0.272474  -0.471254  -0.138556  -0.005297   0.004787
     19       0.034632  -0.444873  -0.664805  -0.195743  -0.008310   0.006822
     20       0.000826  -0.010796  -0.015969  -0.004713  -0.000185   0.000099
     21       0.059218  -0.391720   0.250517   0.085048  -0.004352  -0.004524
     22      -0.111696   0.741658  -0.403843  -0.138031   0.008209   0.007139
     23      -0.003086   0.020469  -0.011200  -0.003838   0.000406   0.000197
     24      -0.018802  -0.017054   0.045190   0.028421   0.000961  -0.003773
     25       0.038367   0.035715  -0.090293  -0.060740  -0.001702   0.007591
     26       0.001118   0.001110  -0.002637  -0.001782   0.000171   0.000268
     27      -0.042518  -0.019995   0.000295   0.057620  -0.001658  -0.003208
     28       0.084823   0.040920  -0.004172  -0.116954   0.003079   0.006412
     29       0.001632   0.000739  -0.000078  -0.002155   0.000085  -0.000073
     30      -0.197842  -0.036611   0.164452  -0.498637  -0.005199   0.003723
     31      -0.340296  -0.059277   0.235369  -0.713943  -0.007503   0.005125
     32      -0.009132  -0.001607   0.006671  -0.020224  -0.000199   0.000172
     33      -0.424885  -0.048333  -0.050085   0.194539  -0.000311  -0.004193
     34       0.793018   0.090111   0.074576  -0.298582   0.001010   0.006838
     35       0.011573   0.001313   0.001008  -0.004050   0.000079   0.000137
     36       0.007866   0.013480  -0.003354  -0.000277  -0.745685  -0.457522
     37      -0.004121  -0.006811   0.001815  -0.000248   0.406186   0.214824
     38      -0.000102   0.000192  -0.000216  -0.000048   0.009445   0.005822
     39      -0.000253  -0.000316   0.000391  -0.000097   0.022818   0.011836
     40      -0.005447   0.002731   0.008659   0.016107  -0.521571   0.852959
     41       0.000097  -0.000084   0.000265   0.000320  -0.000900   0.000804
     42      -0.044355  -0.018088   0.001422   0.004669  -0.037099  -0.078361
     43       0.018909   0.007356  -0.000651  -0.001753   0.016786   0.034680
     44       0.000377   0.000199  -0.000112   0.000026   0.000678   0.001354
     45       0.000036   0.000010   0.000003  -0.000012  -0.000033  -0.000055
     46      -0.000064  -0.000023  -0.000036  -0.000120  -0.000415   0.000393
     47      -0.000021  -0.000005   0.000011   0.000036   0.000001   0.000003


The first frequency considered to be a vibration is 6
The total number of vibrations considered is 42


--------------------------
THERMOCHEMISTRY AT 298.15K
--------------------------

Temperature         ...   298.15 K
Pressure            ...     1.00 atm
Total Mass          ...   100.14 AMU
Quasi RRHO          ...     True
Cut-Off Frequency   ...     1.00 cm^-1

Throughout the following assumptions are being made:
  (1) The electronic state is orbitally nondegenerate
  (2) There are no thermally accessible electronically excited states
  (3) Hindered rotations indicated by low frequency modes are not
      treated as such but are treated as vibrations and this may
      cause some error
  (4) All equations used are the standard statistical mechanics
      equations for an ideal gas
  (5) All vibrations are strictly harmonic

freq.       9.25  E(vib)   ...       0.58 
freq.      18.34  E(vib)   ...       0.57 
freq.      29.66  E(vib)   ...       0.55 
freq.      39.99  E(vib)   ...       0.54 
freq.      56.65  E(vib)   ...       0.52 
freq.      65.74  E(vib)   ...       0.50 
freq.     145.66  E(vib)   ...       0.41 
freq.     296.65  E(vib)   ...       0.27 
freq.     451.76  E(vib)   ...       0.16 
freq.     501.87  E(vib)   ...       0.14 
freq.     506.85  E(vib)   ...       0.14 
freq.     661.86  E(vib)   ...       0.08 
freq.     741.33  E(vib)   ...       0.06 
freq.     848.51  E(vib)   ...       0.04 
freq.     885.36  E(vib)   ...       0.04 
freq.     889.01  E(vib)   ...       0.04 
freq.     912.78  E(vib)   ...       0.03 
freq.     928.04  E(vib)   ...       0.03 
freq.     974.06  E(vib)   ...       0.03 
freq.     984.92  E(vib)   ...       0.02 
freq.     989.86  E(vib)   ...       0.02 
freq.    1040.00  E(vib)   ...       0.02 
freq.    1123.09  E(vib)   ...       0.01 
freq.    1198.53  E(vib)   ...       0.01 
freq.    1258.43  E(vib)   ...       0.01 
freq.    1264.14  E(vib)   ...       0.01 
freq.    1293.51  E(vib)   ...       0.01 
freq.    1363.00  E(vib)   ...       0.01 
freq.    1397.21  E(vib)   ...       0.00 
freq.    1423.40  E(vib)   ...       0.00 
freq.    1664.23  E(vib)   ...       0.00 
freq.    1674.76  E(vib)   ...       0.00 
freq.    1712.11  E(vib)   ...       0.00 
freq.    3050.48  E(vib)   ...       0.00 
freq.    3064.81  E(vib)   ...       0.00 
freq.    3081.37  E(vib)   ...       0.00 
freq.    3094.45  E(vib)   ...       0.00 
freq.    3099.61  E(vib)   ...       0.00 
freq.    3128.12  E(vib)   ...       0.00 
freq.    3130.92  E(vib)   ...       0.00 
freq.    3134.91  E(vib)   ...       0.00 
freq.    3177.23  E(vib)   ...       0.00 

------------
INNER ENERGY
------------

The inner energy is: U= E(el) + E(ZPE) + E(vib) + E(rot) + E(trans)
    E(el)   - is the total energy from the electronic structure calculation
              = E(kin-el) + E(nuc-el) + E(el-el) + E(nuc-nuc)
    E(ZPE)  - the the zero temperature vibrational energy from the frequency calculation
    E(vib)  - the the finite temperature correction to E(ZPE) due to population
              of excited vibrational states
    E(rot)  - is the rotational thermal energy
    E(trans)- is the translational thermal energy

Summary of contributions to the inner energy U:
Electronic energy                ...    -22.05715371 Eh
Zero point energy                ...      0.12601109 Eh      79.07 kcal/mol
Thermal vibrational correction   ...      0.00772522 Eh       4.85 kcal/mol
Thermal rotational correction    ...      0.00141627 Eh       0.89 kcal/mol
Thermal translational correction ...      0.00141627 Eh       0.89 kcal/mol
-----------------------------------------------------------------------
Total thermal energy                    -21.92058485 Eh


Summary of corrections to the electronic energy:
(perhaps to be used in another calculation)
Total thermal correction                  0.01055777 Eh       6.63 kcal/mol
Non-thermal (ZPE) correction              0.12601109 Eh      79.07 kcal/mol
-----------------------------------------------------------------------
Total correction                          0.13656885 Eh      85.70 kcal/mol


--------
ENTHALPY
--------

The enthalpy is H = U + kB*T
                kB is Boltzmann's constant
Total thermal energy              ...    -21.92058485 Eh 
Thermal Enthalpy correction       ...      0.00094421 Eh       0.59 kcal/mol
-----------------------------------------------------------------------
Total Enthalpy                    ...    -21.91964065 Eh


WARNING (ORCA/SYM): The number of Z matrix atoms does not agree with
the number of centers in the basis set. The point group will therefore
be determined without considering basis set information.


Note: Only C1 symmetry has been detected, increase convergence thresholds 
      if your molecule has a higher symmetry. Symmetry factor of 1.0 is   
      used for the rotational entropy correction. 
 

Note: Rotational entropy computed according to Herzberg 
Infrared and Raman Spectra, Chapter V,1, Van Nostrand Reinhold, 1945 
Point Group:  C1, Symmetry Number:   1  
Rotational constants in cm-1:     0.098516     0.052085     0.039189 

Vibrational entropy computed according to the QRRHO of S. Grimme
Chem.Eur.J. 2012 18 9955 using a reference frequency of 100.0 cm-1


-------
ENTROPY
-------

The entropy contributions are T*S = T*(S(el)+S(vib)+S(rot)+S(trans))
     S(el)   - electronic entropy
     S(vib)  - vibrational entropy
     S(rot)  - rotational entropy
     S(trans)- translational entropy
The entropies will be listed as multiplied by the temperature to get
units of energy

Electronic entropy                ...      0.00000000 Eh      0.00 kcal/mol
Vibrational entropy               ...      0.01557555 Eh      9.77 kcal/mol
Rotational entropy                ...      0.01352913 Eh      8.49 kcal/mol
Translational entropy             ...      0.01887317 Eh     11.84 kcal/mol
-----------------------------------------------------------------------
Final entropy term                ...      0.04797785 Eh     30.11 kcal/mol

In case the symmetry of your molecule has not been determined correctly
or in case you have a reason to use a different symmetry number we print 
out the resulting rotational entropy values for sn=1,12:

 non-linear molecules -----------------------------------
|  sn= 1 | S(rot)=       0.01352913 Eh      8.49 kcal/mol|
|  sn= 2 | S(rot)=       0.01287467 Eh      8.08 kcal/mol|
|  sn= 3 | S(rot)=       0.01249184 Eh      7.84 kcal/mol|
|  sn= 4 | S(rot)=       0.01222022 Eh      7.67 kcal/mol|
|  sn= 5 | S(rot)=       0.01200953 Eh      7.54 kcal/mol|
|  sn= 6 | S(rot)=       0.01183739 Eh      7.43 kcal/mol|
|  sn= 7 | S(rot)=       0.01169184 Eh      7.34 kcal/mol|
|  sn= 8 | S(rot)=       0.01156576 Eh      7.26 kcal/mol|
|  sn= 9 | S(rot)=       0.01145455 Eh      7.19 kcal/mol|
|  sn=10 | S(rot)=       0.01135507 Eh      7.13 kcal/mol|
|  sn=11 | S(rot)=       0.01126508 Eh      7.07 kcal/mol|
|  sn=12 | S(rot)=       0.01118293 Eh      7.02 kcal/mol|
 linear molecules ---------------------------------------
|  Dinfh | S(rot)=       0.00838434 Eh      5.26 kcal/mol|
|  Cinfv | S(rot)=       0.00903880 Eh      5.67 kcal/mol|
 --------------------------------------------------------


-------------------
GIBBS FREE ENERGY
-------------------

The Gibbs free energy is G = H - T*S

Total enthalpy                    ...    -21.91964065 Eh 
Total entropy correction          ...     -0.04797785 Eh    -30.11 kcal/mol
-----------------------------------------------------------------------
Final Gibbs free energy         ...    -21.96761849 Eh

For completeness - the Gibbs free energy minus the electronic energy
G-E(el)                           ...      0.08953522 Eh     56.18 kcal/mol


--------------------------------
SUGGESTED CITATIONS FOR THIS RUN
--------------------------------

Below you find a list of papers that are relevant to this ORCA run
We neither can nor want to force you to cite these papers, but we appreciate if you do
You receive ORCA, which is the product of decades of hard work by many enthusiastic individuals, for free
The only thing we kindly ask in return is that you cite our papers,
We deeply appreciate it, if you show your appreciation for ORCA by not just citing the generic ORCA reference.

Please note that relegating all ORCA citations to the supporting information does *not* help us.
SI sections are not indexed - citations you put there will not count into any citation statistics
But we need these citations in order to attract the funding resources that allow us to do what we are doing

Therefore, if you are a happy ORCA user, please consider citing a few of the papers listed below in the main body of your paper

In addition to the list printed below, the program has created the file reactant_optfreq.bibtex that contains the list in bibtex format
You can import this file easily into all common literature databanks and citation aid programs


List of essential papers. We consider these as the minimum necessary citations

  1. Bannwarth, C.; Ehlert, S.; Grimme, S.
     GFN2-xTB—An Accurate and Broadly Parametrized Self-Consistent Tight-Binding Quantum Chemical Method with Multipole Electrostatics and Density-Dependent Dispersion Contributions
     J. Chem. Theory Comput. 2019 15(3), 1652-1671
     doi.org/10.1021/acs.jctc.8b01176
  2. Neese, F.
     Software update: the ORCA program system, version 6.0
     WIRES Comput. Molec. Sci. 2025 15(1), e70019
     doi.org/10.1002/wcms.7019

List of papers to cite with high priority. The work reported in these papers was absolutely
necessary for this run to complete.
Our perspective: the developers of density functionals and basis sets usually get cited in chemistry papers
Good! But without the algorithms to do something with them, the functionals or basis sets would not do anything.
Hence, in our opinion, the algorithm design and method developments papers are equally worthy of getting cited

  1. Bykov, D.; Petrenko, T.; Izsak, R.; Kossmann, S.; Becker, U.; Valeev, E.; Neese, F.
     Efficient implementation of the analytic second derivatives of Hartree-Fock and hybrid DFT energies: a detailed analysis of different approximations
     Molec. Phys. 2015 113 , 1961-1977
     doi.org/10.1080/00268976.2015.1025114
  2. Bannwarth, C.; Caldeweyher, E.; Ehlert, S.; Hansen, A.; Pracht, P.; Seibert, J.; Spicher, S.; Grimme, S.
     Extended tight-binding quantum chemistry methods
     WIRES Comput. Molec. Sci. 2020 11(2), e1493
     doi.org/10.1002/wcms.1493

List of suggested additional citations. These are papers that are important in the 'surrounding' of 
of this run, or papers that preceded the highly important papers. If you like your results we are grateful for a citation.

  1. Neese, F.
     The ORCA program system
     WIRES Comput. Molec. Sci. 2012 2(1), 73-78
     doi.org/10.1002/wcms.81
  2. Neese, F.
     Software update: the ORCA program system, version 4.0
     WIRES Comput. Molec. Sci. 2018 8(1), 1-6
     doi.org/10.1002/wcms.1327
  3. Neese, F.; Wennmohs, F.; Becker, U.; Riplinger, C.
     The ORCA quantum chemistry program package
     J. Chem. Phys. 2020 152(22), 224108
     doi.org/10.1063/5.0004608
  4. Neese, F.
     Software update: The ORCA program system—Version 5.0
     WIRES Comput. Molec. Sci. 2022 12(1), e1606
     doi.org/10.1002/wcms.1606

List of optional additional citations

  1. Neese, F.
     Approximate second-order SCF convergence for spin unrestricted wavefunctions
     Chem. Phys. Lett. 2000 325(1-3), 93-98
     doi.org/10.1016/s0009-2614(00)00662-x

Timings for individual modules:

Sum of individual times          ...        6.535 sec (=   0.109 min)
Geometry relaxation              ...        0.523 sec (=   0.009 min)   8.0 %
XTB module                       ...        6.012 sec (=   0.100 min)  92.0 %
                             ****ORCA TERMINATED NORMALLY****
TOTAL RUN TIME: 0 days 0 hours 0 minutes 8 seconds 78 msec
