
                                 *****************
                                 * O   R   C   A *
                                 *****************

                                            #,                                       
                                            ###                                      
                                            ####                                     
                                            #####                                    
                                            ######                                   
                                           ########,                                 
                                     ,,################,,,,,                         
                               ,,#################################,,                 
                          ,,##########################################,,             
                       ,#########################################, ''#####,          
                    ,#############################################,,   '####,        
                  ,##################################################,,,,####,       
                ,###########''''           ''''###############################       
              ,#####''   ,,,,##########,,,,          '''####'''          '####       
            ,##' ,,,,###########################,,,                        '##       
           ' ,,###''''                  '''############,,,                           
         ,,##''                                '''############,,,,        ,,,,,,###''
      ,#''                                            '''#######################'''  
     '                                                          ''''####''''         
             ,#######,   #######,   ,#######,      ##                                
            ,#'     '#,  ##    ##  ,#'     '#,    #''#        ,####,    ,#,          
            ##       ##  ##   ,#'  ##            #'  '#       #'       ,# #          
            ##       ##  #######   ##           ,######,      #####,      #          
            '#,     ,#'  ##    ##  '#,     ,#' ,#      #,     #,   #      #          
             '#######'   ##     ##  '#######'  #'      '#     '####' #    #          



                #########################################################
                #                        -***-                          #
                #          Department of theory and spectroscopy        #
                #                                                       #
                #                      Frank Neese                      #
                #                                                       #
                #     Directorship, Architecture, Infrastructure        #
                #                    SHARK, DRIVERS                     #
                #        Core code/Algorithms in most modules           #
                #                                                       #
                #        Max Planck Institute fuer Kohlenforschung      #
                #                Kaiser Wilhelm Platz 1                 #
                #                 D-45470 Muelheim/Ruhr                 #
                #                      Germany                          #
                #                                                       #
                #                  All rights reserved                  #
                #                        -***-                          #
                #########################################################


                         Program Version 6.1.0  -  RELEASE   -
                                (GIT: $679e74b$)
                          ($2025-06-10 18:02:51 +0200$)


 With contributions from (in alphabetic order):
[Max-Planck-Institut fuer Kohlenforschung]                               
  Daniel Aravena         : Magnetic Suceptibility                        
  Michael Atanasov       : Ab Initio Ligand Field Theory (pilot matlab implementation)
  Alexander A. Auer      : GIAO ZORA, VPT2 properties, NMR spectrum      
  Ute Becker             : All parallelization in ORCA, NUMFREQ, NUMCALC 
  Giovanni Bistoni       : ED, misc. LED, open-shell LED, HFLD           
  Dmytro Bykov           : pre 5.0 version of the SCF Hessian            
  Marcos Casanova-Páez   : Triplet and SCS-CIS(D). UHF-(DLPNO)-IP/EA/STEOM-CCSD. UHF-CVS-IP/STEOM-CCSD   
  Vijay G. Chilkuri      : MRCI spin determinant printing, contributions to CSF-ICE 
  Pauline Colinet        : FMM embedding                                 
  Dipayan Datta          : RHF DLPNO-CCSD density                        
  Achintya Kumar Dutta   : EOM-CC, STEOM-CC                              
  Nicolas Foglia         : Exact transition moments, OPA infrastructure, MCD improvements    
  Dmitry Ganyushin       : Spin-Orbit,Spin-Spin,Magnetic field MRCI      
  Miquel Garcia-Rates    : C-PCM and meta-GGA Hessian, CCSD/C-PCM, Gaussian charge scheme 
  Tiago L. C. Gouveia    : GS-ROHF, GS-ROCIS                             
  Yang Guo               : DLPNO-NEVPT2, F12-NEVPT2, CIM, IAO-localization        
  Andreas Hansen         : Spin unrestricted coupled pair/coupled cluster methods 
  Ingolf Harden          : AUTO-CI MPn and infrastructure                
  Benjamin Helmich-Paris : MC-RPA, TRAH-(SCF,CASSCF), AVAS, COSX integrals, SCF dyn. polar., MC-PDFT, srDFT 
  Lee Huntington         : MR-EOM, pCC                                   
  Robert Izsak           : Overlap fitted RIJCOSX, COSX-SCS-MP3, EOM     
  Riya Kayal             : Wick's Theorem for AUTO-CI, AUTO-CI UHF-CCSDT 
  Emily Kempfer          : AUTO-CI RHF CISDT and CCSDT, approximate NEVPT4
  Christian Kollmar      : KDIIS, OOCD, Brueckner-CCSD(T), CCSD density, CASPT2, CASPT2-K, improved NEVPT2 
  Axel Koslowski         : Symmetry handling                             
  Simone Kossmann        : meta-GGA functionals, TD-DFT gradient, OOMP2, (MP2 Hessian; deprecated post 5.0) 
  Lucas Lang             : DCDCAS, Hyperfine gauge corrections, ICE-SOC+SSC
  Marvin Lechner         : AUTO-CI (C++ implementation), FIC-MRCC        
  Spencer Leger          : CASSCF response                               
  Dagmar Lenk            : GEPOL surface, SMD, ORCA-2-JSON               
  Dimitrios Liakos       : Extrapolation schemes; Compound Job, Property file
  Dimitrios Manganas     : Further ROCIS development; embedding schemes. LFT, Crystal Embedding 
  Dimitrios Pantazis     : SARC Basis sets                               
  Anastasios Papadopoulos: AUTO-CI, single reference methods and gradients 
  Taras Petrenko         : pre 6.0 DFT Hessian and TD-DFT gradient,  ECA, NRVS 
  Petra Pikulova         : Analytic Raman intensities                    
  Peter Pinski           : DLPNO-MP2, DLPNO-MP2 Gradient                 
  Shashank Vittal Rao    : ES-AILFT, MagRelax                            
  Christoph Reimann      : Effective Core Potentials                     
  Marius Retegan         : Local ZFS, SOC                                
  Christoph Riplinger    : Optimizer, TS searches, QM/MM, DLPNO-CCSD(T), (RO)-DLPNO pert. Triples 
  Michael Roemelt        : Original ROCIS implementation, recursive CI coupling coefficients
  Masaaki Saitow         : Open-shell DLPNO-CCSD energy and density      
  Barbara Sandhoefer     : DKH picture change effects                    
  Yorick L. A. Schmerwitz: GMF and freeze-and-release deltaSCF, NEB S-IDPP initial path                    
  Kantharuban Sivalingam : CASSCF convergence/infrastructure, NEVPT2, NEVPT3, NEVPT4(SD), FIC-MRCI and CEPA variants
  Bernardo de Souza      : ESD, SOC TD-DFT                               
  Georgi L. Stoychev     : AutoAux, RI-MP2 NMR, DLPNO-MP2 response, X2C  
  Van Anh Tran           : RI-MP2 g-tensors                              
  Willem Van den Heuvel  : Paramagnetic NMR                              
  Zikuan Wang            : NOTCH, Electric field optimization            
  Frank Wennmohs         : Technical directorship and infrastructure     
  Hang Xu                : AUTO-CI-Response properties                   
                                                                         
[FACCTs GmbH]                                                            
  Markus Bursch, Nicolas Foglia, Miquel Garcia-Rates, Ingolf Harden, Hagen Neugebauer, Anastasios Papadopoulos, 
  Christoph Riplinger, Bernardo de Souza, Georgi L. Stoychev                                                    
                                                                 
  APM, various basis sets, CI-OPT, improved COSX, DLPNO-Multilevel,           
  DOCKER, DRACO, updates on ESD, Fragmentator, GOAT, IRC, LR-CPCM, L-BFGS, MBIS, meta-GGA TD-DFT gradient, ML-optimized integration grids, 
  MM, NACMEs, nearIR, NEB, NEB-TS, NL-DFT gradient (VV10), 2- and 3-layer-ONIOM, interface openCOSMO-RS, QMMM,   
  Crystal-QMMM, RESP, rigid body optimization, SF, symmetry and pop. for TD-DFT, various functionals, SOLVATOR                                   
                                                                         
[Other institutions]                                                     
  V. Asgeirsson          : NEB                                           
  Christoph Bannwarth    : sTDA-DFT, sTD-DFT, PBEh-3c, B97-3c, D3        
  Giovanni Bistoni       : ETS/NOCV, ADLD/ADEX, COVALED                  
  Martin Brehm           : Molecular dynamics                            
  Ronald Cardenas        : ETS/NOCV                                      
  Martina Colucci        : COVALED                                       
  Sebastian Ehlert       : rSCAN, r2SCAN, r2SCAN-3c, D4, dhf basis sets  
  Marvin Friede          : D4 for Fr, Ra, Ac-Lr                          
  Lars Goerigk           : TD-DFT with DH, B97 family of functionals     
  Stefan Grimme          : VdW corrections, initial TS optimization, DFT functionals, gCP, sTDA/sTD-DF 
  Waldemar Hujo          : DFT-NL                                        
  H. Jonsson             : NEB                                           
  Holger Kruse           : gCP                                           
  Marcel Mueller         : wB97X-3c, vDZP basis set                      
  Hagen Neugebauer       : wr2SCAN, Native XTB                           
  Gianluca Regni         : ADLD/ADEX                                     
  Tobias Risthaus        : pre 6.0 range-separated hybrid DFT and stability analysis
  Lukas Wittmann         : regularized MP2, r2SCAN double-hybrids, wr2SCAN        
                                                                         
We gratefully acknowledge several colleagues who have allowed us to      
interface, adapt or use parts of their codes:                            
  Ed Valeev, F. Pavosevic, A. Kumar             : LibInt (2-el integral package), F12 methods 
  Garnet Chan, S. Sharma, J. Yang, R. Olivares  : DMRG                   
  Ulf Ekstrom                                   : XCFun DFT Library      
  Mihaly Kallay                                 : mrcc  (arbitrary order and MRCC methods)
  Frank Weinhold                                : gennbo (NPA and NBO analysis)           
  Simon Mueller                                 : openCOSMO-RS                            
  Christopher J. Cramer and Donald G. Truhlar   : smd solvation model                     
  S Lehtola, MJT Oliveira, MAL Marques          : LibXC Library                           
  Liviu Ungur et al                             : ANISO software                          


 Your calculation uses the libint2 library for the computation of 2-el integrals
 For citations please refer to: http://libint.valeyev.net

 Your ORCA version has been built with support for libXC version: 7.0.0
 For citations please refer to: https://libxc.gitlab.io

 This ORCA versions uses:
   CBLAS   interface :  Fast vector & matrix operations
   LAPACKE interface :  Fast linear algebra routines
   SCALAPACK package :  Parallel linear algebra routines
   Shared memory     :  Shared parallel matrices
   BLAS/LAPACK       :  OpenBLAS 0.3.29  USE64BITINT DYNAMIC_ARCH NO_AFFINITY SkylakeX SINGLE_THREADED
        Core in use  :  SkylakeX
   Copyright (c) 2011-2014, The OpenBLAS Project


  ***********************************
  * Starting time: Sun Mar 15 21:59:08 2026
  * Host name:     midway3-login3.rcc.local
  * Process ID:    3188705
  * Working dir.:  /home/rzhu16/orca_TS_search/runs/da_f/geo_opt_reactant_product
  ***********************************

Your calculation utilizes the semiempirical GFN2-xTB method
Please cite in your paper:
Bannwarth, C.; Ehlert S.; Grimme, S. J. Chem. Theory Comput. 2019, 15, 1652.
   

================================================================================

================================================================================
                                        WARNINGS
                       Please study these warnings very carefully!
================================================================================


WARNING: Analytical Hessian for XTB is limited in the analysis of the data.
       : If you want to obtain extensive IR and deltaG analysis, please use ! XTB NumFreq. 


WARNING: Geometry Optimization
  ===> : Switching off AutoStart
         For restart on a previous wavefunction, please use MOREAD

WARNING: Found dipole moment calculation with XTB calculation
  ===> : Switching off dipole moment calculation


WARNING: Found frequency calculation in combination with XTB calculation
  ===> : Need to redirect dipole moment calculation to properties.out


================================================================================
                                       INPUT FILE
================================================================================
NAME = reactant_optfreq.inp
|  1> ! XTB2 Opt Freq PAL8
|  2> 
|  3> %geom
|  4>   MaxIter 500
|  5> end
|  6> 
|  7> * xyz 0 1
|  8>   C       0.243823      0.138354      0.407491
|  9>   C       1.369696      0.054602     -0.545344
| 10>   C       2.116187      1.192804     -0.529617
| 11>   C       3.258358      1.071919      0.398595
| 12>   C       2.456784      0.930037      1.763750
| 13>   C       1.068654      0.222424      1.763063
| 14>   H      -0.417683     -0.726466      0.436417
| 15>   H      -0.338953      1.048834      0.284142
| 16>   H       1.888254     -0.898195     -0.579129
| 17>   H       1.599412      2.145664     -0.504708
| 18>   H       3.910481      1.941648      0.469649
| 19>   H       3.844146      0.167141      0.247921
| 20>   H       0.455119      0.759588      2.488863
| 21>   H       1.213724     -0.791898      2.134686
| 22>   H       3.108120      0.428146      2.492115
| 23>   F       2.287149      2.207689      2.265048
| 24> *
| 25> 
| 26>                          ****END OF INPUT****
================================================================================

                       *****************************
                       * Geometry Optimization Run *
                       *****************************

Geometry optimization settings:
Update method            Update   .... BFGS
Choice of coordinates    CoordSys .... (2022) Redundant Internals
Initial Hessian          InHess   .... Almloef's Model
Max. no of cycles        MaxIter  .... 500

Convergence Tolerances:
Energy Change            TolE     ....  5.0000e-06 Eh
Max. Gradient            TolMAXG  ....  3.0000e-04 Eh/bohr
RMS Gradient             TolRMSG  ....  1.0000e-04 Eh/bohr
Max. Displacement        TolMAXD  ....  4.0000e-03 bohr
RMS Displacement         TolRMSD  ....  2.0000e-03 bohr
Strict Convergence                .... False

------------------------------------------------------------------------------
                        ORCA OPTIMIZATION COORDINATE SETUP
------------------------------------------------------------------------------

The optimization will be done in redundant internal coordinates (2022)
Making redundant internal coordinates   ...  (2022 redundants) done
Evaluating the initial hessian          ...  (Almloef) done
Evaluating the coordinates              ...  done
Calculating the B-matrix                .... done
Calculating the G-matrix                .... done
The number of degrees of freedom        ....   78

    -----------------------------------------------------------------
                    Redundant Internal Coordinates


    -----------------------------------------------------------------
         Definition                    Initial Value    Approx d2E/dq
    -----------------------------------------------------------------
      1. B(C   1,C   0)                  1.4773         0.453327   
      2. B(C   2,C   1)                  1.3612         0.694398   
      3. B(C   3,C   2)                  1.4767         0.454317   
      4. B(C   4,C   3)                  1.5894         0.300300   
      5. B(C   5,C   4)                  1.5581         0.336956   
      6. B(C   5,C   0)                  1.5890         0.300755   
      7. B(H   6,C   0)                  1.0892         0.361170   
      8. B(H   7,C   0)                  1.0880         0.362711   
      9. B(H   8,C   1)                  1.0853         0.366378   
     10. B(H   9,C   2)                  1.0843         0.367774   
     11. B(H  10,C   3)                  1.0894         0.360925   
     12. B(H  11,C   3)                  1.0883         0.362309   
     13. B(H  12,C   5)                  1.0917         0.357890   
     14. B(H  13,C   5)                  1.0900         0.360162   
     15. B(H  14,C   4)                  1.0985         0.349061   
     16. B(F  15,C   4)                  1.3829         0.533655   
     17. A(C   5,C   0,H   7)          109.2974         0.313416   
     18. A(C   1,C   0,C   5)           99.0690         0.361907   
     19. A(H   6,C   0,H   7)          110.0071         0.291306   
     20. A(C   1,C   0,H   6)          115.7832         0.335019   
     21. A(C   5,C   0,H   6)          109.5488         0.313200   
     22. A(C   1,C   0,H   7)          112.4898         0.335256   
     23. A(C   0,C   1,C   2)          111.2890         0.418810   
     24. A(C   2,C   1,H   8)          118.1904         0.360827   
     25. A(C   0,C   1,H   8)          115.7206         0.335817   
     26. A(C   1,C   2,C   3)          111.2822         0.418973   
     27. A(C   3,C   2,H   9)          115.2225         0.336152   
     28. A(C   1,C   2,H   9)          118.2754         0.361061   
     29. A(C   2,C   3,C   4)           99.0393         0.361948   
     30. A(H  10,C   3,H  11)          110.5208         0.291224   
     31. A(C   2,C   3,H  11)          113.4116         0.335316   
     32. A(C   4,C   3,H  10)          108.4900         0.313089   
     33. A(C   2,C   3,H  10)          116.0173         0.335103   
     34. A(C   4,C   3,H  11)          108.4298         0.313283   
     35. A(H  14,C   4,F  15)          104.7436         0.338822   
     36. A(C   5,C   4,F  15)          108.0870         0.375551   
     37. A(C   3,C   4,F  15)          106.9018         0.368178   
     38. A(C   3,C   4,H  14)          108.1352         0.311400   
     39. A(C   5,C   4,H  14)          108.7269         0.317273   
     40. A(C   3,C   4,C   5)          119.3055         0.344097   
     41. A(H  12,C   5,H  13)          107.8202         0.290566   
     42. A(C   4,C   5,H  13)          107.6928         0.318897   
     43. A(C   0,C   5,C   4)          119.1347         0.344184   
     44. A(C   0,C   5,H  13)          108.1023         0.313058   
     45. A(C   4,C   5,H  12)          106.0780         0.318568   
     46. A(C   0,C   5,H  12)          107.5463         0.312737   
     47. D(C   2,C   1,C   0,C   5)    -64.5096         0.015153   
     48. D(C   2,C   1,C   0,H   6)    178.5275         0.015153   
     49. D(H   8,C   1,C   0,H   6)    -42.8421         0.015153   
     50. D(C   2,C   1,C   0,H   7)     50.8492         0.015153   
     51. D(H   8,C   1,C   0,C   5)     74.1207         0.015153   
     52. D(C   3,C   2,C   1,C   0)     93.7577         0.033915   
     53. D(H   9,C   2,C   1,H   8)    179.4695         0.033915   
     54. D(C   3,C   2,C   1,H   8)    -43.7443         0.033915   
     55. D(H   9,C   2,C   1,C   0)    -43.0286         0.033915   
     56. D(H  10,C   3,C   2,C   1)    179.8624         0.015219   
     57. D(H  10,C   3,C   2,H   9)    -41.9408         0.015219   
     58. D(H  11,C   3,C   2,C   1)     50.3377         0.015219   
     59. D(C   4,C   3,C   2,H   9)     73.8440         0.015219   
     60. D(C   4,C   3,C   2,C   1)    -64.3529         0.015219   
     61. D(H  14,C   4,C   3,H  11)     38.4997         0.010000   
     62. D(C   5,C   4,C   3,C   2)     32.1570         0.010000   
     63. D(H  14,C   4,C   3,H  10)    -81.5694         0.010000   
     64. D(H  14,C   4,C   3,C   2)    156.9954         0.010000   
     65. D(C   5,C   4,C   3,H  11)    -86.3388         0.010000   
     66. D(C   5,C   4,C   3,H  10)    153.5921         0.010000   
     67. D(H  12,C   5,C   4,C   3)   -143.6640         0.010000   
     68. D(C   0,C   5,C   4,F  15)     99.9375         0.010000   
     69. D(C   0,C   5,C   4,H  14)   -146.8958         0.010000   
     70. D(C   0,C   5,C   4,C   3)    -22.3421         0.010000   
     71. D(H  12,C   5,C   0,H   7)     35.0130         0.010000   
     72. D(H  12,C   5,C   0,H   6)    -85.5847         0.010000   
     73. D(H  12,C   5,C   0,C   1)    152.8081         0.010000   
     74. D(C   4,C   5,C   0,H   7)    -85.5691         0.010000   
     75. D(C   4,C   5,C   0,H   6)    153.8332         0.010000   
     76. D(H  12,C   5,C   4,H  14)     91.7824         0.010000   
     77. D(C   4,C   5,C   0,C   1)     32.2260         0.010000   
     78. D(H  12,C   5,C   4,F  15)    -21.3843         0.010000   
    -----------------------------------------------------------------

Number of atoms                         .... 16
Number of degrees of freedom            .... 78


         *************************************************************
         *                GEOMETRY OPTIMIZATION CYCLE   1            *
         *************************************************************
---------------------------------
CARTESIAN COORDINATES (ANGSTROEM)
---------------------------------
  C     0.243823    0.138354    0.407491
  C     1.369696    0.054602   -0.545344
  C     2.116187    1.192804   -0.529617
  C     3.258358    1.071919    0.398595
  C     2.456784    0.930037    1.763750
  C     1.068654    0.222424    1.763063
  H    -0.417683   -0.726466    0.436417
  H    -0.338953    1.048834    0.284142
  H     1.888254   -0.898195   -0.579129
  H     1.599412    2.145664   -0.504708
  H     3.910481    1.941648    0.469649
  H     3.844146    0.167141    0.247921
  H     0.455119    0.759588    2.488863
  H     1.213724   -0.791898    2.134686
  H     3.108120    0.428146    2.492115
  F     2.287149    2.207689    2.265048

----------------------------
CARTESIAN COORDINATES (A.U.)
----------------------------
  NO LB    ZA    FRAG    MASS        X           Y           Z
   0 C   6.0000    0    12.011    0.460759    0.261451    0.770046
   1 C   6.0000    0    12.011    2.588350    0.103183   -1.030551
   2 C   6.0000    0    12.011    3.999014    2.254073   -1.000831
   3 C   6.0000    0    12.011    6.157404    2.025633    0.753235
   4 C   6.0000    0    12.011    4.642649    1.757515    3.333004
   5 C   6.0000    0    12.011    2.019463    0.420320    3.331706
   6 H   1.0000    0     1.008   -0.789306   -1.372822    0.824709
   7 H   1.0000    0     1.008   -0.640528    1.982009    0.536951
   8 H   1.0000    0     1.008    3.568283   -1.697343   -1.094395
   9 H   1.0000    0     1.008    3.022451    4.054717   -0.953760
  10 H   1.0000    0     1.008    7.389738    3.669183    0.887508
  11 H   1.0000    0     1.008    7.264383    0.315851    0.468503
  12 H   1.0000    0     1.008    0.860050    1.435413    4.703269
  13 H   1.0000    0     1.008    2.293606   -1.496470    4.033972
  14 H   1.0000    0     1.008    5.873496    0.809079    4.709415
  15 F   9.0000    0    18.998    4.322085    4.171928    4.280320

      -----------------------------------------------------------      
     |                   =====================                   |     
     |                           x T B                           |     
     |                   =====================                   |     
     |                         S. Grimme                         |     
     |          Mulliken Center for Theoretical Chemistry        |     
     |                    University of Bonn                     |     
      -----------------------------------------------------------      

   * xtb version 6.7.1 (edcfbbe) compiled by 'albert@albert-system' on 2024-07-22

   xtb is free software: you can redistribute it and/or modify it under
   the terms of the GNU Lesser General Public License as published by
   the Free Software Foundation, either version 3 of the License, or
   (at your option) any later version.
   
   xtb is distributed in the hope that it will be useful,
   but WITHOUT ANY WARRANTY; without even the implied warranty of
   MERCHANTABILITY or FITNESS FOR A PARTICULAR PURPOSE.  See the
   GNU Lesser General Public License for more details.
   
   Cite this work as:
   * C. Bannwarth, E. Caldeweyher, S. Ehlert, A. Hansen, P. Pracht,
     J. Seibert, S. Spicher, S. Grimme, WIREs Comput. Mol. Sci., 2020, 11,
     e01493. DOI: 10.1002/wcms.1493
   
   for GFN2-xTB:
   * C. Bannwarth, S. Ehlert and S. Grimme., J. Chem. Theory Comput., 2019,
     15, 1652-1671. DOI: 10.1021/acs.jctc.8b01176
   for GFN1-xTB:
   * S. Grimme, C. Bannwarth, P. Shushkov, J. Chem. Theory Comput., 2017,
     13, 1989-2009. DOI: 10.1021/acs.jctc.7b00118
   for GFN0-xTB:
   * P. Pracht, E. Caldeweyher, S. Ehlert, S. Grimme, ChemRxiv, 2019, preprint.
     DOI: 10.26434/chemrxiv.8326202.v1
   for GFN-FF:
   * S. Spicher and S. Grimme, Angew. Chem. Int. Ed., 2020, 59, 15665-15673.
     DOI: 10.1002/anie.202004239
   
   for ALPB and GBSA implicit solvation:
   * S. Ehlert, M. Stahn, S. Spicher, S. Grimme, J. Chem. Theory Comput.,
     2021, 17, 4250-4261. DOI: 10.1021/acs.jctc.1c00471
   
   for ddCOSMO and CPCM-X implicit solvation:
   * M. Stahn, S. Ehlert, S. Grimme, J. Phys. Chem. A,
     2023, XX, XXXX-XXXX. DOI: 10.1021/acs.jpca.3c04382
   
   for DFT-D4:
   * E. Caldeweyher, C. Bannwarth and S. Grimme, J. Chem. Phys., 2017,
     147, 034112. DOI: 10.1063/1.4993215
   * E. Caldeweyher, S. Ehlert, A. Hansen, H. Neugebauer, S. Spicher,
     C. Bannwarth and S. Grimme, J. Chem. Phys., 2019, 150, 154122.
     DOI: 10.1063/1.5090222
   * E. Caldeweyher, J.-M. Mewes, S. Ehlert and S. Grimme, Phys. Chem. Chem. Phys.
     2020, 22, 8499-8512. DOI: 10.1039/D0CP00502A
   
   for sTDA-xTB:
   * S. Grimme and C. Bannwarth, J. Chem. Phys., 2016, 145, 054103.
     DOI: 10.1063/1.4959605
   
   in the mass-spec context:
   * V. Asgeirsson, C. Bauer and S. Grimme, Chem. Sci., 2017, 8, 4879.
     DOI: 10.1039/c7sc00601b
   * J. Koopman and S. Grimme, ACS Omega 2019, 4, 12, 15120-15133.
     DOI: 10.1021/acsomega.9b02011
   
   for metadynamics refer to:
   * S. Grimme, J. Chem. Theory Comput., 2019, 155, 2847-2862
     DOI: 10.1021/acs.jctc.9b00143
   
   for SPH calculations refer to:
   * S. Spicher and S. Grimme, J. Chem. Theory Comput., 2021, 17, 1701-1714
     DOI: 10.1021/acs.jctc.0c01306
   
   for ONIOM refer to:
   * C. Plett, A. Katbashev, S. Ehlert, S. Grimme, M. Bursch,
     Phys. Chem. Chem. Phys., 2023, 25, 17860-17868. DOI: 10.1039/D3CP02178E
   
   for DIPRO refer to:
   * J. Kohn, N. Gildemeister, S. Grimme, D. Fazzi, A. Hansen,
     J. Chem. Phys., 2023, just accepted.
   
   for PTB refer to:
   * S. Grimme, M. Mueller, A. Hansen, J. Chem. Phys., 2023, 158, 124111.
     DOI: 10.1063/5.0137838
   
   with help from (in alphabetical order)
   P. Atkinson, C. Bannwarth, F. Bohle, G. Brandenburg, E. Caldeweyher
   M. Checinski, S. Dohm, S. Ehlert, S. Ehrlich, I. Gerasimov, C. Hölzer
   A. Katbashev, J. Kohn, J. Koopman, C. Lavigne, S. Lehtola, F. März, M. Müller,
   F. Musil, H. Neugebauer, J. Pisarek, C. Plett, P. Pracht, F. Pultar,
   J. Seibert, P. Shushkov, S. Spicher, M. Stahn, M. Steiner, T. Strunk,
   J. Stückrath, T. Rose, and J. Unsleber
   
 * started run on 2026/03/15 at 21:59:08.645     
   ID    Z sym.   atoms
    1    6 C      1-6
    2    1 H      7-15
    3    9 F      16

           -------------------------------------------------
          |                Calculation Setup                |
           -------------------------------------------------

          program call               : /software/orca-6.1.0-el8-x86_64/bin/otool_xtb reactant_optfreq_XTB.xyz --grad -c 0 -u 0 -P 8 --namespace reactant_optfreq --input reactant_optfreq_XTB.input.tmp --acc 0.200000
          hostname                   : midway3-login3.rcc.local
          calculation namespace      : reactant_optfreq
          coordinate file            : reactant_optfreq_XTB.xyz
          omp threads                :                     8


           -------------------------------------------------
          |                 G F N 2 - x T B                 |
           -------------------------------------------------

        Reference                      10.1021/acs.jctc.8b01176
      * Hamiltonian:
        H0-scaling (s, p, d)           1.850000    2.230000    2.230000
        zeta-weighting                 0.500000
      * Dispersion:
        s8                             2.700000
        a1                             0.520000
        a2                             5.000000
        s9                             5.000000
      * Repulsion:
        kExp                           1.500000    1.000000
        rExp                           1.000000
      * Coulomb:
        alpha                          2.000000
        third order                    shell-resolved
        anisotropic                    true
        a3                             3.000000
        a5                             4.000000
        cn-shift                       1.200000
        cn-exp                         4.000000
        max-rad                        5.000000


          ...................................................
          :                      SETUP                      :
          :.................................................:
          :  # basis functions                  37          :
          :  # atomic orbitals                  37          :
          :  # shells                           23          :
          :  # electrons                        40          :
          :  max. iterations                   250          :
          :  Hamiltonian                  GFN2-xTB          :
          :  restarted?                      false          :
          :  GBSA solvation                  false          :
          :  PC potential                    false          :
          :  electronic temp.          300.0000000     K    :
          :  accuracy                    0.2000000          :
          :  -> integral cutoff          0.3198970E+02      :
          :  -> integral neglect         0.2000000E-08      :
          :  -> SCF convergence          0.2000000E-06 Eh   :
          :  -> wf. convergence          0.2000000E-04 e    :
          :  Broyden damping             0.4000000          :
          :  net charge                          0          :
          :  unpaired electrons                  0          :
          ...................................................

 iter      E             dE          RMSdq      gap      omega  full diag
   1    -22.2953871 -0.222954E+02  0.374E+00    2.58       0.0  T
   2    -22.3360831 -0.406960E-01  0.219E+00    2.54       1.0  T
   3    -22.3364652 -0.382104E-03  0.953E-01    2.52       1.0  T
   4    -22.3350469  0.141824E-02  0.518E-01    2.53       1.0  T
   5    -22.3378852 -0.283825E-02  0.229E-01    2.52       1.0  T
   6    -22.3385447 -0.659485E-03  0.529E-02    2.52       1.0  T
   7    -22.3385493 -0.460606E-05  0.163E-02    2.52       1.5  T
   8    -22.3385496 -0.350237E-06  0.508E-03    2.52       4.9  T
   9    -22.3385496 -0.337148E-07  0.826E-04    2.52      30.3  T
  10    -22.3385496 -0.268349E-08  0.357E-04    2.52      70.0  T
  11    -22.3385496 -0.302443E-09  0.988E-05    2.52     253.1  T
  12    -22.3385496 -0.181473E-10  0.419E-05    2.52     597.1  T

   *** convergence criteria satisfied after 12 iterations ***

         #    Occupation            Energy/Eh            Energy/eV
      -------------------------------------------------------------
         1        2.0000           -0.8017667             -21.8172
       ...           ...                  ...                  ...
        14        2.0000           -0.4751111             -12.9284
        15        2.0000           -0.4596613             -12.5080
        16        2.0000           -0.4510281             -12.2731
        17        2.0000           -0.4491555             -12.2221
        18        2.0000           -0.4371311             -11.8949
        19        2.0000           -0.4349687             -11.8361
        20        2.0000           -0.3482839              -9.4773 (HOMO)
        21                         -0.2556242              -6.9559 (LUMO)
        22                         -0.0001359              -0.0037
        23                          0.0069499               0.1891
        24                          0.0293702               0.7992
        25                          0.1098132               2.9882
       ...                                ...                  ...
        37                          0.5101298              13.8813
      -------------------------------------------------------------
                  HL-Gap            0.0926597 Eh            2.5214 eV
             Fermi-level           -0.3019540 Eh           -8.2166 eV

 SCC (total)                   0 d,  0 h,  0 min,  0.011 sec
 SCC setup                      ...        0 min,  0.000 sec (  1.846%)
 Dispersion                     ...        0 min,  0.000 sec (  0.812%)
 classical contributions        ...        0 min,  0.000 sec (  0.387%)
 integral evaluation            ...        0 min,  0.000 sec (  3.470%)
 iterations                     ...        0 min,  0.009 sec ( 83.240%)
 molecular gradient             ...        0 min,  0.001 sec (  8.770%)
 printout                       ...        0 min,  0.000 sec (  1.358%)

         :::::::::::::::::::::::::::::::::::::::::::::::::::::
         ::                     SUMMARY                     ::
         :::::::::::::::::::::::::::::::::::::::::::::::::::::
         :: total energy             -22.071498777356 Eh    ::
         :: gradient norm              0.003276234458 Eh/a0 ::
         :: HOMO-LUMO gap              2.521398764413 eV    ::
         ::.................................................::
         :: SCC energy               -22.338529521673 Eh    ::
         :: -> isotropic ES            0.016507554306 Eh    ::
         :: -> anisotropic ES          0.002289113157 Eh    ::
         :: -> anisotropic XC          0.006305173341 Eh    ::
         :: -> dispersion             -0.010598065916 Eh    ::
         :: repulsion energy           0.267030744316 Eh    ::
         :: add. restraining           0.000000000000 Eh    ::
         :: total charge              -0.000000000000 e     ::
         :::::::::::::::::::::::::::::::::::::::::::::::::::::


Property printout bound to 'properties.out'

           -------------------------------------------------
          | TOTAL ENERGY              -22.071498777356 Eh   |
          | GRADIENT NORM               0.003276234458 Eh/α |
          | HOMO-LUMO GAP               2.521398764413 eV   |
           -------------------------------------------------

------------------------------------------------------------------------
 * finished run on 2026/03/15 at 21:59:08.667     
------------------------------------------------------------------------
 total:
 * wall-time:     0 d,  0 h,  0 min,  0.022 sec
 *  cpu-time:     0 d,  0 h,  0 min,  0.144 sec
 * ratio c/w:     6.582 speedup
 SCF:
 * wall-time:     0 d,  0 h,  0 min,  0.011 sec
 *  cpu-time:     0 d,  0 h,  0 min,  0.083 sec
 * ratio c/w:     7.541 speedup


-------------------------   --------------------
FINAL SINGLE POINT ENERGY       -22.071498777360
-------------------------   --------------------


-------------
DIPOLE MOMENT
-------------
                                X             Y             Z
Total Dipole Moment    :      0.01100      -0.78500       0.10500
                        -----------------------------------------
Magnitude (a.u.)       :      0.79207
Magnitude (Debye)      :      2.01328


------------------
CARTESIAN GRADIENT
------------------

   1   C   :    0.000216453   -0.000371971    0.000010489
   2   C   :   -0.000130891   -0.000273446   -0.000192128
   3   C   :    0.000137091    0.000254520   -0.000137554
   4   C   :   -0.000165435    0.000277705    0.000022701
   5   C   :   -0.000184546    0.000038044    0.000087215
   6   C   :    0.000068091    0.000102891    0.000118336
   7   H   :    0.000421696   -0.000322781   -0.000169457
   8   H   :    0.000311743   -0.000295806    0.000137606
   9   H   :    0.000007849   -0.000086219   -0.001057777
  10   H   :   -0.000058772    0.000112869   -0.000648686
  11   H   :   -0.000218447    0.000232520   -0.000317982
  12   H   :   -0.000309516    0.000165062    0.000138773
  13   H   :   -0.000693270    0.000864318   -0.000503729
  14   H   :   -0.000638259    0.000468019    0.001478133
  15   H   :    0.000695202   -0.000655957   -0.000326571
  16   F   :    0.000541010   -0.000509769    0.001360630

Difference to translation invariance:
           :    0.0000000000   -0.0000000000   -0.0000000000

Difference to rotation invariance:
           :   -0.0000000403   -0.0000000307    0.0000000151

Norm of the Cartesian gradient     ...    0.0032762345
RMS gradient                       ...    0.0004728837
MAX gradient                       ...    0.0014781326
------------------------------------------------------------------------------
                         ORCA GEOMETRY RELAXATION STEP
------------------------------------------------------------------------------

Reading the OPT-File                    .... done
Getting information on internals        .... done
Copying old internal coords+grads       .... done
Making the new internal coordinates     .... (2022 redundants) done
Validating the new internal coordinates .... (2022 redundants) done
Calculating the B-matrix                .... done
Calculating the G,G- and P matrices     .... done
Transforming gradient to internals      .... done
Projecting the internal gradient        .... done
Number of atoms                         ....  16
Number of internal coordinates          ....  78
Current Energy                          ....   -22.071498777 Eh
Current gradient norm                   ....     0.003276234 Eh/bohr
Maximum allowed component of the step   ....  0.300
Current trust radius                    ....  0.300
Evaluating the initial hessian          ....  (Almloef) done
Projecting the Hessian                  .... done
Forming the augmented Hessian           .... done
Diagonalizing the augmented Hessian     .... done
Last element of RFO vector              ....  0.975639447
Lowest eigenvalues of augmented Hessian:
 -0.000700321  0.011738938  0.016672950  0.032912099  0.047533986
Length of the computed step             ....  0.224857855
The final length of the internal step   ....  0.224857855
Converting the step to Cartesian space:
 Initial RMS(Int)=    0.0254601385
Transforming coordinates:
 Iter   0:  RMS(Cart)=    0.0386604727 RMS(Int)=    0.7107584357
done
Storing new coordinates                 .... done

                                .--------------------.
          ----------------------|Geometry convergence|-------------------------
          Item                value                   Tolerance       Converged
          ---------------------------------------------------------------------
          RMS gradient        0.0005937270            0.0001000000      NO
          MAX gradient        0.0024623508            0.0003000000      NO
          RMS step            0.0254601385            0.0020000000      NO
          MAX step            0.0756766877            0.0040000000      NO
          -------------------------------------------------------------------------
          ........................................................
          Max(Bonds)      0.0016      Max(Angles)    0.52
          Max(Dihed)        4.34      Max(Improp)    0.00
          ---------------------------------------------------------------------

The optimization has not yet converged - more geometry cycles are needed


    ---------------------------------------------------------------------------
                         Redundant Internal Coordinates
                            (Angstroem and degrees)

        Definition                    Value    dE/dq     Step     New-Value
    ----------------------------------------------------------------------------
     1. B(C   1,C   0)                1.4773  0.000413 -0.0003    1.4770   
     2. B(C   2,C   1)                1.3612  0.000371 -0.0000    1.3612   
     3. B(C   3,C   2)                1.4767  0.000517 -0.0001    1.4766   
     4. B(C   4,C   3)                1.5894  0.000870 -0.0016    1.5878   
     5. B(C   5,C   4)                1.5581  0.000224 -0.0010    1.5571   
     6. B(C   5,C   0)                1.5890  0.000503 -0.0016    1.5874   
     7. B(H   6,C   0)                1.0892 -0.000004  0.0000    1.0892   
     8. B(H   7,C   0)                1.0880 -0.000430  0.0006    1.0887   
     9. B(H   8,C   1)                1.0853  0.000112 -0.0002    1.0851   
    10. B(H   9,C   2)                1.0843  0.000112 -0.0002    1.0841   
    11. B(H  10,C   3)                1.0894  0.000034 -0.0000    1.0893   
    12. B(H  11,C   3)                1.0883 -0.000323  0.0005    1.0888   
    13. B(H  12,C   5)                1.0917  0.000480 -0.0007    1.0910   
    14. B(H  13,C   5)                1.0900 -0.000017  0.0000    1.0900   
    15. B(H  14,C   4)                1.0985  0.000495 -0.0007    1.0977   
    16. B(F  15,C   4)                1.3829 -0.000044  0.0000    1.3830   
    17. A(C   5,C   0,H   7)          109.30 -0.000330    0.19    109.49   
    18. A(C   1,C   0,C   5)           99.07  0.000872   -0.52     98.55   
    19. A(H   6,C   0,H   7)          110.01  0.000305    0.04    110.04   
    20. A(C   1,C   0,H   6)          115.78 -0.000274    0.03    115.82   
    21. A(C   5,C   0,H   6)          109.55 -0.000162   -0.02    109.52   
    22. A(C   1,C   0,H   7)          112.49 -0.000393    0.24    112.73   
    23. A(C   0,C   1,C   2)          111.29 -0.000573    0.08    111.37   
    24. A(C   2,C   1,H   8)          118.19  0.000181   -0.11    118.08   
    25. A(C   0,C   1,H   8)          115.72  0.000409   -0.26    115.46   
    26. A(C   1,C   2,C   3)          111.28 -0.000377    0.10    111.38   
    27. A(C   3,C   2,H   9)          115.22  0.000077   -0.17    115.05   
    28. A(C   1,C   2,H   9)          118.28  0.000319   -0.09    118.18   
    29. A(C   2,C   3,C   4)           99.04  0.000893   -0.37     98.67   
    30. A(H  10,C   3,H  11)          110.52  0.000271    0.02    110.54   
    31. A(C   2,C   3,H  11)          113.41 -0.000377    0.20    113.61   
    32. A(C   4,C   3,H  10)          108.49 -0.000250   -0.06    108.43   
    33. A(C   2,C   3,H  10)          116.02 -0.000293    0.02    116.04   
    34. A(C   4,C   3,H  11)          108.43 -0.000198    0.15    108.58   
    35. A(H  14,C   4,F  15)          104.74 -0.000796    0.27    105.02   
    36. A(C   5,C   4,F  15)          108.09  0.000583   -0.11    107.98   
    37. A(C   3,C   4,F  15)          106.90  0.000315   -0.17    106.73   
    38. A(C   3,C   4,H  14)          108.14  0.000043    0.22    108.35   
    39. A(C   5,C   4,H  14)          108.73  0.000459    0.03    108.76   
    40. A(C   3,C   4,C   5)          119.31 -0.000659   -0.18    119.12   
    41. A(H  12,C   5,H  13)          107.82 -0.002462    0.47    108.29   
    42. A(C   4,C   5,H  13)          107.69  0.000709   -0.14    107.55   
    43. A(C   0,C   5,C   4)          119.13  0.000007   -0.32    118.81   
    44. A(C   0,C   5,H  13)          108.10  0.001456   -0.28    107.82   
    45. A(C   4,C   5,H  12)          106.08 -0.000022    0.10    106.18   
    46. A(C   0,C   5,H  12)          107.55 -0.000074    0.27    107.81   
    47. D(C   2,C   1,C   0,C   5)    -64.51  0.000149   -0.88    -65.39   
    48. D(C   2,C   1,C   0,H   6)    178.53 -0.000086   -0.54    177.99   
    49. D(H   8,C   1,C   0,H   6)    -42.84 -0.000005   -0.93    -43.77   
    50. D(C   2,C   1,C   0,H   7)     50.85  0.000090   -0.84     50.00   
    51. D(H   8,C   1,C   0,C   5)     74.12  0.000229   -1.27     72.85   
    52. D(C   3,C   2,C   1,C   0)     93.76 -0.000556   -0.17     93.59   
    53. D(H   9,C   2,C   1,H   8)    179.47 -0.000767    0.57    180.04   
    54. D(C   3,C   2,C   1,H   8)    -43.74 -0.000731    0.30    -43.45   
    55. D(H   9,C   2,C   1,C   0)    -43.03 -0.000592    0.10    -42.93   
    56. D(H  10,C   3,C   2,C   1)    179.86 -0.000391    0.03    179.89   
    57. D(H  10,C   3,C   2,H   9)    -41.94 -0.000235   -0.20    -42.14   
    58. D(H  11,C   3,C   2,C   1)     50.34 -0.000133   -0.22     50.12   
    59. D(C   4,C   3,C   2,H   9)     73.84 -0.000100   -0.49     73.35   
    60. D(C   4,C   3,C   2,C   1)    -64.35 -0.000255   -0.26    -64.61   
    61. D(H  14,C   4,C   3,H  11)     38.50 -0.000127    2.11     40.61   
    62. D(C   5,C   4,C   3,C   2)     32.16 -0.000361    2.12     34.28   
    63. D(H  14,C   4,C   3,H  10)    -81.57 -0.000193    2.04    -79.53   
    64. D(H  14,C   4,C   3,C   2)    157.00 -0.000203    2.22    159.21   
    65. D(C   5,C   4,C   3,H  11)    -86.34 -0.000285    2.01    -84.33   
    66. D(C   5,C   4,C   3,H  10)    153.59 -0.000352    1.94    155.53   
    67. D(H  12,C   5,C   4,C   3)   -143.66  0.001045   -3.87   -147.53   
    68. D(C   0,C   5,C   4,F  15)     99.94  0.001382   -4.12     95.82   
    69. D(C   0,C   5,C   4,H  14)   -146.90  0.000978   -3.84   -150.73   
    70. D(C   0,C   5,C   4,C   3)    -22.34  0.000933   -3.65    -25.99   
    71. D(H  12,C   5,C   0,H   7)     35.01 -0.000283    2.61     37.62   
    72. D(H  12,C   5,C   0,H   6)    -85.58 -0.000353    2.46    -83.12   
    73. D(H  12,C   5,C   0,C   1)    152.81 -0.000426    2.70    155.51   
    74. D(C   4,C   5,C   0,H   7)    -85.57 -0.000197    2.48    -83.09   
    75. D(C   4,C   5,C   0,H   6)    153.83 -0.000267    2.33    156.17   
    76. D(H  12,C   5,C   4,H  14)     91.78  0.001090   -4.06     87.73   
    77. D(C   4,C   5,C   0,C   1)     32.23 -0.000339    2.57     34.80   
    78. D(H  12,C   5,C   4,F  15)    -21.38  0.001494   -4.34    -25.72   
    ----------------------------------------------------------------------------

Geometry step timings:
Preparation and reading OPT file:      0.000 s ( 1.509 %)
Internal coordinates            :      0.000 s ( 2.000 %)
B/P matrices and projection     :      0.001 s (17.965 %)
Hessian update/contruction      :      0.001 s (25.509 %)
Making the step                 :      0.001 s (17.649 %)
Converting the step to Cartesian:      0.000 s ( 2.737 %)
Storing new data                :      0.000 s ( 3.544 %)
Checking convergence            :      0.000 s ( 2.596 %)
Final printing                  :      0.001 s (26.351 %)
Total time                      :      0.003 s

Time for energy+gradient        :      0.032 s
Time for complete geometry iter :      0.036 s

         *************************************************************
         *                GEOMETRY OPTIMIZATION CYCLE   2            *
         *************************************************************
---------------------------------
CARTESIAN COORDINATES (ANGSTROEM)
---------------------------------
  C     0.239906    0.152562    0.412079
  C     1.364460    0.057318   -0.540815
  C     2.122110    1.188201   -0.528212
  C     3.262101    1.061912    0.401846
  C     2.449668    0.941452    1.760757
  C     1.077020    0.206513    1.759753
  H    -0.434883   -0.702081    0.436570
  H    -0.329007    1.074033    0.300686
  H     1.875523   -0.899626   -0.565037
  H     1.613274    2.145142   -0.503325
  H     3.921562    1.926241    0.470254
  H     3.840592    0.150243    0.261463
  H     0.464969    0.704291    2.513292
  H     1.252886   -0.818955    2.084618
  H     3.099730    0.474467    2.511988
  F     2.243359    2.230578    2.217026

----------------------------
CARTESIAN COORDINATES (A.U.)
----------------------------
  NO LB    ZA    FRAG    MASS        X           Y           Z
   0 C   6.0000    0    12.011    0.453357    0.288300    0.778717
   1 C   6.0000    0    12.011    2.578456    0.108315   -1.021991
   2 C   6.0000    0    12.011    4.010207    2.245375   -0.998177
   3 C   6.0000    0    12.011    6.164478    2.006723    0.759378
   4 C   6.0000    0    12.011    4.629202    1.779086    3.327348
   5 C   6.0000    0    12.011    2.035272    0.390253    3.325450
   6 H   1.0000    0     1.008   -0.821810   -1.326740    0.824999
   7 H   1.0000    0     1.008   -0.621732    2.029628    0.568215
   8 H   1.0000    0     1.008    3.544225   -1.700047   -1.067764
   9 H   1.0000    0     1.008    3.048646    4.053731   -0.951147
  10 H   1.0000    0     1.008    7.410678    3.640068    0.888651
  11 H   1.0000    0     1.008    7.257667    0.283918    0.494094
  12 H   1.0000    0     1.008    0.878664    1.330917    4.749433
  13 H   1.0000    0     1.008    2.367611   -1.547601    3.939357
  14 H   1.0000    0     1.008    5.857640    0.896613    4.746969
  15 F   9.0000    0    18.998    4.239334    4.215182    4.189571

      -----------------------------------------------------------      
     |                   =====================                   |     
     |                           x T B                           |     
     |                   =====================                   |     
     |                         S. Grimme                         |     
     |          Mulliken Center for Theoretical Chemistry        |     
     |                    University of Bonn                     |     
      -----------------------------------------------------------      

   * xtb version 6.7.1 (edcfbbe) compiled by 'albert@albert-system' on 2024-07-22

   xtb is free software: you can redistribute it and/or modify it under
   the terms of the GNU Lesser General Public License as published by
   the Free Software Foundation, either version 3 of the License, or
   (at your option) any later version.
   
   xtb is distributed in the hope that it will be useful,
   but WITHOUT ANY WARRANTY; without even the implied warranty of
   MERCHANTABILITY or FITNESS FOR A PARTICULAR PURPOSE.  See the
   GNU Lesser General Public License for more details.
   
   Cite this work as:
   * C. Bannwarth, E. Caldeweyher, S. Ehlert, A. Hansen, P. Pracht,
     J. Seibert, S. Spicher, S. Grimme, WIREs Comput. Mol. Sci., 2020, 11,
     e01493. DOI: 10.1002/wcms.1493
   
   for GFN2-xTB:
   * C. Bannwarth, S. Ehlert and S. Grimme., J. Chem. Theory Comput., 2019,
     15, 1652-1671. DOI: 10.1021/acs.jctc.8b01176
   for GFN1-xTB:
   * S. Grimme, C. Bannwarth, P. Shushkov, J. Chem. Theory Comput., 2017,
     13, 1989-2009. DOI: 10.1021/acs.jctc.7b00118
   for GFN0-xTB:
   * P. Pracht, E. Caldeweyher, S. Ehlert, S. Grimme, ChemRxiv, 2019, preprint.
     DOI: 10.26434/chemrxiv.8326202.v1
   for GFN-FF:
   * S. Spicher and S. Grimme, Angew. Chem. Int. Ed., 2020, 59, 15665-15673.
     DOI: 10.1002/anie.202004239
   
   for ALPB and GBSA implicit solvation:
   * S. Ehlert, M. Stahn, S. Spicher, S. Grimme, J. Chem. Theory Comput.,
     2021, 17, 4250-4261. DOI: 10.1021/acs.jctc.1c00471
   
   for ddCOSMO and CPCM-X implicit solvation:
   * M. Stahn, S. Ehlert, S. Grimme, J. Phys. Chem. A,
     2023, XX, XXXX-XXXX. DOI: 10.1021/acs.jpca.3c04382
   
   for DFT-D4:
   * E. Caldeweyher, C. Bannwarth and S. Grimme, J. Chem. Phys., 2017,
     147, 034112. DOI: 10.1063/1.4993215
   * E. Caldeweyher, S. Ehlert, A. Hansen, H. Neugebauer, S. Spicher,
     C. Bannwarth and S. Grimme, J. Chem. Phys., 2019, 150, 154122.
     DOI: 10.1063/1.5090222
   * E. Caldeweyher, J.-M. Mewes, S. Ehlert and S. Grimme, Phys. Chem. Chem. Phys.
     2020, 22, 8499-8512. DOI: 10.1039/D0CP00502A
   
   for sTDA-xTB:
   * S. Grimme and C. Bannwarth, J. Chem. Phys., 2016, 145, 054103.
     DOI: 10.1063/1.4959605
   
   in the mass-spec context:
   * V. Asgeirsson, C. Bauer and S. Grimme, Chem. Sci., 2017, 8, 4879.
     DOI: 10.1039/c7sc00601b
   * J. Koopman and S. Grimme, ACS Omega 2019, 4, 12, 15120-15133.
     DOI: 10.1021/acsomega.9b02011
   
   for metadynamics refer to:
   * S. Grimme, J. Chem. Theory Comput., 2019, 155, 2847-2862
     DOI: 10.1021/acs.jctc.9b00143
   
   for SPH calculations refer to:
   * S. Spicher and S. Grimme, J. Chem. Theory Comput., 2021, 17, 1701-1714
     DOI: 10.1021/acs.jctc.0c01306
   
   for ONIOM refer to:
   * C. Plett, A. Katbashev, S. Ehlert, S. Grimme, M. Bursch,
     Phys. Chem. Chem. Phys., 2023, 25, 17860-17868. DOI: 10.1039/D3CP02178E
   
   for DIPRO refer to:
   * J. Kohn, N. Gildemeister, S. Grimme, D. Fazzi, A. Hansen,
     J. Chem. Phys., 2023, just accepted.
   
   for PTB refer to:
   * S. Grimme, M. Mueller, A. Hansen, J. Chem. Phys., 2023, 158, 124111.
     DOI: 10.1063/5.0137838
   
   with help from (in alphabetical order)
   P. Atkinson, C. Bannwarth, F. Bohle, G. Brandenburg, E. Caldeweyher
   M. Checinski, S. Dohm, S. Ehlert, S. Ehrlich, I. Gerasimov, C. Hölzer
   A. Katbashev, J. Kohn, J. Koopman, C. Lavigne, S. Lehtola, F. März, M. Müller,
   F. Musil, H. Neugebauer, J. Pisarek, C. Plett, P. Pracht, F. Pultar,
   J. Seibert, P. Shushkov, S. Spicher, M. Stahn, M. Steiner, T. Strunk,
   J. Stückrath, T. Rose, and J. Unsleber
   
 * started run on 2026/03/15 at 21:59:08.680     
   ID    Z sym.   atoms
    1    6 C      1-6
    2    1 H      7-15
    3    9 F      16

           -------------------------------------------------
          |                Calculation Setup                |
           -------------------------------------------------

          program call               : /software/orca-6.1.0-el8-x86_64/bin/otool_xtb reactant_optfreq_XTB.xyz --grad -c 0 -u 0 -P 8 --namespace reactant_optfreq --input reactant_optfreq_XTB.input.tmp --acc 0.200000
          hostname                   : midway3-login3.rcc.local
          calculation namespace      : reactant_optfreq
          coordinate file            : reactant_optfreq_XTB.xyz
          omp threads                :                     8


           -------------------------------------------------
          |                 G F N 2 - x T B                 |
           -------------------------------------------------

        Reference                      10.1021/acs.jctc.8b01176
      * Hamiltonian:
        H0-scaling (s, p, d)           1.850000    2.230000    2.230000
        zeta-weighting                 0.500000
      * Dispersion:
        s8                             2.700000
        a1                             0.520000
        a2                             5.000000
        s9                             5.000000
      * Repulsion:
        kExp                           1.500000    1.000000
        rExp                           1.000000
      * Coulomb:
        alpha                          2.000000
        third order                    shell-resolved
        anisotropic                    true
        a3                             3.000000
        a5                             4.000000
        cn-shift                       1.200000
        cn-exp                         4.000000
        max-rad                        5.000000

q/qsh data taken from xtbrestart
CAMM data taken from xtbrestart

          ...................................................
          :                      SETUP                      :
          :.................................................:
          :  # basis functions                  37          :
          :  # atomic orbitals                  37          :
          :  # shells                           23          :
          :  # electrons                        40          :
          :  max. iterations                   250          :
          :  Hamiltonian                  GFN2-xTB          :
          :  restarted?                       true          :
          :  GBSA solvation                  false          :
          :  PC potential                    false          :
          :  electronic temp.          300.0000000     K    :
          :  accuracy                    0.2000000          :
          :  -> integral cutoff          0.3198970E+02      :
          :  -> integral neglect         0.2000000E-08      :
          :  -> SCF convergence          0.2000000E-06 Eh   :
          :  -> wf. convergence          0.2000000E-04 e    :
          :  Broyden damping             0.4000000          :
          :  net charge                          0          :
          :  unpaired electrons                  0          :
          ...................................................

 iter      E             dE          RMSdq      gap      omega  full diag
   1    -22.3395780 -0.223396E+02  0.106E-01    2.53       0.0  T
   2    -22.3395793 -0.129330E-05  0.641E-02    2.53       1.0  T
   3    -22.3395688  0.105382E-04  0.286E-02    2.53       1.0  T
   4    -22.3395794 -0.106109E-04  0.691E-03    2.53       3.6  T
   5    -22.3395800 -0.643791E-06  0.137E-03    2.53      18.2  T
   6    -22.3395800 -0.751747E-09  0.315E-04    2.53      79.3  T
   7    -22.3395800 -0.434277E-09  0.121E-04    2.53     206.8  T
   8    -22.3395800 -0.243752E-10  0.267E-05    2.53     938.1  T

   *** convergence criteria satisfied after 8 iterations ***

         #    Occupation            Energy/Eh            Energy/eV
      -------------------------------------------------------------
         1        2.0000           -0.8016665             -21.8145
       ...           ...                  ...                  ...
        14        2.0000           -0.4750781             -12.9275
        15        2.0000           -0.4598203             -12.5123
        16        2.0000           -0.4510040             -12.2724
        17        2.0000           -0.4490085             -12.2181
        18        2.0000           -0.4369799             -11.8908
        19        2.0000           -0.4351007             -11.8397
        20        2.0000           -0.3480478              -9.4709 (HOMO)
        21                         -0.2549753              -6.9382 (LUMO)
        22                          0.0011889               0.0324
        23                          0.0096627               0.2629
        24                          0.0303327               0.8254
        25                          0.1096433               2.9835
       ...                                ...                  ...
        37                          0.5102388              13.8843
      -------------------------------------------------------------
                  HL-Gap            0.0930726 Eh            2.5326 eV
             Fermi-level           -0.3015115 Eh           -8.2045 eV

 SCC (total)                   0 d,  0 h,  0 min,  0.011 sec
 SCC setup                      ...        0 min,  0.000 sec (  1.714%)
 Dispersion                     ...        0 min,  0.000 sec (  0.759%)
 classical contributions        ...        0 min,  0.000 sec (  0.198%)
 integral evaluation            ...        0 min,  0.000 sec (  4.185%)
 iterations                     ...        0 min,  0.009 sec ( 83.898%)
 molecular gradient             ...        0 min,  0.001 sec (  7.873%)
 printout                       ...        0 min,  0.000 sec (  1.234%)

         :::::::::::::::::::::::::::::::::::::::::::::::::::::
         ::                     SUMMARY                     ::
         :::::::::::::::::::::::::::::::::::::::::::::::::::::
         :: total energy             -22.072140007054 Eh    ::
         :: gradient norm              0.003296931034 Eh/a0 ::
         :: HOMO-LUMO gap              2.532634170043 eV    ::
         ::.................................................::
         :: SCC energy               -22.339560207671 Eh    ::
         :: -> isotropic ES            0.016542867749 Eh    ::
         :: -> anisotropic ES          0.002301737581 Eh    ::
         :: -> anisotropic XC          0.006282282751 Eh    ::
         :: -> dispersion             -0.010619101347 Eh    ::
         :: repulsion energy           0.267420200617 Eh    ::
         :: add. restraining           0.000000000000 Eh    ::
         :: total charge              -0.000000000000 e     ::
         :::::::::::::::::::::::::::::::::::::::::::::::::::::


Property printout bound to 'properties.out'

           -------------------------------------------------
          | TOTAL ENERGY              -22.072140007054 Eh   |
          | GRADIENT NORM               0.003296931034 Eh/α |
          | HOMO-LUMO GAP               2.532634170043 eV   |
           -------------------------------------------------

------------------------------------------------------------------------
 * finished run on 2026/03/15 at 21:59:08.703     
------------------------------------------------------------------------
 total:
 * wall-time:     0 d,  0 h,  0 min,  0.022 sec
 *  cpu-time:     0 d,  0 h,  0 min,  0.145 sec
 * ratio c/w:     6.507 speedup
 SCF:
 * wall-time:     0 d,  0 h,  0 min,  0.011 sec
 *  cpu-time:     0 d,  0 h,  0 min,  0.084 sec
 * ratio c/w:     7.458 speedup


-------------------------   --------------------
FINAL SINGLE POINT ENERGY       -22.072140007050
-------------------------   --------------------


-------------
DIPOLE MOMENT
-------------
                                X             Y             Z
Total Dipole Moment    :      0.03600      -0.79500       0.13900
                        -----------------------------------------
Magnitude (a.u.)       :      0.80786
Magnitude (Debye)      :      2.05342


------------------
CARTESIAN GRADIENT
------------------

   1   C   :    0.000507673   -0.000467727   -0.000380864
   2   C   :   -0.000604519   -0.000846349    0.000479315
   3   C   :    0.000610347    0.000549582    0.000376073
   4   C   :   -0.000394918    0.000656632   -0.000313717
   5   C   :    0.000585284   -0.000588804    0.000334543
   6   C   :   -0.000575340    0.000466512    0.000667957
   7   H   :    0.000543225   -0.000306527   -0.000252000
   8   H   :   -0.000099274    0.000045145    0.000188366
   9   H   :    0.000026871    0.000120553   -0.000583176
  10   H   :   -0.000116719   -0.000040350   -0.000318739
  11   H   :   -0.000296989    0.000211891   -0.000170509
  12   H   :   -0.000030255   -0.000036991    0.000136372
  13   H   :   -0.000516815    0.000986235   -0.000789715
  14   H   :   -0.000377437    0.000272134    0.000677020
  15   H   :    0.000561254   -0.000615735   -0.000751323
  16   F   :    0.000177612   -0.000406200    0.000700397

Difference to translation invariance:
           :   -0.0000000000   -0.0000000000   -0.0000000000

Difference to rotation invariance:
           :   -0.0000000997   -0.0000000273    0.0000000957

Norm of the Cartesian gradient     ...    0.0032969310
RMS gradient                       ...    0.0004758710
MAX gradient                       ...    0.0009862355
------------------------------------------------------------------------------
                         ORCA GEOMETRY RELAXATION STEP
------------------------------------------------------------------------------

Reading the OPT-File                    .... done
Getting information on internals        .... done
Copying old internal coords+grads       .... done
Making the new internal coordinates     .... (2022 redundants) done
Validating the new internal coordinates .... (2022 redundants) done
Calculating the B-matrix                .... done
Calculating the G,G- and P matrices     .... done
Transforming gradient to internals      .... done
Projecting the internal gradient        .... done
Number of atoms                         ....  16
Number of internal coordinates          ....  78
Current Energy                          ....   -22.072140007 Eh
Current gradient norm                   ....     0.003296931 Eh/bohr
Maximum allowed component of the step   ....  0.300
Current trust radius                    ....  0.300
Updating the Hessian (BFGS)             .... done
Forming the augmented Hessian           .... done
Diagonalizing the augmented Hessian     .... done
Last element of RFO vector              ....  0.817519336
Lowest eigenvalues of augmented Hessian:
 -0.001784295  0.003526549  0.016700901  0.033615805  0.047610274
Length of the computed step             ....  0.704449576
Warning: the length of the step is outside the trust region - taking restricted step instead
The input lambda is                     ....     0.000766
   iter:   5  x=   -0.004458  g=  126.649820 f(x)=     0.202847
   iter:  10  x=   -0.006576  g=   21.542378 f(x)=     0.000000
The output lambda is                    ....    -0.006576 (11 iterations)
The final length of the internal step   ....  0.300000000
Converting the step to Cartesian space:
 Initial RMS(Int)=    0.0339683110
Transforming coordinates:
 Iter   0:  RMS(Cart)=    0.0518383863 RMS(Int)=    0.0338043257
 Iter   5:  RMS(Cart)=    0.0000000165 RMS(Int)=    0.0000000132
done
Storing new coordinates                 .... done
The predicted energy change is          ....    -0.000681856
Previously predicted energy change      ....    -0.000367865
Actually observed energy change         ....    -0.000641230
Ratio of predicted to observed change   ....     1.743111292
New trust radius                        ....     0.200000000

                                .--------------------.
          ----------------------|Geometry convergence|-------------------------
          Item                value                   Tolerance       Converged
          ---------------------------------------------------------------------
          Energy change      -0.0006412297            0.0000050000      NO
          RMS gradient        0.0003763239            0.0001000000      NO
          MAX gradient        0.0012064588            0.0003000000      NO
          RMS step            0.0339683110            0.0020000000      NO
          MAX step            0.0991537385            0.0040000000      NO
          -------------------------------------------------------------------------
          ........................................................
          Max(Bonds)      0.0023      Max(Angles)    0.58
          Max(Dihed)        5.68      Max(Improp)    0.00
          ---------------------------------------------------------------------

The optimization has not yet converged - more geometry cycles are needed


    ---------------------------------------------------------------------------
                         Redundant Internal Coordinates
                            (Angstroem and degrees)

        Definition                    Value    dE/dq     Step     New-Value
    ----------------------------------------------------------------------------
     1. B(C   1,C   0)                1.4771 -0.000273  0.0011    1.4781   
     2. B(C   2,C   1)                1.3613  0.000691 -0.0006    1.3606   
     3. B(C   3,C   2)                1.4767 -0.000152  0.0010    1.4777   
     4. B(C   4,C   3)                1.5878  0.000178 -0.0014    1.5864   
     5. B(C   5,C   4)                1.5570  0.000307 -0.0023    1.5547   
     6. B(C   5,C   0)                1.5874  0.000045 -0.0013    1.5861   
     7. B(H   6,C   0)                1.0892 -0.000102  0.0003    1.0895   
     8. B(H   7,C   0)                1.0887  0.000071 -0.0001    1.0886   
     9. B(H   8,C   1)                1.0851 -0.000081  0.0002    1.0853   
    10. B(H   9,C   2)                1.0841  0.000012 -0.0001    1.0840   
    11. B(H  10,C   3)                1.0893 -0.000022  0.0001    1.0894   
    12. B(H  11,C   3)                1.0888 -0.000003  0.0001    1.0889   
    13. B(H  12,C   5)                1.0910  0.000194 -0.0007    1.0902   
    14. B(H  13,C   5)                1.0900 -0.000115  0.0003    1.0903   
    15. B(H  14,C   4)                1.0977  0.000080 -0.0004    1.0973   
    16. B(F  15,C   4)                1.3830 -0.000174  0.0004    1.3833   
    17. A(C   5,C   0,H   7)          109.49 -0.000204    0.25    109.74   
    18. A(C   1,C   0,C   5)           98.53  0.000358   -0.56     97.98   
    19. A(H   6,C   0,H   7)          110.04  0.000225   -0.04    110.00   
    20. A(C   1,C   0,H   6)          115.82 -0.000272    0.11    115.93   
    21. A(C   5,C   0,H   6)          109.53 -0.000009   -0.06    109.47   
    22. A(C   1,C   0,H   7)          112.73 -0.000101    0.26    112.99   
    23. A(C   0,C   1,C   2)          111.36 -0.000357    0.17    111.53   
    24. A(C   2,C   1,H   8)          118.08 -0.000008   -0.12    117.96   
    25. A(C   0,C   1,H   8)          115.46  0.000447   -0.44    115.02   
    26. A(C   1,C   2,C   3)          111.37 -0.000124    0.16    111.54   
    27. A(C   3,C   2,H   9)          115.05  0.000208   -0.29    114.76   
    28. A(C   1,C   2,H   9)          118.18 -0.000026   -0.07    118.11   
    29. A(C   2,C   3,C   4)           98.66  0.000319   -0.41     98.25   
    30. A(H  10,C   3,H  11)          110.54  0.000190   -0.04    110.50   
    31. A(C   2,C   3,H  11)          113.61 -0.000177    0.27    113.89   
    32. A(C   4,C   3,H  10)          108.43 -0.000098   -0.07    108.36   
    33. A(C   2,C   3,H  10)          116.04 -0.000102   -0.00    116.04   
    34. A(C   4,C   3,H  11)          108.58 -0.000133    0.22    108.80   
    35. A(H  14,C   4,F  15)          105.02 -0.000165    0.25    105.27   
    36. A(C   5,C   4,F  15)          107.98  0.000026    0.02    108.00   
    37. A(C   3,C   4,F  15)          106.74  0.000073   -0.07    106.67   
    38. A(C   3,C   4,H  14)          108.36 -0.000200    0.35    108.71   
    39. A(C   5,C   4,H  14)          108.77  0.000472   -0.15    108.61   
    40. A(C   3,C   4,C   5)          119.10 -0.000216   -0.33    118.77   
    41. A(H  12,C   5,H  13)          108.30 -0.001206    0.58    108.88   
    42. A(C   4,C   5,H  13)          107.56  0.000422   -0.19    107.37   
    43. A(C   0,C   5,C   4)          118.78  0.000046   -0.47    118.31   
    44. A(C   0,C   5,H  13)          107.83  0.000639   -0.30    107.53   
    45. A(C   4,C   5,H  12)          106.19  0.000076    0.08    106.27   
    46. A(C   0,C   5,H  12)          107.82 -0.000151    0.42    108.24   
    47. D(C   2,C   1,C   0,C   5)    -65.38  0.000075   -0.92    -66.31   
    48. D(C   2,C   1,C   0,H   6)    177.99 -0.000023   -0.55    177.44   
    49. D(H   8,C   1,C   0,H   6)    -43.77  0.000053   -1.04    -44.81   
    50. D(C   2,C   1,C   0,H   7)     50.00 -0.000004   -0.84     49.17   
    51. D(H   8,C   1,C   0,C   5)     72.85  0.000151   -1.41     71.44   
    52. D(C   3,C   2,C   1,C   0)     93.58  0.000040   -0.59     92.99   
    53. D(H   9,C   2,C   1,H   8)   -179.96 -0.000397    0.40   -179.56   
    54. D(C   3,C   2,C   1,H   8)    -43.45 -0.000241    0.05    -43.40   
    55. D(H   9,C   2,C   1,C   0)    -42.93 -0.000116   -0.24    -43.17   
    56. D(H  10,C   3,C   2,C   1)    179.90 -0.000116   -0.05    179.85   
    57. D(H  10,C   3,C   2,H   9)    -42.14 -0.000068   -0.29    -42.43   
    58. D(H  11,C   3,C   2,C   1)     50.12 -0.000119   -0.26     49.86   
    59. D(C   4,C   3,C   2,H   9)     73.35 -0.000029   -0.63     72.72   
    60. D(C   4,C   3,C   2,C   1)    -64.61 -0.000077   -0.39    -65.00   
    61. D(H  14,C   4,C   3,H  11)     40.61 -0.000055    2.68     43.29   
    62. D(C   5,C   4,C   3,C   2)     34.27 -0.000454    3.03     37.30   
    63. D(H  14,C   4,C   3,H  10)    -79.54 -0.000149    2.64    -76.90   
    64. D(H  14,C   4,C   3,C   2)    159.21 -0.000151    2.87    162.08   
    65. D(C   5,C   4,C   3,H  11)    -84.33 -0.000358    2.84    -81.49   
    66. D(C   5,C   4,C   3,H  10)    155.53 -0.000452    2.80    158.33   
    67. D(H  12,C   5,C   4,C   3)   -147.53  0.000999   -5.36   -152.90   
    68. D(C   0,C   5,C   4,F  15)     95.82  0.000856   -5.38     90.44   
    69. D(C   0,C   5,C   4,H  14)   -150.73  0.000913   -5.15   -155.88   
    70. D(C   0,C   5,C   4,C   3)    -26.00  0.000891   -5.06    -31.06   
    71. D(H  12,C   5,C   0,H   7)     37.62 -0.000279    3.40     41.03   
    72. D(H  12,C   5,C   0,H   6)    -83.13 -0.000423    3.33    -79.79   
    73. D(H  12,C   5,C   0,C   1)    155.50 -0.000294    3.52    159.02   
    74. D(C   4,C   5,C   0,H   7)    -83.09 -0.000287    3.27    -79.81   
    75. D(C   4,C   5,C   0,H   6)    156.16 -0.000431    3.21    159.37   
    76. D(H  12,C   5,C   4,H  14)     87.73  0.001020   -5.45     82.28   
    77. D(C   4,C   5,C   0,C   1)     34.79 -0.000301    3.39     38.18   
    78. D(H  12,C   5,C   4,F  15)    -25.72  0.000963   -5.68    -31.40   
    ----------------------------------------------------------------------------

Geometry step timings:
Preparation and reading OPT file:      0.000 s ( 0.909 %)
Internal coordinates            :      0.000 s ( 1.624 %)
B/P matrices and projection     :      0.001 s (16.596 %)
Hessian update/contruction      :      0.001 s (19.130 %)
Making the step                 :      0.001 s (27.217 %)
Converting the step to Cartesian:      0.000 s ( 2.436 %)
Storing new data                :      0.000 s ( 3.118 %)
Checking convergence            :      0.000 s ( 2.696 %)
Final printing                  :      0.001 s (26.242 %)
Total time                      :      0.003 s

Time for energy+gradient        :      0.031 s
Time for complete geometry iter :      0.036 s

         *************************************************************
         *                GEOMETRY OPTIMIZATION CYCLE   3            *
         *************************************************************
---------------------------------
CARTESIAN COORDINATES (ANGSTROEM)
---------------------------------
  C     0.235520    0.170625    0.419574
  C     1.356649    0.062621   -0.537830
  C     2.130498    1.181922   -0.528242
  C     3.266418    1.047725    0.407524
  C     2.438204    0.958750    1.757573
  C     1.089567    0.185552    1.755881
  H    -0.456632   -0.670519    0.440016
  H    -0.316036    1.104371    0.325074
  H     1.855849   -0.900968   -0.553475
  H     1.634593    2.145592   -0.505110
  H     3.937118    1.903757    0.471732
  H     3.834252    0.126999    0.282739
  H     0.481676    0.628692    2.544990
  H     1.307635   -0.850103    2.017939
  H     3.082833    0.537921    2.539529
  F     2.185126    2.259355    2.155027

----------------------------
CARTESIAN COORDINATES (A.U.)
----------------------------
  NO LB    ZA    FRAG    MASS        X           Y           Z
   0 C   6.0000    0    12.011    0.445068    0.322434    0.792880
   1 C   6.0000    0    12.011    2.563695    0.118336   -1.016351
   2 C   6.0000    0    12.011    4.026058    2.233509   -0.998234
   3 C   6.0000    0    12.011    6.172636    1.979913    0.770109
   4 C   6.0000    0    12.011    4.607538    1.811775    3.321332
   5 C   6.0000    0    12.011    2.058983    0.350642    3.318134
   6 H   1.0000    0     1.008   -0.862909   -1.267098    0.831511
   7 H   1.0000    0     1.008   -0.597221    2.086959    0.614301
   8 H   1.0000    0     1.008    3.507047   -1.702582   -1.045916
   9 H   1.0000    0     1.008    3.088932    4.054581   -0.954520
  10 H   1.0000    0     1.008    7.440075    3.597580    0.891444
  11 H   1.0000    0     1.008    7.245686    0.239993    0.534299
  12 H   1.0000    0     1.008    0.910236    1.188056    4.809333
  13 H   1.0000    0     1.008    2.471073   -1.606462    3.813353
  14 H   1.0000    0     1.008    5.825710    1.016523    4.799015
  15 F   9.0000    0    18.998    4.129289    4.269562    4.072412

      -----------------------------------------------------------      
     |                   =====================                   |     
     |                           x T B                           |     
     |                   =====================                   |     
     |                         S. Grimme                         |     
     |          Mulliken Center for Theoretical Chemistry        |     
     |                    University of Bonn                     |     
      -----------------------------------------------------------      

   * xtb version 6.7.1 (edcfbbe) compiled by 'albert@albert-system' on 2024-07-22

   xtb is free software: you can redistribute it and/or modify it under
   the terms of the GNU Lesser General Public License as published by
   the Free Software Foundation, either version 3 of the License, or
   (at your option) any later version.
   
   xtb is distributed in the hope that it will be useful,
   but WITHOUT ANY WARRANTY; without even the implied warranty of
   MERCHANTABILITY or FITNESS FOR A PARTICULAR PURPOSE.  See the
   GNU Lesser General Public License for more details.
   
   Cite this work as:
   * C. Bannwarth, E. Caldeweyher, S. Ehlert, A. Hansen, P. Pracht,
     J. Seibert, S. Spicher, S. Grimme, WIREs Comput. Mol. Sci., 2020, 11,
     e01493. DOI: 10.1002/wcms.1493
   
   for GFN2-xTB:
   * C. Bannwarth, S. Ehlert and S. Grimme., J. Chem. Theory Comput., 2019,
     15, 1652-1671. DOI: 10.1021/acs.jctc.8b01176
   for GFN1-xTB:
   * S. Grimme, C. Bannwarth, P. Shushkov, J. Chem. Theory Comput., 2017,
     13, 1989-2009. DOI: 10.1021/acs.jctc.7b00118
   for GFN0-xTB:
   * P. Pracht, E. Caldeweyher, S. Ehlert, S. Grimme, ChemRxiv, 2019, preprint.
     DOI: 10.26434/chemrxiv.8326202.v1
   for GFN-FF:
   * S. Spicher and S. Grimme, Angew. Chem. Int. Ed., 2020, 59, 15665-15673.
     DOI: 10.1002/anie.202004239
   
   for ALPB and GBSA implicit solvation:
   * S. Ehlert, M. Stahn, S. Spicher, S. Grimme, J. Chem. Theory Comput.,
     2021, 17, 4250-4261. DOI: 10.1021/acs.jctc.1c00471
   
   for ddCOSMO and CPCM-X implicit solvation:
   * M. Stahn, S. Ehlert, S. Grimme, J. Phys. Chem. A,
     2023, XX, XXXX-XXXX. DOI: 10.1021/acs.jpca.3c04382
   
   for DFT-D4:
   * E. Caldeweyher, C. Bannwarth and S. Grimme, J. Chem. Phys., 2017,
     147, 034112. DOI: 10.1063/1.4993215
   * E. Caldeweyher, S. Ehlert, A. Hansen, H. Neugebauer, S. Spicher,
     C. Bannwarth and S. Grimme, J. Chem. Phys., 2019, 150, 154122.
     DOI: 10.1063/1.5090222
   * E. Caldeweyher, J.-M. Mewes, S. Ehlert and S. Grimme, Phys. Chem. Chem. Phys.
     2020, 22, 8499-8512. DOI: 10.1039/D0CP00502A
   
   for sTDA-xTB:
   * S. Grimme and C. Bannwarth, J. Chem. Phys., 2016, 145, 054103.
     DOI: 10.1063/1.4959605
   
   in the mass-spec context:
[...]
     44       0.344521   0.072735  -0.254971  -0.212865   0.092901  -0.019548
     45       0.002864  -0.001526  -0.006324  -0.017057   0.005095  -0.000418
     46      -0.009726   0.003500   0.005573   0.007634  -0.003221   0.000310
     47       0.006296   0.003358  -0.010007  -0.018271   0.004145   0.000069
                 36         37         38         39         40         41    
      0       0.022806  -0.097565   0.032626   0.000583   0.033976  -0.032720
      1      -0.001305   0.010063   0.032003  -0.000566   0.048768  -0.026651
      2       0.001151   0.015940  -0.047696  -0.000171  -0.001321  -0.000769
      3      -0.006940   0.004625  -0.328909  -0.000164   0.000855  -0.004602
      4      -0.012996  -0.010859  -0.333956  -0.000129   0.000576   0.007787
      5       0.002213  -0.017015   0.061313  -0.000032  -0.000302   0.000435
      6       0.000033   0.010863   0.328423   0.000798   0.000737  -0.000893
      7       0.010304   0.015797   0.331273  -0.000938  -0.000996   0.001416
      8      -0.006797   0.002677   0.066043   0.000082   0.000175  -0.000126
      9       0.039922  -0.000363  -0.029599   0.000428  -0.000548  -0.001697
     10      -0.004978  -0.003995  -0.029625  -0.000497   0.004863   0.001534
     11       0.006523  -0.002249  -0.046305  -0.002260   0.000154   0.000201
     12       0.001538   0.001709   0.011713  -0.045259   0.001278   0.001388
     13      -0.001487   0.001986   0.002029   0.021183  -0.002099  -0.001257
     14       0.005291  -0.000342  -0.015940  -0.058693   0.001049  -0.000825
     15      -0.026856  -0.007886  -0.009736  -0.000783   0.022858   0.037483
     16      -0.043901  -0.012459  -0.000504  -0.002053  -0.052217  -0.048422
     17       0.054273   0.016738  -0.020688   0.000030  -0.004578  -0.035861
     18      -0.113716   0.490114   0.058140  -0.000874  -0.476127   0.376452
     19       0.105261  -0.461606  -0.014572  -0.001596  -0.544445   0.442529
     20      -0.011304   0.035024  -0.128176   0.000135   0.008597  -0.007293
     21      -0.147594   0.594037  -0.118211  -0.002140   0.065086   0.040358
     22      -0.083709   0.336356  -0.039775   0.006434  -0.070283  -0.119895
     23       0.028143  -0.024252   0.132230   0.000378   0.007224   0.009436
     24       0.016115  -0.016544   0.455858  -0.000912  -0.007283   0.049656
     25      -0.004203  -0.022098   0.042595   0.001971   0.012773  -0.105147
     26       0.007205   0.027724  -0.068947   0.000376   0.001035  -0.003586
     27       0.010488  -0.037935  -0.454875  -0.003178  -0.004475   0.005764
     28       0.013390  -0.006701  -0.036163   0.008195   0.006771  -0.010624
     29       0.013492   0.006436  -0.060378   0.001234  -0.000234   0.000961
     30      -0.206045  -0.013034  -0.073117  -0.007317  -0.016038   0.004299
     31       0.181566   0.007909   0.030427  -0.009861  -0.017670   0.007331
     32       0.014338  -0.008192  -0.123875  -0.000940  -0.000241  -0.000042
     33      -0.231655   0.001831   0.096545  -0.010753   0.023246   0.014175
     34      -0.142107  -0.002256   0.028193   0.020737  -0.041294  -0.026604
     35      -0.013263   0.014307   0.131550   0.003168  -0.004148  -0.002246
     36      -0.022552  -0.029839   0.017034   0.008487  -0.108834  -0.381311
     37       0.576951   0.159535  -0.080713  -0.007171   0.043579   0.205970
     38      -0.239587  -0.079398   0.034015  -0.012790   0.161686   0.522857
     39       0.332885   0.070378  -0.006867  -0.010088  -0.165929  -0.093705
     40      -0.009489  -0.009387   0.015099   0.038106   0.616101   0.385341
     41      -0.534175  -0.162401   0.089633  -0.004614  -0.100849  -0.079084
     42       0.012056  -0.004133  -0.013756   0.579650  -0.012225  -0.000801
     43      -0.019559  -0.005071   0.022773  -0.314795   0.007423   0.001154
     44      -0.008445   0.001076   0.008161   0.745817  -0.015907  -0.001269
     45      -0.000714   0.000057  -0.000773  -0.001266  -0.000122  -0.000132
     46       0.001575  -0.000160   0.000934   0.002940   0.000011   0.000081
     47      -0.000158   0.000107   0.001316  -0.000286   0.000016   0.000026
                 42         43         44         45         46         47    
      0       0.019360   0.001170   0.010285  -0.020136  -0.026687   0.003759
      1       0.017837   0.004357  -0.007975   0.030653   0.060419  -0.011762
      2      -0.001862  -0.000107   0.000370  -0.001743  -0.004053   0.000521
      3       0.002150   0.002243  -0.017837   0.020661  -0.016824   0.005712
      4      -0.004076  -0.004505   0.038171  -0.046406   0.038082  -0.008158
      5      -0.000184  -0.000416   0.001819  -0.002016   0.001590  -0.000871
      6       0.000910   0.002035  -0.004636  -0.000815   0.005686   0.032224
      7      -0.001694  -0.001156   0.007316   0.004830  -0.014325  -0.070854
      8       0.000125   0.000195  -0.000380   0.000319  -0.000235   0.000562
      9      -0.009905   0.054256   0.023551   0.011675  -0.003180   0.003685
     10      -0.007759   0.043781  -0.062148  -0.044101   0.007089  -0.016582
     11      -0.000709   0.002107  -0.006315  -0.003975   0.000488  -0.001892
     12      -0.001390   0.002112   0.001204   0.000645  -0.000909   0.001052
     13       0.001286   0.001226  -0.001971  -0.001543   0.001088  -0.001312
     14      -0.002803  -0.000185   0.000690   0.000182  -0.000482   0.000683
     15       0.018199   0.003035   0.001803  -0.000416  -0.007267   0.001674
     16       0.027652   0.005077  -0.002007   0.000119   0.015030  -0.004211
     17      -0.045904  -0.008823  -0.001423   0.000218   0.002288   0.000086
     18      -0.228586  -0.026397  -0.044759   0.023927  -0.048606   0.020365
     19      -0.267813  -0.029826  -0.061271   0.053519  -0.016627   0.018052
     20       0.003569  -0.000573   0.001478  -0.001695  -0.000472   0.000092
     21      -0.013505   0.013191  -0.089358   0.233984   0.371697  -0.069039
     22       0.049286  -0.023579   0.175130  -0.453123  -0.713569   0.126929
     23      -0.003815   0.001455  -0.010455   0.029576   0.050659  -0.007459
     24      -0.028614  -0.024778   0.229410  -0.283813   0.217344  -0.041666
     25       0.059743   0.049662  -0.472746   0.591273  -0.456276   0.089825
     26       0.002763   0.002037  -0.019463   0.020666  -0.015488   0.010541
     27      -0.007216  -0.013733   0.053029   0.041313  -0.090261  -0.416058
     28       0.013666   0.029062  -0.105099  -0.084475   0.183635   0.869858
     29      -0.000216  -0.000329   0.004868  -0.005517   0.003515   0.000107
     30       0.107353  -0.597473   0.098166   0.106892  -0.008089   0.041321
     31       0.133806  -0.743754   0.079401   0.105701  -0.005766   0.042995
     32       0.007619  -0.039750   0.003012   0.004444   0.000161   0.002335
     33       0.014263  -0.077663  -0.390633  -0.255515   0.052725  -0.078948
     34      -0.037421   0.200741   0.695005   0.446982  -0.090060   0.138167
     35      -0.003566   0.020308   0.075946   0.047330  -0.008201   0.017130
     36      -0.383942  -0.072569  -0.015570   0.001734   0.042778  -0.006131
     37       0.239810   0.045564   0.008295  -0.001717  -0.020709   0.002220
     38       0.509798   0.097141   0.021534  -0.003042  -0.060491   0.008403
     39       0.169544   0.031651  -0.002924  -0.002797   0.040101  -0.012325
     40      -0.577877  -0.109610   0.014758   0.009200  -0.154186   0.047911
     41       0.069329   0.013254  -0.002169  -0.002779   0.026710  -0.008591
     42       0.021578  -0.004322  -0.009158  -0.004340   0.007045  -0.008783
     43      -0.011463   0.003721   0.005160   0.002788  -0.003757   0.004151
     44       0.025467  -0.007764  -0.011893  -0.004950   0.008683  -0.010917
     45      -0.000015  -0.000035   0.000031   0.000011   0.000069  -0.000104
     46       0.000113  -0.000171   0.000123   0.000131  -0.000118   0.000260
     47       0.000040   0.000018  -0.000022  -0.000024  -0.000014  -0.000042


The first frequency considered to be a vibration is 6
The total number of vibrations considered is 42


--------------------------
THERMOCHEMISTRY AT 298.15K
--------------------------

Temperature         ...   298.15 K
Pressure            ...     1.00 atm
Total Mass          ...   100.14 AMU
Quasi RRHO          ...     True
Cut-Off Frequency   ...     1.00 cm^-1

Throughout the following assumptions are being made:
  (1) The electronic state is orbitally nondegenerate
  (2) There are no thermally accessible electronically excited states
  (3) Hindered rotations indicated by low frequency modes are not
      treated as such but are treated as vibrations and this may
      cause some error
  (4) All equations used are the standard statistical mechanics
      equations for an ideal gas
  (5) All vibrations are strictly harmonic

freq.     136.91  E(vib)   ...       0.42 
freq.     252.89  E(vib)   ...       0.30 
freq.     338.88  E(vib)   ...       0.23 
freq.     389.28  E(vib)   ...       0.20 
freq.     421.57  E(vib)   ...       0.18 
freq.     504.62  E(vib)   ...       0.14 
freq.     554.93  E(vib)   ...       0.12 
freq.     668.34  E(vib)   ...       0.08 
freq.     733.82  E(vib)   ...       0.06 
freq.     777.57  E(vib)   ...       0.05 
freq.     822.19  E(vib)   ...       0.05 
freq.     889.59  E(vib)   ...       0.04 
freq.     914.64  E(vib)   ...       0.03 
freq.     958.53  E(vib)   ...       0.03 
freq.     975.20  E(vib)   ...       0.03 
freq.    1026.33  E(vib)   ...       0.02 
freq.    1051.53  E(vib)   ...       0.02 
freq.    1086.16  E(vib)   ...       0.02 
freq.    1117.32  E(vib)   ...       0.01 
freq.    1122.01  E(vib)   ...       0.01 
freq.    1133.96  E(vib)   ...       0.01 
freq.    1181.81  E(vib)   ...       0.01 
freq.    1196.65  E(vib)   ...       0.01 
freq.    1249.71  E(vib)   ...       0.01 
freq.    1264.03  E(vib)   ...       0.01 
freq.    1285.30  E(vib)   ...       0.01 
freq.    1294.81  E(vib)   ...       0.01 
freq.    1300.28  E(vib)   ...       0.01 
freq.    1315.11  E(vib)   ...       0.01 
freq.    1446.73  E(vib)   ...       0.00 
freq.    1452.50  E(vib)   ...       0.00 
freq.    1467.91  E(vib)   ...       0.00 
freq.    1540.79  E(vib)   ...       0.00 
freq.    2895.66  E(vib)   ...       0.00 
freq.    2982.59  E(vib)   ...       0.00 
freq.    2985.62  E(vib)   ...       0.00 
freq.    2992.32  E(vib)   ...       0.00 
freq.    2995.67  E(vib)   ...       0.00 
freq.    3003.51  E(vib)   ...       0.00 
freq.    3007.98  E(vib)   ...       0.00 
freq.    3017.12  E(vib)   ...       0.00 
freq.    3036.46  E(vib)   ...       0.00 

------------
INNER ENERGY
------------

The inner energy is: U= E(el) + E(ZPE) + E(vib) + E(rot) + E(trans)
    E(el)   - is the total energy from the electronic structure calculation
              = E(kin-el) + E(nuc-el) + E(el-el) + E(nuc-nuc)
    E(ZPE)  - the the zero temperature vibrational energy from the frequency calculation
    E(vib)  - the the finite temperature correction to E(ZPE) due to population
              of excited vibrational states
    E(rot)  - is the rotational thermal energy
    E(trans)- is the translational thermal energy

Summary of contributions to the inner energy U:
Electronic energy                ...    -22.07330835 Eh
Zero point energy                ...      0.13393073 Eh      84.04 kcal/mol
Thermal vibrational correction   ...      0.00339947 Eh       2.13 kcal/mol
Thermal rotational correction    ...      0.00141627 Eh       0.89 kcal/mol
Thermal translational correction ...      0.00141627 Eh       0.89 kcal/mol
-----------------------------------------------------------------------
Total thermal energy                    -21.93314561 Eh


Summary of corrections to the electronic energy:
(perhaps to be used in another calculation)
Total thermal correction                  0.00623201 Eh       3.91 kcal/mol
Non-thermal (ZPE) correction              0.13393073 Eh      84.04 kcal/mol
-----------------------------------------------------------------------
Total correction                          0.14016274 Eh      87.95 kcal/mol


--------
ENTHALPY
--------

The enthalpy is H = U + kB*T
                kB is Boltzmann's constant
Total thermal energy              ...    -21.93314561 Eh 
Thermal Enthalpy correction       ...      0.00094421 Eh       0.59 kcal/mol
-----------------------------------------------------------------------
Total Enthalpy                    ...    -21.93220140 Eh


WARNING (ORCA/SYM): The number of Z matrix atoms does not agree with
the number of centers in the basis set. The point group will therefore
be determined without considering basis set information.


Note: Only C1 symmetry has been detected, increase convergence thresholds 
      if your molecule has a higher symmetry. Symmetry factor of 1.0 is   
      used for the rotational entropy correction. 
 

Note: Rotational entropy computed according to Herzberg 
Infrared and Raman Spectra, Chapter V,1, Van Nostrand Reinhold, 1945 
Point Group:  C1, Symmetry Number:   1  
Rotational constants in cm-1:     0.132986     0.093557     0.069954 

Vibrational entropy computed according to the QRRHO of S. Grimme
Chem.Eur.J. 2012 18 9955 using a reference frequency of 100.0 cm-1


-------
ENTROPY
-------

The entropy contributions are T*S = T*(S(el)+S(vib)+S(rot)+S(trans))
     S(el)   - electronic entropy
     S(vib)  - vibrational entropy
     S(rot)  - rotational entropy
     S(trans)- translational entropy
The entropies will be listed as multiplied by the temperature to get
units of energy

Electronic entropy                ...      0.00000000 Eh      0.00 kcal/mol
Vibrational entropy               ...      0.00523813 Eh      3.29 kcal/mol
Rotational entropy                ...      0.01283745 Eh      8.06 kcal/mol
Translational entropy             ...      0.01887317 Eh     11.84 kcal/mol
-----------------------------------------------------------------------
Final entropy term                ...      0.03694874 Eh     23.19 kcal/mol

In case the symmetry of your molecule has not been determined correctly
or in case you have a reason to use a different symmetry number we print 
out the resulting rotational entropy values for sn=1,12:

 non-linear molecules -----------------------------------
|  sn= 1 | S(rot)=       0.01283745 Eh      8.06 kcal/mol|
|  sn= 2 | S(rot)=       0.01218300 Eh      7.64 kcal/mol|
|  sn= 3 | S(rot)=       0.01180016 Eh      7.40 kcal/mol|
|  sn= 4 | S(rot)=       0.01152854 Eh      7.23 kcal/mol|
|  sn= 5 | S(rot)=       0.01131785 Eh      7.10 kcal/mol|
|  sn= 6 | S(rot)=       0.01114571 Eh      6.99 kcal/mol|
|  sn= 7 | S(rot)=       0.01100016 Eh      6.90 kcal/mol|
|  sn= 8 | S(rot)=       0.01087408 Eh      6.82 kcal/mol|
|  sn= 9 | S(rot)=       0.01076287 Eh      6.75 kcal/mol|
|  sn=10 | S(rot)=       0.01066339 Eh      6.69 kcal/mol|
|  sn=11 | S(rot)=       0.01057340 Eh      6.63 kcal/mol|
|  sn=12 | S(rot)=       0.01049125 Eh      6.58 kcal/mol|
 linear molecules ---------------------------------------
|  Dinfh | S(rot)=       0.00783725 Eh      4.92 kcal/mol|
|  Cinfv | S(rot)=       0.00849171 Eh      5.33 kcal/mol|
 --------------------------------------------------------


-------------------
GIBBS FREE ENERGY
-------------------

The Gibbs free energy is G = H - T*S

Total enthalpy                    ...    -21.93220140 Eh 
Total entropy correction          ...     -0.03694874 Eh    -23.19 kcal/mol
-----------------------------------------------------------------------
Final Gibbs free energy         ...    -21.96915014 Eh

For completeness - the Gibbs free energy minus the electronic energy
G-E(el)                           ...      0.10415821 Eh     65.36 kcal/mol


--------------------------------
SUGGESTED CITATIONS FOR THIS RUN
--------------------------------

Below you find a list of papers that are relevant to this ORCA run
We neither can nor want to force you to cite these papers, but we appreciate if you do
You receive ORCA, which is the product of decades of hard work by many enthusiastic individuals, for free
The only thing we kindly ask in return is that you cite our papers,
We deeply appreciate it, if you show your appreciation for ORCA by not just citing the generic ORCA reference.

Please note that relegating all ORCA citations to the supporting information does *not* help us.
SI sections are not indexed - citations you put there will not count into any citation statistics
But we need these citations in order to attract the funding resources that allow us to do what we are doing

Therefore, if you are a happy ORCA user, please consider citing a few of the papers listed below in the main body of your paper

In addition to the list printed below, the program has created the file reactant_optfreq.bibtex that contains the list in bibtex format
You can import this file easily into all common literature databanks and citation aid programs


List of essential papers. We consider these as the minimum necessary citations

  1. Bannwarth, C.; Ehlert, S.; Grimme, S.
     GFN2-xTB—An Accurate and Broadly Parametrized Self-Consistent Tight-Binding Quantum Chemical Method with Multipole Electrostatics and Density-Dependent Dispersion Contributions
     J. Chem. Theory Comput. 2019 15(3), 1652-1671
     doi.org/10.1021/acs.jctc.8b01176
  2. Neese, F.
     Software update: the ORCA program system, version 6.0
     WIRES Comput. Molec. Sci. 2025 15(1), e70019
     doi.org/10.1002/wcms.7019

List of papers to cite with high priority. The work reported in these papers was absolutely
necessary for this run to complete.
Our perspective: the developers of density functionals and basis sets usually get cited in chemistry papers
Good! But without the algorithms to do something with them, the functionals or basis sets would not do anything.
Hence, in our opinion, the algorithm design and method developments papers are equally worthy of getting cited

  1. Bykov, D.; Petrenko, T.; Izsak, R.; Kossmann, S.; Becker, U.; Valeev, E.; Neese, F.
     Efficient implementation of the analytic second derivatives of Hartree-Fock and hybrid DFT energies: a detailed analysis of different approximations
     Molec. Phys. 2015 113 , 1961-1977
     doi.org/10.1080/00268976.2015.1025114
  2. Bannwarth, C.; Caldeweyher, E.; Ehlert, S.; Hansen, A.; Pracht, P.; Seibert, J.; Spicher, S.; Grimme, S.
     Extended tight-binding quantum chemistry methods
     WIRES Comput. Molec. Sci. 2020 11(2), e1493
     doi.org/10.1002/wcms.1493

List of suggested additional citations. These are papers that are important in the 'surrounding' of 
of this run, or papers that preceded the highly important papers. If you like your results we are grateful for a citation.

  1. Neese, F.
     The ORCA program system
     WIRES Comput. Molec. Sci. 2012 2(1), 73-78
     doi.org/10.1002/wcms.81
  2. Neese, F.
     Software update: the ORCA program system, version 4.0
     WIRES Comput. Molec. Sci. 2018 8(1), 1-6
     doi.org/10.1002/wcms.1327
  3. Neese, F.; Wennmohs, F.; Becker, U.; Riplinger, C.
     The ORCA quantum chemistry program package
     J. Chem. Phys. 2020 152(22), 224108
     doi.org/10.1063/5.0004608
  4. Neese, F.
     Software update: The ORCA program system—Version 5.0
     WIRES Comput. Molec. Sci. 2022 12(1), e1606
     doi.org/10.1002/wcms.1606

List of optional additional citations

  1. Neese, F.
     Approximate second-order SCF convergence for spin unrestricted wavefunctions
     Chem. Phys. Lett. 2000 325(1-3), 93-98
     doi.org/10.1016/s0009-2614(00)00662-x

Timings for individual modules:

Sum of individual times          ...        0.504 sec (=   0.008 min)
Geometry relaxation              ...        0.026 sec (=   0.000 min)   5.2 %
XTB module                       ...        0.477 sec (=   0.008 min)  94.8 %
                             ****ORCA TERMINATED NORMALLY****
TOTAL RUN TIME: 0 days 0 hours 0 minutes 0 seconds 961 msec
