
                                 *****************
                                 * O   R   C   A *
                                 *****************

                                            #,                                       
                                            ###                                      
                                            ####                                     
                                            #####                                    
                                            ######                                   
                                           ########,                                 
                                     ,,################,,,,,                         
                               ,,#################################,,                 
                          ,,##########################################,,             
                       ,#########################################, ''#####,          
                    ,#############################################,,   '####,        
                  ,##################################################,,,,####,       
                ,###########''''           ''''###############################       
              ,#####''   ,,,,##########,,,,          '''####'''          '####       
            ,##' ,,,,###########################,,,                        '##       
           ' ,,###''''                  '''############,,,                           
         ,,##''                                '''############,,,,        ,,,,,,###''
      ,#''                                            '''#######################'''  
     '                                                          ''''####''''         
             ,#######,   #######,   ,#######,      ##                                
            ,#'     '#,  ##    ##  ,#'     '#,    #''#        ,####,    ,#,          
            ##       ##  ##   ,#'  ##            #'  '#       #'       ,# #          
            ##       ##  #######   ##           ,######,      #####,      #          
            '#,     ,#'  ##    ##  '#,     ,#' ,#      #,     #,   #      #          
             '#######'   ##     ##  '#######'  #'      '#     '####' #    #          



                #########################################################
                #                        -***-                          #
                #          Department of theory and spectroscopy        #
                #                                                       #
                #                      Frank Neese                      #
                #                                                       #
                #     Directorship, Architecture, Infrastructure        #
                #                    SHARK, DRIVERS                     #
                #        Core code/Algorithms in most modules           #
                #                                                       #
                #        Max Planck Institute fuer Kohlenforschung      #
                #                Kaiser Wilhelm Platz 1                 #
                #                 D-45470 Muelheim/Ruhr                 #
                #                      Germany                          #
                #                                                       #
                #                  All rights reserved                  #
                #                        -***-                          #
                #########################################################


                         Program Version 6.1.0  -  RELEASE   -
                                (GIT: $679e74b$)
                          ($2025-06-10 18:02:51 +0200$)


 With contributions from (in alphabetic order):
[Max-Planck-Institut fuer Kohlenforschung]                               
  Daniel Aravena         : Magnetic Suceptibility                        
  Michael Atanasov       : Ab Initio Ligand Field Theory (pilot matlab implementation)
  Alexander A. Auer      : GIAO ZORA, VPT2 properties, NMR spectrum      
  Ute Becker             : All parallelization in ORCA, NUMFREQ, NUMCALC 
  Giovanni Bistoni       : ED, misc. LED, open-shell LED, HFLD           
  Dmytro Bykov           : pre 5.0 version of the SCF Hessian            
  Marcos Casanova-Páez   : Triplet and SCS-CIS(D). UHF-(DLPNO)-IP/EA/STEOM-CCSD. UHF-CVS-IP/STEOM-CCSD   
  Vijay G. Chilkuri      : MRCI spin determinant printing, contributions to CSF-ICE 
  Pauline Colinet        : FMM embedding                                 
  Dipayan Datta          : RHF DLPNO-CCSD density                        
  Achintya Kumar Dutta   : EOM-CC, STEOM-CC                              
  Nicolas Foglia         : Exact transition moments, OPA infrastructure, MCD improvements    
  Dmitry Ganyushin       : Spin-Orbit,Spin-Spin,Magnetic field MRCI      
  Miquel Garcia-Rates    : C-PCM and meta-GGA Hessian, CCSD/C-PCM, Gaussian charge scheme 
  Tiago L. C. Gouveia    : GS-ROHF, GS-ROCIS                             
  Yang Guo               : DLPNO-NEVPT2, F12-NEVPT2, CIM, IAO-localization        
  Andreas Hansen         : Spin unrestricted coupled pair/coupled cluster methods 
  Ingolf Harden          : AUTO-CI MPn and infrastructure                
  Benjamin Helmich-Paris : MC-RPA, TRAH-(SCF,CASSCF), AVAS, COSX integrals, SCF dyn. polar., MC-PDFT, srDFT 
  Lee Huntington         : MR-EOM, pCC                                   
  Robert Izsak           : Overlap fitted RIJCOSX, COSX-SCS-MP3, EOM     
  Riya Kayal             : Wick's Theorem for AUTO-CI, AUTO-CI UHF-CCSDT 
  Emily Kempfer          : AUTO-CI RHF CISDT and CCSDT, approximate NEVPT4
  Christian Kollmar      : KDIIS, OOCD, Brueckner-CCSD(T), CCSD density, CASPT2, CASPT2-K, improved NEVPT2 
  Axel Koslowski         : Symmetry handling                             
  Simone Kossmann        : meta-GGA functionals, TD-DFT gradient, OOMP2, (MP2 Hessian; deprecated post 5.0) 
  Lucas Lang             : DCDCAS, Hyperfine gauge corrections, ICE-SOC+SSC
  Marvin Lechner         : AUTO-CI (C++ implementation), FIC-MRCC        
  Spencer Leger          : CASSCF response                               
  Dagmar Lenk            : GEPOL surface, SMD, ORCA-2-JSON               
  Dimitrios Liakos       : Extrapolation schemes; Compound Job, Property file
  Dimitrios Manganas     : Further ROCIS development; embedding schemes. LFT, Crystal Embedding 
  Dimitrios Pantazis     : SARC Basis sets                               
  Anastasios Papadopoulos: AUTO-CI, single reference methods and gradients 
  Taras Petrenko         : pre 6.0 DFT Hessian and TD-DFT gradient,  ECA, NRVS 
  Petra Pikulova         : Analytic Raman intensities                    
  Peter Pinski           : DLPNO-MP2, DLPNO-MP2 Gradient                 
  Shashank Vittal Rao    : ES-AILFT, MagRelax                            
  Christoph Reimann      : Effective Core Potentials                     
  Marius Retegan         : Local ZFS, SOC                                
  Christoph Riplinger    : Optimizer, TS searches, QM/MM, DLPNO-CCSD(T), (RO)-DLPNO pert. Triples 
  Michael Roemelt        : Original ROCIS implementation, recursive CI coupling coefficients
  Masaaki Saitow         : Open-shell DLPNO-CCSD energy and density      
  Barbara Sandhoefer     : DKH picture change effects                    
  Yorick L. A. Schmerwitz: GMF and freeze-and-release deltaSCF, NEB S-IDPP initial path                    
  Kantharuban Sivalingam : CASSCF convergence/infrastructure, NEVPT2, NEVPT3, NEVPT4(SD), FIC-MRCI and CEPA variants
  Bernardo de Souza      : ESD, SOC TD-DFT                               
  Georgi L. Stoychev     : AutoAux, RI-MP2 NMR, DLPNO-MP2 response, X2C  
  Van Anh Tran           : RI-MP2 g-tensors                              
  Willem Van den Heuvel  : Paramagnetic NMR                              
  Zikuan Wang            : NOTCH, Electric field optimization            
  Frank Wennmohs         : Technical directorship and infrastructure     
  Hang Xu                : AUTO-CI-Response properties                   
                                                                         
[FACCTs GmbH]                                                            
  Markus Bursch, Nicolas Foglia, Miquel Garcia-Rates, Ingolf Harden, Hagen Neugebauer, Anastasios Papadopoulos, 
  Christoph Riplinger, Bernardo de Souza, Georgi L. Stoychev                                                    
                                                                 
  APM, various basis sets, CI-OPT, improved COSX, DLPNO-Multilevel,           
  DOCKER, DRACO, updates on ESD, Fragmentator, GOAT, IRC, LR-CPCM, L-BFGS, MBIS, meta-GGA TD-DFT gradient, ML-optimized integration grids, 
  MM, NACMEs, nearIR, NEB, NEB-TS, NL-DFT gradient (VV10), 2- and 3-layer-ONIOM, interface openCOSMO-RS, QMMM,   
  Crystal-QMMM, RESP, rigid body optimization, SF, symmetry and pop. for TD-DFT, various functionals, SOLVATOR                                   
                                                                         
[Other institutions]                                                     
  V. Asgeirsson          : NEB                                           
  Christoph Bannwarth    : sTDA-DFT, sTD-DFT, PBEh-3c, B97-3c, D3        
  Giovanni Bistoni       : ETS/NOCV, ADLD/ADEX, COVALED                  
  Martin Brehm           : Molecular dynamics                            
  Ronald Cardenas        : ETS/NOCV                                      
  Martina Colucci        : COVALED                                       
  Sebastian Ehlert       : rSCAN, r2SCAN, r2SCAN-3c, D4, dhf basis sets  
  Marvin Friede          : D4 for Fr, Ra, Ac-Lr                          
  Lars Goerigk           : TD-DFT with DH, B97 family of functionals     
  Stefan Grimme          : VdW corrections, initial TS optimization, DFT functionals, gCP, sTDA/sTD-DF 
  Waldemar Hujo          : DFT-NL                                        
  H. Jonsson             : NEB                                           
  Holger Kruse           : gCP                                           
  Marcel Mueller         : wB97X-3c, vDZP basis set                      
  Hagen Neugebauer       : wr2SCAN, Native XTB                           
  Gianluca Regni         : ADLD/ADEX                                     
  Tobias Risthaus        : pre 6.0 range-separated hybrid DFT and stability analysis
  Lukas Wittmann         : regularized MP2, r2SCAN double-hybrids, wr2SCAN        
                                                                         
We gratefully acknowledge several colleagues who have allowed us to      
interface, adapt or use parts of their codes:                            
  Ed Valeev, F. Pavosevic, A. Kumar             : LibInt (2-el integral package), F12 methods 
  Garnet Chan, S. Sharma, J. Yang, R. Olivares  : DMRG                   
  Ulf Ekstrom                                   : XCFun DFT Library      
  Mihaly Kallay                                 : mrcc  (arbitrary order and MRCC methods)
  Frank Weinhold                                : gennbo (NPA and NBO analysis)           
  Simon Mueller                                 : openCOSMO-RS                            
  Christopher J. Cramer and Donald G. Truhlar   : smd solvation model                     
  S Lehtola, MJT Oliveira, MAL Marques          : LibXC Library                           
  Liviu Ungur et al                             : ANISO software                          


 Your calculation uses the libint2 library for the computation of 2-el integrals
 For citations please refer to: http://libint.valeyev.net

 Your ORCA version has been built with support for libXC version: 7.0.0
 For citations please refer to: https://libxc.gitlab.io

 This ORCA versions uses:
   CBLAS   interface :  Fast vector & matrix operations
   LAPACKE interface :  Fast linear algebra routines
   SCALAPACK package :  Parallel linear algebra routines
   Shared memory     :  Shared parallel matrices
   BLAS/LAPACK       :  OpenBLAS 0.3.29  USE64BITINT DYNAMIC_ARCH NO_AFFINITY SkylakeX SINGLE_THREADED
        Core in use  :  SkylakeX
   Copyright (c) 2011-2014, The OpenBLAS Project


  ***********************************
  * Starting time: Mon Mar 16 14:14:07 2026
  * Host name:     midway3-login4.rcc.local
  * Process ID:    46733
  * Working dir.:  /home/rzhu16/evans-polanyi-principle-validation/runs/sn2_f_br/TS_search
  ***********************************

Your calculation utilizes the semiempirical GFN2-xTB method
Please cite in your paper:
Bannwarth, C.; Ehlert S.; Grimme, S. J. Chem. Theory Comput. 2019, 15, 1652.
   

================================================================================

================================================================================
                                        WARNINGS
                       Please study these warnings very carefully!
================================================================================


WARNING: Analytical Hessian for XTB is limited in the analysis of the data.
       : If you want to obtain extensive IR and deltaG analysis, please use ! XTB NumFreq. 


WARNING: Geometry Optimization
  ===> : Switching off AutoStart
         For restart on a previous wavefunction, please use MOREAD

WARNING: Found dipole moment calculation with XTB calculation
  ===> : Switching off dipole moment calculation


WARNING: Found frequency calculation in combination with XTB calculation
  ===> : Need to redirect dipole moment calculation to properties.out


================================================================================
                                       INPUT FILE
================================================================================
NAME = sn2_f_br.inp
|  1> ! XTB2 OptTS Freq PAL8
|  2> 
|  3> %geom
|  4>   Calc_Hess true
|  5>   Recalc_Hess 3
|  6>   MaxIter 200
|  7>   Trust -0.1
|  8> end
|  9> 
| 10> * xyz -1 1
| 11> C    0.000000   0.000000   0.169440
| 12> H    0.000000   1.085000   0.000000
| 13> H    0.939638  -0.542500   0.000000
| 14> H   -0.939638  -0.542500   0.000000
| 15> F    0.000000   0.000000   2.073840
| 16> Br   0.000000   0.000000  -2.158560
| 17> *
| 18> 
| 19>                          ****END OF INPUT****
================================================================================

                       *****************************
                       * Geometry Optimization Run *
                       *****************************

Geometry optimization settings:
Update method            Update   .... Bofill
Choice of coordinates    CoordSys .... (2022) Redundant Internals
Initial Hessian          InHess   .... Almloef's Model
Max. no of cycles        MaxIter  .... 200

Convergence Tolerances:
Energy Change            TolE     ....  5.0000e-06 Eh
Max. Gradient            TolMAXG  ....  3.0000e-04 Eh/bohr
RMS Gradient             TolRMSG  ....  1.0000e-04 Eh/bohr
Max. Displacement        TolMAXD  ....  4.0000e-03 bohr
RMS Displacement         TolRMSD  ....  2.0000e-03 bohr
Strict Convergence                .... False

------------------------------------------------------------------------------
                        ORCA OPTIMIZATION COORDINATE SETUP
------------------------------------------------------------------------------

The optimization will be done in redundant internal coordinates (2022)
Making redundant internal coordinates   ...  (2022 redundants) done
Following TS mode number                ...     0
Evaluating the initial hessian          ...  (Is done on the fly) done
Evaluating the coordinates              ...  done
Calculating the B-matrix                .... done
Calculating the G-matrix                .... done
The number of degrees of freedom        ....   14

    -----------------------------------------------------------------
                    Redundant Internal Coordinates


    -----------------------------------------------------------------
         Definition                    Initial Value    d2E/dq (diagonal element)
    -----------------------------------------------------------------
      1. B(H   1,C   0)                  1.0982         0.000000   
      2. B(H   2,C   0)                  1.0982         0.000000   
      3. B(H   3,C   0)                  1.0982         0.000000   
      4. B(F   4,C   0)                  1.9044         0.000000   
      5. B(Br  5,C   0)                  2.3280         0.000000   
      6. A(H   1,C   0,H   3)          117.6642         0.000000   
      7. A(H   2,C   0,H   3)          117.6643         0.000000   
      8. A(H   1,C   0,F   4)           98.8760         0.000000   
      9. A(H   2,C   0,F   4)           98.8760         0.000000   
     10. A(H   3,C   0,F   4)           98.8760         0.000000   
     11. A(H   1,C   0,Br  5)           81.1240         0.000000   
     12. A(H   2,C   0,Br  5)           81.1240         0.000000   
     13. A(H   3,C   0,Br  5)           81.1240         0.000000   
     14. A(H   1,C   0,H   2)          117.6642         0.000000   
    -----------------------------------------------------------------

Number of atoms                         .... 6
Number of degrees of freedom            .... 14


         *************************************************************
         *                GEOMETRY OPTIMIZATION CYCLE   1            *
         *************************************************************
---------------------------------
CARTESIAN COORDINATES (ANGSTROEM)
---------------------------------
  C     0.000000    0.000000    0.169440
  H     0.000000    1.085000    0.000000
  H     0.939638   -0.542500    0.000000
  H    -0.939638   -0.542500    0.000000
  F     0.000000    0.000000    2.073840
  Br    0.000000    0.000000   -2.158560

----------------------------
CARTESIAN COORDINATES (A.U.)
----------------------------
  NO LB    ZA    FRAG    MASS        X           Y           Z
   0 C   6.0000    0    12.011    0.000000    0.000000    0.320195
   1 H   1.0000    0     1.008    0.000000    2.050353    0.000000
   2 H   1.0000    0     1.008    1.775658   -1.025176    0.000000
   3 H   1.0000    0     1.008   -1.775658   -1.025176    0.000000
   4 F   9.0000    0    18.998    0.000000    0.000000    3.918990
   5 Br 35.0000    0    79.900    0.000000    0.000000   -4.079087

      -----------------------------------------------------------      
     |                   =====================                   |     
     |                           x T B                           |     
     |                   =====================                   |     
     |                         S. Grimme                         |     
     |          Mulliken Center for Theoretical Chemistry        |     
     |                    University of Bonn                     |     
      -----------------------------------------------------------      

   * xtb version 6.7.1 (edcfbbe) compiled by 'albert@albert-system' on 2024-07-22

   xtb is free software: you can redistribute it and/or modify it under
   the terms of the GNU Lesser General Public License as published by
   the Free Software Foundation, either version 3 of the License, or
   (at your option) any later version.
   
   xtb is distributed in the hope that it will be useful,
   but WITHOUT ANY WARRANTY; without even the implied warranty of
   MERCHANTABILITY or FITNESS FOR A PARTICULAR PURPOSE.  See the
   GNU Lesser General Public License for more details.
   
   Cite this work as:
   * C. Bannwarth, E. Caldeweyher, S. Ehlert, A. Hansen, P. Pracht,
     J. Seibert, S. Spicher, S. Grimme, WIREs Comput. Mol. Sci., 2020, 11,
     e01493. DOI: 10.1002/wcms.1493
   
   for GFN2-xTB:
   * C. Bannwarth, S. Ehlert and S. Grimme., J. Chem. Theory Comput., 2019,
     15, 1652-1671. DOI: 10.1021/acs.jctc.8b01176
   for GFN1-xTB:
   * S. Grimme, C. Bannwarth, P. Shushkov, J. Chem. Theory Comput., 2017,
     13, 1989-2009. DOI: 10.1021/acs.jctc.7b00118
   for GFN0-xTB:
   * P. Pracht, E. Caldeweyher, S. Ehlert, S. Grimme, ChemRxiv, 2019, preprint.
     DOI: 10.26434/chemrxiv.8326202.v1
   for GFN-FF:
   * S. Spicher and S. Grimme, Angew. Chem. Int. Ed., 2020, 59, 15665-15673.
     DOI: 10.1002/anie.202004239
   
   for ALPB and GBSA implicit solvation:
   * S. Ehlert, M. Stahn, S. Spicher, S. Grimme, J. Chem. Theory Comput.,
     2021, 17, 4250-4261. DOI: 10.1021/acs.jctc.1c00471
   
   for ddCOSMO and CPCM-X implicit solvation:
   * M. Stahn, S. Ehlert, S. Grimme, J. Phys. Chem. A,
     2023, XX, XXXX-XXXX. DOI: 10.1021/acs.jpca.3c04382
   
   for DFT-D4:
   * E. Caldeweyher, C. Bannwarth and S. Grimme, J. Chem. Phys., 2017,
     147, 034112. DOI: 10.1063/1.4993215
   * E. Caldeweyher, S. Ehlert, A. Hansen, H. Neugebauer, S. Spicher,
     C. Bannwarth and S. Grimme, J. Chem. Phys., 2019, 150, 154122.
     DOI: 10.1063/1.5090222
   * E. Caldeweyher, J.-M. Mewes, S. Ehlert and S. Grimme, Phys. Chem. Chem. Phys.
     2020, 22, 8499-8512. DOI: 10.1039/D0CP00502A
   
   for sTDA-xTB:
   * S. Grimme and C. Bannwarth, J. Chem. Phys., 2016, 145, 054103.
     DOI: 10.1063/1.4959605
   
   in the mass-spec context:
   * V. Asgeirsson, C. Bauer and S. Grimme, Chem. Sci., 2017, 8, 4879.
     DOI: 10.1039/c7sc00601b
   * J. Koopman and S. Grimme, ACS Omega 2019, 4, 12, 15120-15133.
     DOI: 10.1021/acsomega.9b02011
   
   for metadynamics refer to:
   * S. Grimme, J. Chem. Theory Comput., 2019, 155, 2847-2862
     DOI: 10.1021/acs.jctc.9b00143
   
   for SPH calculations refer to:
   * S. Spicher and S. Grimme, J. Chem. Theory Comput., 2021, 17, 1701-1714
     DOI: 10.1021/acs.jctc.0c01306
   
   for ONIOM refer to:
   * C. Plett, A. Katbashev, S. Ehlert, S. Grimme, M. Bursch,
     Phys. Chem. Chem. Phys., 2023, 25, 17860-17868. DOI: 10.1039/D3CP02178E
   
   for DIPRO refer to:
   * J. Kohn, N. Gildemeister, S. Grimme, D. Fazzi, A. Hansen,
     J. Chem. Phys., 2023, just accepted.
   
   for PTB refer to:
   * S. Grimme, M. Mueller, A. Hansen, J. Chem. Phys., 2023, 158, 124111.
     DOI: 10.1063/5.0137838
   
   with help from (in alphabetical order)
   P. Atkinson, C. Bannwarth, F. Bohle, G. Brandenburg, E. Caldeweyher
   M. Checinski, S. Dohm, S. Ehlert, S. Ehrlich, I. Gerasimov, C. Hölzer
   A. Katbashev, J. Kohn, J. Koopman, C. Lavigne, S. Lehtola, F. März, M. Müller,
   F. Musil, H. Neugebauer, J. Pisarek, C. Plett, P. Pracht, F. Pultar,
   J. Seibert, P. Shushkov, S. Spicher, M. Stahn, M. Steiner, T. Strunk,
   J. Stückrath, T. Rose, and J. Unsleber
   
 * started run on 2026/03/16 at 14:14:08.574     
   ID    Z sym.   atoms
    1    6 C      1
    2    1 H      2-4
    3    9 F      5
    4   35 Br     6

           -------------------------------------------------
          |                Calculation Setup                |
           -------------------------------------------------

          program call               : /software/orca-6.1.0-el8-x86_64/bin/otool_xtb sn2_f_br_XTB.xyz --grad -c -1 -u 0 -P 8 --namespace sn2_f_br --input sn2_f_br_XTB.input.tmp --acc 0.200000
          hostname                   : midway3-login4.rcc.local
          calculation namespace      : sn2_f_br
          coordinate file            : sn2_f_br_XTB.xyz
          omp threads                :                     8


molecular fragmentation (1/2 indicates fragments):
111121
# atoms in fragment 1/2:     5     1
 fragment masses (1/2) :       94.94       19.00
CMA distance (Bohr)    :   7.312
constraining FC (au)   :  0.0500

           -------------------------------------------------
          |                 G F N 2 - x T B                 |
           -------------------------------------------------

        Reference                      10.1021/acs.jctc.8b01176
      * Hamiltonian:
        H0-scaling (s, p, d)           1.850000    2.230000    2.230000
        zeta-weighting                 0.500000
      * Dispersion:
        s8                             2.700000
        a1                             0.520000
        a2                             5.000000
        s9                             5.000000
      * Repulsion:
        kExp                           1.500000    1.000000
        rExp                           1.000000
      * Coulomb:
        alpha                          2.000000
        third order                    shell-resolved
        anisotropic                    true
        a3                             3.000000
        a5                             4.000000
        cn-shift                       1.200000
        cn-exp                         4.000000
        max-rad                        5.000000


          ...................................................
          :                      SETUP                      :
          :.................................................:
          :  # basis functions                  21          :
          :  # atomic orbitals                  20          :
          :  # shells                           10          :
          :  # electrons                        22          :
          :  max. iterations                   250          :
          :  Hamiltonian                  GFN2-xTB          :
          :  restarted?                      false          :
          :  GBSA solvation                  false          :
          :  PC potential                    false          :
          :  electronic temp.          300.0000000     K    :
          :  accuracy                    0.2000000          :
          :  -> integral cutoff          0.3198970E+02      :
          :  -> integral neglect         0.2000000E-08      :
          :  -> SCF convergence          0.2000000E-06 Eh   :
          :  -> wf. convergence          0.2000000E-04 e    :
          :  Broyden damping             0.4000000          :
          :  net charge                         -1          :
          :  unpaired electrons                  0          :
          ...................................................

 iter      E             dE          RMSdq      gap      omega  full diag
   1    -12.6843430 -0.126843E+02  0.703E+00    4.63       0.0  T
   2    -12.7256061 -0.412631E-01  0.420E+00    3.37       1.0  T
   3    -12.7324169 -0.681074E-02  0.215E+00    4.08       1.0  T
   4    -12.7376574 -0.524057E-02  0.894E-01    3.83       1.0  T
   5    -12.7380821 -0.424672E-03  0.411E-01    3.81       1.0  T
   6    -12.7371133  0.968835E-03  0.513E-01    3.68       1.0  T
   7    -12.7382757 -0.116246E-02  0.201E-01    3.75       1.0  T
   8    -12.7383382 -0.624043E-04  0.393E-02    3.76       1.0  T
   9    -12.7383437 -0.553981E-05  0.795E-03    3.77       5.1  T
  10    -12.7383438 -0.963523E-07  0.954E-04    3.77      42.8  T
  11    -12.7383438 -0.313981E-08  0.209E-04    3.77     195.7  T
  12    -12.7383438 -0.549800E-10  0.585E-05    3.77     697.9  T
  13    -12.7383438 -0.106297E-10  0.334E-06    3.77   12223.2  T

   *** convergence criteria satisfied after 13 iterations ***

         #    Occupation            Energy/Eh            Energy/eV
      -------------------------------------------------------------
         1        2.0000           -0.6330554             -17.2263
       ...           ...                  ...                  ...
         5        2.0000           -0.3320562              -9.0357
         6        2.0000           -0.2712513              -7.3811
         7        2.0000           -0.2151493              -5.8545
         8        2.0000           -0.2151493              -5.8545
         9        2.0000           -0.2029444              -5.5224
        10        2.0000           -0.2029444              -5.5224
        11        2.0000           -0.2001936              -5.4475 (HOMO)
        12                         -0.0616251              -1.6769 (LUMO)
        13                          0.2179363               5.9303
        14                          0.2531604               6.8888
        15                          0.2531604               6.8888
        16                          0.2709223               7.3722
       ...                                ...                  ...
        20                          0.4143841              11.2760
      -------------------------------------------------------------
                  HL-Gap            0.1385685 Eh            3.7706 eV
             Fermi-level           -0.1309094 Eh           -3.5622 eV

 SCC (total)                   0 d,  0 h,  0 min,  0.059 sec
 SCC setup                      ...        0 min,  0.000 sec (  0.387%)
 Dispersion                     ...        0 min,  0.000 sec (  0.104%)
 classical contributions        ...        0 min,  0.000 sec (  0.051%)
 integral evaluation            ...        0 min,  0.053 sec ( 89.159%)
 iterations                     ...        0 min,  0.005 sec (  7.952%)
 molecular gradient             ...        0 min,  0.001 sec (  1.966%)
 printout                       ...        0 min,  0.000 sec (  0.339%)

         :::::::::::::::::::::::::::::::::::::::::::::::::::::
         ::                     SUMMARY                     ::
         :::::::::::::::::::::::::::::::::::::::::::::::::::::
         :: total energy             -12.690604948115 Eh    ::
         :: gradient norm              0.062765447442 Eh/a0 ::
         :: HOMO-LUMO gap              3.770640266642 eV    ::
         ::.................................................::
         :: SCC energy               -12.738343902209 Eh    ::
         :: -> isotropic ES            0.174176168026 Eh    ::
         :: -> anisotropic ES         -0.001377558662 Eh    ::
         :: -> anisotropic XC         -0.002562599065 Eh    ::
         :: -> dispersion             -0.002209245982 Eh    ::
         :: repulsion energy           0.047738954094 Eh    ::
         :: add. restraining           0.000000000000 Eh    ::
         :: total charge              -1.000000000000 e     ::
         :::::::::::::::::::::::::::::::::::::::::::::::::::::


Property printout bound to 'properties.out'

           -------------------------------------------------
          | TOTAL ENERGY              -12.690604948115 Eh   |
          | GRADIENT NORM               0.062765447442 Eh/α |
          | HOMO-LUMO GAP               3.770640266642 eV   |
           -------------------------------------------------

------------------------------------------------------------------------
 * finished run on 2026/03/16 at 14:14:08.755     
------------------------------------------------------------------------
 total:
 * wall-time:     0 d,  0 h,  0 min,  0.180 sec
 *  cpu-time:     0 d,  0 h,  0 min,  0.429 sec
 * ratio c/w:     2.382 speedup
 SCF:
 * wall-time:     0 d,  0 h,  0 min,  0.059 sec
 *  cpu-time:     0 d,  0 h,  0 min,  0.160 sec
 * ratio c/w:     2.695 speedup


-------------------------   --------------------
FINAL SINGLE POINT ENERGY       -12.690604948110
-------------------------   --------------------


-------------
DIPOLE MOMENT
-------------
                                X             Y             Z
Total Dipole Moment    :      0.00000       0.00000       1.07300
                        -----------------------------------------
Magnitude (a.u.)       :      1.07300
Magnitude (Debye)      :      2.72735


------------------
CARTESIAN GRADIENT
------------------

   1   C   :   -0.000000000    0.000000158   -0.003956777
   2   H   :   -0.000000000    0.015285430   -0.019724341
   3   H   :    0.013237775   -0.007642792   -0.019724362
   4   H   :   -0.013237775   -0.007642792   -0.019724362
   5   F   :    0.000000000   -0.000000001    0.025949761
   6   Br  :    0.000000000   -0.000000001    0.037180081

Difference to translation invariance:
           :   -0.0000000000   -0.0000000000   -0.0000000000

Difference to rotation invariance:
           :   -0.0000000076   -0.0000000000    0.0000000000

Norm of the Cartesian gradient     ...    0.0627654474
RMS gradient                       ...    0.0147939578
MAX gradient                       ...    0.0371800808
      -----------------------------------------------------------      
     |                   =====================                   |     
     |                           x T B                           |     
     |                   =====================                   |     
     |                         S. Grimme                         |     
     |          Mulliken Center for Theoretical Chemistry        |     
     |                    University of Bonn                     |     
      -----------------------------------------------------------      

   * xtb version 6.7.1 (edcfbbe) compiled by 'albert@albert-system' on 2024-07-22

   xtb is free software: you can redistribute it and/or modify it under
   the terms of the GNU Lesser General Public License as published by
   the Free Software Foundation, either version 3 of the License, or
   (at your option) any later version.
   
   xtb is distributed in the hope that it will be useful,
   but WITHOUT ANY WARRANTY; without even the implied warranty of
   MERCHANTABILITY or FITNESS FOR A PARTICULAR PURPOSE.  See the
   GNU Lesser General Public License for more details.
   
   Cite this work as:
   * C. Bannwarth, E. Caldeweyher, S. Ehlert, A. Hansen, P. Pracht,
     J. Seibert, S. Spicher, S. Grimme, WIREs Comput. Mol. Sci., 2020, 11,
     e01493. DOI: 10.1002/wcms.1493
   
   for GFN2-xTB:
   * C. Bannwarth, S. Ehlert and S. Grimme., J. Chem. Theory Comput., 2019,
     15, 1652-1671. DOI: 10.1021/acs.jctc.8b01176
   for GFN1-xTB:
   * S. Grimme, C. Bannwarth, P. Shushkov, J. Chem. Theory Comput., 2017,
     13, 1989-2009. DOI: 10.1021/acs.jctc.7b00118
   for GFN0-xTB:
   * P. Pracht, E. Caldeweyher, S. Ehlert, S. Grimme, ChemRxiv, 2019, preprint.
     DOI: 10.26434/chemrxiv.8326202.v1
   for GFN-FF:
   * S. Spicher and S. Grimme, Angew. Chem. Int. Ed., 2020, 59, 15665-15673.
     DOI: 10.1002/anie.202004239
   
   for ALPB and GBSA implicit solvation:
   * S. Ehlert, M. Stahn, S. Spicher, S. Grimme, J. Chem. Theory Comput.,
     2021, 17, 4250-4261. DOI: 10.1021/acs.jctc.1c00471
   
   for ddCOSMO and CPCM-X implicit solvation:
   * M. Stahn, S. Ehlert, S. Grimme, J. Phys. Chem. A,
     2023, XX, XXXX-XXXX. DOI: 10.1021/acs.jpca.3c04382
   
   for DFT-D4:
   * E. Caldeweyher, C. Bannwarth and S. Grimme, J. Chem. Phys., 2017,
     147, 034112. DOI: 10.1063/1.4993215
   * E. Caldeweyher, S. Ehlert, A. Hansen, H. Neugebauer, S. Spicher,
     C. Bannwarth and S. Grimme, J. Chem. Phys., 2019, 150, 154122.
     DOI: 10.1063/1.5090222
   * E. Caldeweyher, J.-M. Mewes, S. Ehlert and S. Grimme, Phys. Chem. Chem. Phys.
     2020, 22, 8499-8512. DOI: 10.1039/D0CP00502A
   
   for sTDA-xTB:
   * S. Grimme and C. Bannwarth, J. Chem. Phys., 2016, 145, 054103.
     DOI: 10.1063/1.4959605
   
   in the mass-spec context:
   * V. Asgeirsson, C. Bauer and S. Grimme, Chem. Sci., 2017, 8, 4879.
     DOI: 10.1039/c7sc00601b
   * J. Koopman and S. Grimme, ACS Omega 2019, 4, 12, 15120-15133.
     DOI: 10.1021/acsomega.9b02011
   
   for metadynamics refer to:
   * S. Grimme, J. Chem. Theory Comput., 2019, 155, 2847-2862
     DOI: 10.1021/acs.jctc.9b00143
   
   for SPH calculations refer to:
   * S. Spicher and S. Grimme, J. Chem. Theory Comput., 2021, 17, 1701-1714
     DOI: 10.1021/acs.jctc.0c01306
   
   for ONIOM refer to:
   * C. Plett, A. Katbashev, S. Ehlert, S. Grimme, M. Bursch,
     Phys. Chem. Chem. Phys., 2023, 25, 17860-17868. DOI: 10.1039/D3CP02178E
   
   for DIPRO refer to:
   * J. Kohn, N. Gildemeister, S. Grimme, D. Fazzi, A. Hansen,
     J. Chem. Phys., 2023, just accepted.
   
   for PTB refer to:
   * S. Grimme, M. Mueller, A. Hansen, J. Chem. Phys., 2023, 158, 124111.
     DOI: 10.1063/5.0137838
   
   with help from (in alphabetical order)
   P. Atkinson, C. Bannwarth, F. Bohle, G. Brandenburg, E. Caldeweyher
   M. Checinski, S. Dohm, S. Ehlert, S. Ehrlich, I. Gerasimov, C. Hölzer
   A. Katbashev, J. Kohn, J. Koopman, C. Lavigne, S. Lehtola, F. März, M. Müller,
   F. Musil, H. Neugebauer, J. Pisarek, C. Plett, P. Pracht, F. Pultar,
   J. Seibert, P. Shushkov, S. Spicher, M. Stahn, M. Steiner, T. Strunk,
   J. Stückrath, T. Rose, and J. Unsleber
   
 * started run on 2026/03/16 at 14:14:08.779     
   ID    Z sym.   atoms
    1    6 C      1
    2    1 H      2-4
    3    9 F      5
    4   35 Br     6

           -------------------------------------------------
          |                Calculation Setup                |
           -------------------------------------------------

          program call               : /software/orca-6.1.0-el8-x86_64/bin/otool_xtb sn2_f_br_XTB.xyz --hess -c -1 -u 0 -P 8 --namespace sn2_f_br --input sn2_f_br_XTB.input.tmp --acc 0.200000
          hostname                   : midway3-login4.rcc.local
          calculation namespace      : sn2_f_br
          coordinate file            : sn2_f_br_XTB.xyz
          omp threads                :                     8


molecular fragmentation (1/2 indicates fragments):
111121
# atoms in fragment 1/2:     5     1
 fragment masses (1/2) :       94.94       19.00
CMA distance (Bohr)    :   7.312
constraining FC (au)   :  0.0500

           -------------------------------------------------
          |                 G F N 2 - x T B                 |
           -------------------------------------------------

        Reference                      10.1021/acs.jctc.8b01176
      * Hamiltonian:
        H0-scaling (s, p, d)           1.850000    2.230000    2.230000
        zeta-weighting                 0.500000
      * Dispersion:
        s8                             2.700000
        a1                             0.520000
        a2                             5.000000
        s9                             5.000000
      * Repulsion:
        kExp                           1.500000    1.000000
        rExp                           1.000000
      * Coulomb:
        alpha                          2.000000
        third order                    shell-resolved
        anisotropic                    true
        a3                             3.000000
        a5                             4.000000
        cn-shift                       1.200000
        cn-exp                         4.000000
        max-rad                        5.000000

q/qsh data taken from xtbrestart
CAMM data taken from xtbrestart

          ...................................................
          :                      SETUP                      :
          :.................................................:
          :  # basis functions                  21          :
          :  # atomic orbitals                  20          :
          :  # shells                           10          :
          :  # electrons                        22          :
          :  max. iterations                   250          :
          :  Hamiltonian                  GFN2-xTB          :
          :  restarted?                       true          :
          :  GBSA solvation                  false          :
          :  PC potential                    false          :
          :  electronic temp.          300.0000000     K    :
          :  accuracy                    0.2000000          :
          :  -> integral cutoff          0.3198970E+02      :
          :  -> integral neglect         0.2000000E-08      :
          :  -> SCF convergence          0.2000000E-06 Eh   :
          :  -> wf. convergence          0.2000000E-04 e    :
          :  Broyden damping             0.4000000          :
          :  net charge                         -1          :
          :  unpaired electrons                  0          :
          ...................................................

 iter      E             dE          RMSdq      gap      omega  full diag
   1    -12.7383438 -0.127383E+02  0.218E-06    3.77       0.0  T
   2    -12.7383438 -0.124345E-13  0.957E-07    3.77   42668.2  T
   3    -12.7383438  0.177636E-14  0.574E-07    3.77   71142.5  T

   *** convergence criteria satisfied after 3 iterations ***

         #    Occupation            Energy/Eh            Energy/eV
      -------------------------------------------------------------
         1        2.0000           -0.6330554             -17.2263
       ...           ...                  ...                  ...
         5        2.0000           -0.3320562              -9.0357
         6        2.0000           -0.2712513              -7.3811
         7        2.0000           -0.2151493              -5.8545
         8        2.0000           -0.2151493              -5.8545
         9        2.0000           -0.2029444              -5.5224
        10        2.0000           -0.2029444              -5.5224
        11        2.0000           -0.2001936              -5.4475 (HOMO)
        12                         -0.0616251              -1.6769 (LUMO)
        13                          0.2179363               5.9303
        14                          0.2531604               6.8888
        15                          0.2531604               6.8888
        16                          0.2709223               7.3722
       ...                                ...                  ...
        20                          0.4143841              11.2760
      -------------------------------------------------------------
                  HL-Gap            0.1385685 Eh            3.7706 eV
             Fermi-level           -0.1309094 Eh           -3.5622 eV

 SCC (total)                   0 d,  0 h,  0 min,  0.105 sec
 SCC setup                      ...        0 min,  0.000 sec (  0.286%)
 Dispersion                     ...        0 min,  0.000 sec (  0.111%)
 classical contributions        ...        0 min,  0.000 sec (  0.211%)
 integral evaluation            ...        0 min,  0.022 sec ( 20.977%)
 iterations                     ...        0 min,  0.080 sec ( 76.525%)
 molecular gradient             ...        0 min,  0.002 sec (  1.661%)
 printout                       ...        0 min,  0.000 sec (  0.196%)

         :::::::::::::::::::::::::::::::::::::::::::::::::::::
         ::                     SUMMARY                     ::
         :::::::::::::::::::::::::::::::::::::::::::::::::::::
         :: total energy             -12.690604948115 Eh    ::
         :: gradient norm              0.062765459421 Eh/a0 ::
         :: HOMO-LUMO gap              3.770640636747 eV    ::
         ::.................................................::
         :: SCC energy               -12.738343902209 Eh    ::
         :: -> isotropic ES            0.174176171494 Eh    ::
         :: -> anisotropic ES         -0.001377560760 Eh    ::
         :: -> anisotropic XC         -0.002562606194 Eh    ::
         :: -> dispersion             -0.002209246022 Eh    ::
         :: repulsion energy           0.047738954094 Eh    ::
         :: add. restraining           0.000000000000 Eh    ::
         :: total charge              -1.000000000000 e     ::
         :::::::::::::::::::::::::::::::::::::::::::::::::::::

           ------------------------------------------------- 
          |                Numerical Hessian                |
           ------------------------------------------------- 
step length          :   0.00500
SCC accuracy         :   0.30000
Hessian scale factor :   1.00000
frozen atoms in %    :   0.00000    0
RMS gradient         :   0.06277 !! INCOMPLETELY OPTIMIZED GEOMETRY !!
estimated CPU  time      0.00 min
estimated wall time      0.00 min

writing file <hessian>.

 projected vibrational frequencies (cm⁻¹)
eigval :       -0.00    -0.00    -0.00    -0.00     0.00     0.00
eigval :     -174.51   250.55   250.56   257.44  1145.44  1145.45
eigval :     1193.76  1390.92  1390.97  2828.88  2893.44  2893.46

Property printout bound to 'properties.out'
Molecule has the following symmetry elements: (C3) 3*(sigma) 
It seems to be the C3v point group
imag cut-off (cm-1) :    5.00
 found            1  significant imaginary frequency
 writing imag mode distorted coords to xtbhess.xyz
 for further optimization.

           -------------------------------------------------
          | TOTAL ENERGY              -12.690604948115 Eh   |
          | TOTAL ENTHALPY            -12.649673729202 Eh   |
          | TOTAL FREE ENERGY         -12.681722291035 Eh   |
          | GRADIENT NORM               0.062765458715 Eh/α |
          | HOMO-LUMO GAP               3.770640647107 eV   |
           -------------------------------------------------
########################################################################
[WARNING] Runtime exception occurred
-1- hessian_numhess: Hessian on incompletely optimized geometry!
########################################################################

------------------------------------------------------------------------
 * finished run on 2026/03/16 at 14:14:09.061     
------------------------------------------------------------------------
 total:
 * wall-time:     0 d,  0 h,  0 min,  0.281 sec
 *  cpu-time:     0 d,  0 h,  0 min,  0.586 sec
 * ratio c/w:     2.082 speedup
 SCF:
 * wall-time:     0 d,  0 h,  0 min,  0.105 sec
 *  cpu-time:     0 d,  0 h,  0 min,  0.224 sec
 * ratio c/w:     2.135 speedup
 analytical hessian:
 * wall-time:     0 d,  0 h,  0 min,  0.015 sec
 *  cpu-time:     0 d,  0 h,  0 min,  0.115 sec
 * ratio c/w:     7.489 speedup


-------------------------   --------------------
FINAL SINGLE POINT ENERGY       -12.690604948110
-------------------------   --------------------


-------------
DIPOLE MOMENT
-------------
                                X             Y             Z
Total Dipole Moment    :      0.00000       0.00000       1.07300
                        -----------------------------------------
Magnitude (a.u.)       :      1.07300
Magnitude (Debye)      :      2.72735


-----------------------
VIBRATIONAL FREQUENCIES
-----------------------

Scaling factor for frequencies =  1.000000000  (already applied!)

     0:       0.00 cm**-1
     1:       0.00 cm**-1
     2:       0.00 cm**-1
     3:       0.00 cm**-1
     4:       0.00 cm**-1
     5:       0.00 cm**-1
     6:    -174.51 cm**-1  ***imaginary mode***
     7:     250.55 cm**-1
     8:     250.56 cm**-1
     9:     257.44 cm**-1
    10:    1145.40 cm**-1
    11:    1145.41 cm**-1
    12:    1193.72 cm**-1
    13:    1390.88 cm**-1
    14:    1390.94 cm**-1
    15:    2828.79 cm**-1
    16:    2893.36 cm**-1
    17:    2893.39 cm**-1


------------
NORMAL MODES
------------

These modes are the Cartesian displacements weighted by the diagonal matrix
M(i,i)=1/sqrt(m[i]) where m[i] is the mass of the displaced atom
Thus, these vectors are normalized but *not* orthogonal

                  0          1          2          3          4          5    
      0       0.000000   0.000000   0.000000   0.000000   0.000000   0.000000
      1       0.000000   0.000000   0.000000   0.000000   0.000000   0.000000
      2       0.000000   0.000000   0.000000   0.000000   0.000000   0.000000
      3       0.000000   0.000000   0.000000   0.000000   0.000000   0.000000
      4       0.000000   0.000000   0.000000   0.000000   0.000000   0.000000
      5       0.000000   0.000000   0.000000   0.000000   0.000000   0.000000
      6       0.000000   0.000000   0.000000   0.000000   0.000000   0.000000
      7       0.000000   0.000000   0.000000   0.000000   0.000000   0.000000
      8       0.000000   0.000000   0.000000   0.000000   0.000000   0.000000
      9       0.000000   0.000000   0.000000   0.000000   0.000000   0.000000
     10       0.000000   0.000000   0.000000   0.000000   0.000000   0.000000
     11       0.000000   0.000000   0.000000   0.000000   0.000000   0.000000
     12       0.000000   0.000000   0.000000   0.000000   0.000000   0.000000
     13       0.000000   0.000000   0.000000   0.000000   0.000000   0.000000
     14       0.000000   0.000000   0.000000   0.000000   0.000000   0.000000
     15       0.000000   0.000000   0.000000   0.000000   0.000000   0.000000
     16       0.000000   0.000000   0.000000   0.000000   0.000000   0.000000
     17       0.000000   0.000000   0.000000   0.000000   0.000000   0.000000
                  6          7          8          9         10         11    
      0       0.000003   0.471737  -0.000096   0.000003   0.028013   0.000079
      1       0.000005  -0.000096  -0.471737   0.000125  -0.000079   0.028017
      2       0.855756  -0.000001  -0.000024  -0.484697  -0.000000   0.000001
      3       0.000001   0.506831  -0.000103   0.000005  -0.188898  -0.000531
      4      -0.077616  -0.000099  -0.482038   0.042284   0.000259  -0.092036
      5       0.174484   0.000000   0.010018  -0.145431   0.002210  -0.788577
      6      -0.067220   0.488233  -0.010831   0.036516  -0.116136  -0.042281
      7       0.038812   0.010634  -0.500634  -0.020944  -0.041481  -0.164816
      8       0.174488  -0.008689  -0.005018  -0.145428  -0.684019   0.392348
      9       0.067222   0.488237   0.010632  -0.036507  -0.116366   0.041630
     10       0.038812  -0.010839  -0.500630  -0.020945   0.042404  -0.164579
     11       0.174487   0.008684  -0.005022  -0.145426   0.681813   0.396173
     12      -0.000001  -0.204390   0.000042  -0.000002  -0.014427  -0.000040
     13      -0.000002   0.000042   0.204390  -0.000054   0.000040  -0.014428
     14      -0.395699   0.000002  -0.000046  -0.790775   0.000000   0.000001
     15      -0.000000  -0.041029   0.000008  -0.000000   0.004536   0.000013
     16      -0.000000   0.000008   0.041029  -0.000011  -0.000013   0.004536
     17      -0.041159  -0.000000   0.000015   0.266391  -0.000000   0.000000
                 12         13         14         15         16         17    
      0      -0.000000  -0.000000  -0.095604  -0.000000   0.097232   0.000009
      1      -0.000001  -0.095603   0.000000  -0.000024  -0.000009   0.097231
      2      -0.043064   0.000001   0.000000  -0.016363  -0.000000  -0.000005
      3       0.000002  -0.000003   0.782598   0.000000   0.043927  -0.000000
      4       0.066900  -0.077419  -0.000004  -0.573709   0.000071  -0.803988
      5       0.572782  -0.205267  -0.000003   0.062168  -0.000010   0.110893
      6       0.057945   0.372391   0.137590  -0.497118  -0.591920   0.366900
      7      -0.033448   0.567589   0.372397   0.286995   0.367107  -0.167898
      8       0.572827   0.102619  -0.177736   0.062209   0.096027  -0.055412
      9      -0.057941  -0.372386   0.137585   0.497118  -0.591860  -0.367007
     10      -0.033448   0.567596  -0.372396   0.286995  -0.367071  -0.167960
     11       0.572825   0.102621   0.177736   0.062206  -0.096013  -0.055426
     12      -0.000000  -0.000000   0.000436   0.000000  -0.000706  -0.000000
     13      -0.000000   0.000435  -0.000000   0.000000   0.000000  -0.000706
     14      -0.015750   0.000000  -0.000000  -0.000149   0.000000  -0.000000
     15      -0.000000   0.000000   0.000924  -0.000000  -0.000068   0.000000
     16       0.000000   0.000924   0.000000   0.000000   0.000000  -0.000069
     17      -0.011461   0.000000  -0.000000   0.000141   0.000000   0.000000


The first frequency considered to be a vibration is 7
The total number of vibrations considered is 11


--------------------------
THERMOCHEMISTRY AT 298.15K
--------------------------

Temperature         ...   298.15 K
Pressure            ...     1.00 atm
Total Mass          ...   113.93 AMU
Quasi RRHO          ...     True
Cut-Off Frequency   ...     1.00 cm^-1

Throughout the following assumptions are being made:
  (1) The electronic state is orbitally nondegenerate
  (2) There are no thermally accessible electronically excited states
  (3) Hindered rotations indicated by low frequency modes are not
      treated as such but are treated as vibrations and this may
      cause some error
  (4) All equations used are the standard statistical mechanics
      equations for an ideal gas
  (5) All vibrations are strictly harmonic

freq.     250.55  E(vib)   ...       0.30 
freq.     250.56  E(vib)   ...       0.30 
freq.     257.44  E(vib)   ...       0.30 
freq.    1145.40  E(vib)   ...       0.01 
freq.    1145.41  E(vib)   ...       0.01 
freq.    1193.72  E(vib)   ...       0.01 
freq.    1390.88  E(vib)   ...       0.00 
freq.    1390.94  E(vib)   ...       0.00 
freq.    2828.79  E(vib)   ...       0.00 
freq.    2893.36  E(vib)   ...       0.00 
freq.    2893.39  E(vib)   ...       0.00 

------------
INNER ENERGY
------------

The inner energy is: U= E(el) + E(ZPE) + E(vib) + E(rot) + E(trans)
    E(el)   - is the total energy from the electronic structure calculation
              = E(kin-el) + E(nuc-el) + E(el-el) + E(nuc-nuc)
    E(ZPE)  - the the zero temperature vibrational energy from the frequency calculation
    E(vib)  - the the finite temperature correction to E(ZPE) due to population
              of excited vibrational states
    E(rot)  - is the rotational thermal energy
    E(trans)- is the translational thermal energy

Summary of contributions to the inner energy U:
Electronic energy                ...    -12.69060495 Eh
Zero point energy                ...      0.03563154 Eh      22.36 kcal/mol
Thermal vibrational correction   ...      0.00152192 Eh       0.96 kcal/mol
Thermal rotational correction    ...      0.00141627 Eh       0.89 kcal/mol
Thermal translational correction ...      0.00141627 Eh       0.89 kcal/mol
-----------------------------------------------------------------------
Total thermal energy                    -12.65061895 Eh


Summary of corrections to the electronic energy:
(perhaps to be used in another calculation)
Total thermal correction                  0.00435446 Eh       2.73 kcal/mol
Non-thermal (ZPE) correction              0.03563154 Eh      22.36 kcal/mol
-----------------------------------------------------------------------
Total correction                          0.03998600 Eh      25.09 kcal/mol


--------
ENTHALPY
--------

The enthalpy is H = U + kB*T
                kB is Boltzmann's constant
Total thermal energy              ...    -12.65061895 Eh 
Thermal Enthalpy correction       ...      0.00094421 Eh       0.59 kcal/mol
-----------------------------------------------------------------------
Total Enthalpy                    ...    -12.64967474 Eh


WARNING (ORCA/SYM): The number of Z matrix atoms does not agree with
the number of centers in the basis set. The point group will therefore
be determined without considering basis set information.


Note: Rotational entropy computed according to Herzberg 
Infrared and Raman Spectra, Chapter V,1, Van Nostrand Reinhold, 1945 
Point Group:  C3v, Symmetry Number:   3  
Rotational constants in cm-1:     4.735387     0.055196     0.055196 

Vibrational entropy computed according to the QRRHO of S. Grimme
Chem.Eur.J. 2012 18 9955 using a reference frequency of 100.0 cm-1


-------
ENTROPY
-------

The entropy contributions are T*S = T*(S(el)+S(vib)+S(rot)+S(trans))
     S(el)   - electronic entropy
     S(vib)  - vibrational entropy
     S(rot)  - rotational entropy
     S(trans)- translational entropy
The entropies will be listed as multiplied by the temperature to get
units of energy

Electronic entropy                ...      0.00000000 Eh      0.00 kcal/mol
Vibrational entropy               ...      0.00253338 Eh      1.59 kcal/mol
Rotational entropy                ...      0.01047455 Eh      6.57 kcal/mol
Translational entropy             ...      0.01905598 Eh     11.96 kcal/mol
-----------------------------------------------------------------------
Final entropy term                ...      0.03206391 Eh     20.12 kcal/mol

In case the symmetry of your molecule has not been determined correctly
or in case you have a reason to use a different symmetry number we print 
out the resulting rotational entropy values for sn=1,12:

 non-linear molecules -----------------------------------
|  sn= 1 | S(rot)=       0.01151184 Eh      7.22 kcal/mol|
|  sn= 2 | S(rot)=       0.01085738 Eh      6.81 kcal/mol|
|  sn= 3 | S(rot)=       0.01047455 Eh      6.57 kcal/mol|
|  sn= 4 | S(rot)=       0.01020292 Eh      6.40 kcal/mol|
|  sn= 5 | S(rot)=       0.00999224 Eh      6.27 kcal/mol|
|  sn= 6 | S(rot)=       0.00982009 Eh      6.16 kcal/mol|
|  sn= 7 | S(rot)=       0.00967455 Eh      6.07 kcal/mol|
|  sn= 8 | S(rot)=       0.00954847 Eh      5.99 kcal/mol|
|  sn= 9 | S(rot)=       0.00943726 Eh      5.92 kcal/mol|
|  sn=10 | S(rot)=       0.00933778 Eh      5.86 kcal/mol|
|  sn=11 | S(rot)=       0.00924779 Eh      5.80 kcal/mol|
|  sn=12 | S(rot)=       0.00916564 Eh      5.75 kcal/mol|
 linear molecules ---------------------------------------
|  Dinfh | S(rot)=       0.00806096 Eh      5.06 kcal/mol|
|  Cinfv | S(rot)=       0.00871542 Eh      5.47 kcal/mol|
 --------------------------------------------------------


-------------------
GIBBS FREE ENERGY
-------------------

The Gibbs free energy is G = H - T*S

Total enthalpy                    ...    -12.64967474 Eh 
Total entropy correction          ...     -0.03206391 Eh    -20.12 kcal/mol
-----------------------------------------------------------------------
Final Gibbs free energy         ...    -12.68173865 Eh

For completeness - the Gibbs free energy minus the electronic energy
G-E(el)                           ...      0.00886630 Eh      5.56 kcal/mol

Actual Hessian File stored as sn2_f_br.001.hess
------------------------------------------------------------------------------
                         ORCA GEOMETRY RELAXATION STEP
------------------------------------------------------------------------------

Reading the OPT-File                    .... done
Getting information on internals        .... done
Copying old internal coords+grads       .... done
Making the new internal coordinates     .... (2022 redundants) done
Validating the new internal coordinates .... (2022 redundants) done
Calculating the B-matrix                .... done
Calculating the G,G- and P matrices     .... done
Transforming gradient to internals      .... done
Projecting the internal gradient        .... done
Number of atoms                         ....   6
Number of internal coordinates          ....  14
Current Energy                          ....   -12.690604948 Eh
Current gradient norm                   ....     0.062765447 Eh/bohr
Maximum allowed component of the step   ....  0.300
Current trust radius                    ....  0.100
Evaluating the initial hessian          ....  (read) 
(Reading Exact Hessian)...  
InHessName: sn2_f_br.hess	The file <sn2_f_br.hess> is opened as a .hess file
done
done
Projecting the Hessian                  .... done
Diagonalizing the Hessian               .... done
Dimension of the hessian                ....  14
Lowest eigenvalues of the Hessian:
 -0.004557847  0.063544101  0.087645823  0.087646173  0.105018197
Hessian has   1 negative eigenvalues
Taking P-RFO step
Searching for lambda that maximizes along the lowest mode
TS mode is mode number   0 with eigenvalue  -0.00455785 and components:
   1.   -0.01489847
   2.   -0.01489825
   3.   -0.01490040
   4.    0.73484631
   5.   -0.49637722
   6.    0.09137917
   7.    0.09137982
   8.   -0.17696469
   9.   -0.17696221
  10.   -0.17696058
  11.    0.17696223
  12.    0.17696203
  13.    0.17696323
  14.    0.09137750

Lambda that maximizes along the TS mode:       0.01570765
Searching for lambda that minimizes along all other modes
In cycle   1: lambdaN =  -0.02363311   step =   0.02363311
In cycle   2: lambdaN =  -0.02460749   step =   0.00097438
In cycle   3: lambdaN =  -0.02460849   step =   0.00000100
In cycle   4: lambdaN =  -0.02460849   step =   0.00000000
Lambda that minimizes along all other modes:  -0.02460849
Calculated stepsize too large (   0.8663 >    0.1000). Scaled with    0.1154.
The final length of the internal step   ....       0.1000
Converting the step to Cartesian space:
 Initial RMS(Int)=    0.0267261242
Transforming coordinates:
 Iter   0:  RMS(Cart)=    0.0148030329 RMS(Int)=    0.0265059677
done
Storing new coordinates                 .... done

                                .--------------------.
          ----------------------|Geometry convergence|-------------------------
          Item                value                   Tolerance       Converged
          ---------------------------------------------------------------------
          RMS gradient        0.0183537382            0.0001000000      NO
          MAX gradient        0.0371800808            0.0003000000      NO
          RMS step            0.0267261242            0.0020000000      NO
          MAX step            0.0346297829            0.0040000000      NO
          -------------------------------------------------------------------------
          ........................................................
          Max(Bonds)      0.0183      Max(Angles)    1.88
          Max(Dihed)        0.00      Max(Improp)    0.00
          ---------------------------------------------------------------------

The optimization has not yet converged - more geometry cycles are needed


    ---------------------------------------------------------------------------
                         Redundant Internal Coordinates
                            (Angstroem and degrees)

        Definition                    Value    dE/dq     Step     New-Value  comp.(TS mode)
    ----------------------------------------------------------------------------
     1. B(H   1,C   0)                1.0982  0.018146 -0.0048    1.0933   
     2. B(H   2,C   0)                1.0982  0.018146 -0.0048    1.0933   
     3. B(H   3,C   0)                1.0982  0.018146 -0.0048    1.0933   
     4. B(F   4,C   0)                1.9044  0.025950  0.0183    1.9227          0.73
     5. B(Br  5,C   0)                2.3280 -0.037180 -0.0183    2.3097          0.50
     6. A(H   1,C   0,H   3)          117.66 -0.008098    0.97    118.64   
     7. A(H   2,C   0,H   3)          117.66 -0.008098    0.97    118.64   
     8. A(H   1,C   0,F   4)           98.88  0.015683   -1.88     96.99   
     9. A(H   2,C   0,F   4)           98.88  0.015683   -1.88     96.99   
    10. A(H   3,C   0,F   4)           98.88  0.015683   -1.88     96.99   
    11. A(H   1,C   0,Br  5)           81.12 -0.015683    1.88     83.01   
    12. A(H   2,C   0,Br  5)           81.12 -0.015683    1.88     83.01   
    13. A(H   3,C   0,Br  5)           81.12 -0.015683    1.88     83.01   
    14. A(H   1,C   0,H   2)          117.66 -0.008098    0.97    118.64   
    ----------------------------------------------------------------------------

Geometry step timings:
Preparation and reading OPT file:      0.000 s ( 0.370 %)
Internal coordinates            :      0.000 s ( 0.610 %)
B/P matrices and projection     :      0.000 s ( 1.412 %)
Hessian update/contruction      :      0.010 s (77.153 %)
Making the step                 :      0.000 s ( 1.960 %)
Converting the step to Cartesian:      0.000 s ( 0.394 %)
Storing new data                :      0.000 s ( 0.957 %)
Checking convergence            :      0.000 s ( 0.733 %)
Final printing                  :      0.002 s (16.358 %)
Total time                      :      0.013 s

Time for energy+gradient        :      0.213 s
Time for complete geometry iter :      0.612 s

         *************************************************************
         *                GEOMETRY OPTIMIZATION CYCLE   2            *
         *************************************************************
---------------------------------
CARTESIAN COORDINATES (ANGSTROEM)
---------------------------------
  C    -0.000000   -0.000000    0.144943
  H    -0.000000    1.085242    0.012280
  H     0.939847   -0.542621    0.012280
  H    -0.939847   -0.542621    0.012280
  F     0.000000    0.000000    2.067668
  Br    0.000000    0.000000   -2.164732

----------------------------
CARTESIAN COORDINATES (A.U.)
----------------------------
  NO LB    ZA    FRAG    MASS        X           Y           Z
   0 C   6.0000    0    12.011   -0.000000   -0.000000    0.273902
   1 H   1.0000    0     1.008   -0.000000    2.050810    0.023207
   2 H   1.0000    0     1.008    1.776054   -1.025405    0.023206
   3 H   1.0000    0     1.008   -1.776054   -1.025405    0.023206
   4 F   9.0000    0    18.998    0.000000    0.000000    3.907327
   5 Br 35.0000    0    79.900    0.000000    0.000000   -4.090750

      -----------------------------------------------------------      
     |                   =====================                   |     
     |                           x T B                           |     
     |                   =====================                   |     
     |                         S. Grimme                         |     
     |          Mulliken Center for Theoretical Chemistry        |     
     |                    University of Bonn                     |     
      -----------------------------------------------------------      

   * xtb version 6.7.1 (edcfbbe) compiled by 'albert@albert-system' on 2024-07-22

   xtb is free software: you can redistribute it and/or modify it under
   the terms of the GNU Lesser General Public License as published by
   the Free Software Foundation, either version 3 of the License, or
   (at your option) any later version.
   
   xtb is distributed in the hope that it will be useful,
   but WITHOUT ANY WARRANTY; without even the implied warranty of
   MERCHANTABILITY or FITNESS FOR A PARTICULAR PURPOSE.  See the
   GNU Lesser General Public License for more details.
   
   Cite this work as:
   * C. Bannwarth, E. Caldeweyher, S. Ehlert, A. Hansen, P. Pracht,
     J. Seibert, S. Spicher, S. Grimme, WIREs Comput. Mol. Sci., 2020, 11,
     e01493. DOI: 10.1002/wcms.1493
   
   for GFN2-xTB:
   * C. Bannwarth, S. Ehlert and S. Grimme., J. Chem. Theory Comput., 2019,
     15, 1652-1671. DOI: 10.1021/acs.jctc.8b01176
   for GFN1-xTB:
   * S. Grimme, C. Bannwarth, P. Shushkov, J. Chem. Theory Comput., 2017,
     13, 1989-2009. DOI: 10.1021/acs.jctc.7b00118
   for GFN0-xTB:
   * P. Pracht, E. Caldeweyher, S. Ehlert, S. Grimme, ChemRxiv, 2019, preprint.
     DOI: 10.26434/chemrxiv.8326202.v1
   for GFN-FF:
   * S. Spicher and S. Grimme, Angew. Chem. Int. Ed., 2020, 59, 15665-15673.
     DOI: 10.1002/anie.202004239
   
   for ALPB and GBSA implicit solvation:
   * S. Ehlert, M. Stahn, S. Spicher, S. Grimme, J. Chem. Theory Comput.,
     2021, 17, 4250-4261. DOI: 10.1021/acs.jctc.1c00471
   
   for ddCOSMO and CPCM-X implicit solvation:
   * M. Stahn, S. Ehlert, S. Grimme, J. Phys. Chem. A,
     2023, XX, XXXX-XXXX. DOI: 10.1021/acs.jpca.3c04382
   
   for DFT-D4:
   * E. Caldeweyher, C. Bannwarth and S. Grimme, J. Chem. Phys., 2017,
     147, 034112. DOI: 10.1063/1.4993215
   * E. Caldeweyher, S. Ehlert, A. Hansen, H. Neugebauer, S. Spicher,
     C. Bannwarth and S. Grimme, J. Chem. Phys., 2019, 150, 154122.
     DOI: 10.1063/1.5090222
   * E. Caldeweyher, J.-M. Mewes, S. Ehlert and S. Grimme, Phys. Chem. Chem. Phys.
     2020, 22, 8499-8512. DOI: 10.1039/D0CP00502A
   
   for sTDA-xTB:
   * S. Grimme and C. Bannwarth, J. Chem. Phys., 2016, 145, 054103.
     DOI: 10.1063/1.4959605
   
   in the mass-spec context:
   * V. Asgeirsson, C. Bauer and S. Grimme, Chem. Sci., 2017, 8, 4879.
     DOI: 10.1039/c7sc00601b
   * J. Koopman and S. Grimme, ACS Omega 2019, 4, 12, 15120-15133.
     DOI: 10.1021/acsomega.9b02011
   
   for metadynamics refer to:
   * S. Grimme, J. Chem. Theory Comput., 2019, 155, 2847-2862
     DOI: 10.1021/acs.jctc.9b00143
   
   for SPH calculations refer to:
   * S. Spicher and S. Grimme, J. Chem. Theory Comput., 2021, 17, 1701-1714
     DOI: 10.1021/acs.jctc.0c01306
   
   for ONIOM refer to:
   * C. Plett, A. Katbashev, S. Ehlert, S. Grimme, M. Bursch,
     Phys. Chem. Chem. Phys., 2023, 25, 17860-17868. DOI: 10.1039/D3CP02178E
   
   for DIPRO refer to:
   * J. Kohn, N. Gildemeister, S. Grimme, D. Fazzi, A. Hansen,
     J. Chem. Phys., 2023, just accepted.
   
   for PTB refer to:
   * S. Grimme, M. Mueller, A. Hansen, J. Chem. Phys., 2023, 158, 124111.
     DOI: 10.1063/5.0137838
   
   with help from (in alphabetical order)
   P. Atkinson, C. Bannwarth, F. Bohle, G. Brandenburg, E. Caldeweyher
   M. Checinski, S. Dohm, S. Ehlert, S. Ehrlich, I. Gerasimov, C. Hölzer
   A. Katbashev, J. Kohn, J. Koopman, C. Lavigne, S. Lehtola, F. März, M. Müller,
   F. Musil, H. Neugebauer, J. Pisarek, C. Plett, P. Pracht, F. Pultar,
   J. Seibert, P. Shushkov, S. Spicher, M. Stahn, M. Steiner, T. Strunk,
   J. Stückrath, T. Rose, and J. Unsleber
   
 * started run on 2026/03/16 at 14:14:09.177     
   ID    Z sym.   atoms
    1    6 C      1
    2    1 H      2-4
    3    9 F      5
    4   35 Br     6

           -------------------------------------------------
          |                Calculation Setup                |
           -------------------------------------------------

          program call               : /software/orca-6.1.0-el8-x86_64/bin/otool_xtb sn2_f_br_XTB.xyz --grad -c -1 -u 0 -P 8 --namespace sn2_f_br --input sn2_f_br_XTB.input.tmp --acc 0.200000
          hostname                   : midway3-login4.rcc.local
          calculation namespace      : sn2_f_br
          coordinate file            : sn2_f_br_XTB.xyz
          omp threads                :                     8


molecular fragmentation (1/2 indicates fragments):
111121
# atoms in fragment 1/2:     5     1
 fragment masses (1/2) :       94.94       19.00
CMA distance (Bohr)    :   7.315
constraining FC (au)   :  0.0500

           -------------------------------------------------
          |                 G F N 2 - x T B                 |
           -------------------------------------------------

        Reference                      10.1021/acs.jctc.8b01176
      * Hamiltonian:
        H0-scaling (s, p, d)           1.850000    2.230000    2.230000
        zeta-weighting                 0.500000
      * Dispersion:
        s8                             2.700000
        a1                             0.520000
        a2                             5.000000
        s9                             5.000000
      * Repulsion:
        kExp                           1.500000    1.000000
        rExp                           1.000000
      * Coulomb:
        alpha                          2.000000
        third order                    shell-resolved
        anisotropic                    true
        a3                             3.000000
        a5                             4.000000
        cn-shift                       1.200000
        cn-exp                         4.000000
        max-rad                        5.000000

q/qsh data taken from xtbrestart
CAMM data taken from xtbrestart

          ...................................................
          :                      SETUP                      :
          :.................................................:
          :  # basis functions                  21          :
          :  # atomic orbitals                  20          :
          :  # shells                           10          :
          :  # electrons                        22          :
          :  max. iterations                   250          :
          :  Hamiltonian                  GFN2-xTB          :
          :  restarted?                       true          :
          :  GBSA solvation                  false          :
          :  PC potential                    false          :
          :  electronic temp.          300.0000000     K    :
          :  accuracy                    0.2000000          :
          :  -> integral cutoff          0.3198970E+02      :
          :  -> integral neglect         0.2000000E-08      :
          :  -> SCF convergence          0.2000000E-06 Eh   :
          :  -> wf. convergence          0.2000000E-04 e    :
          :  Broyden damping             0.4000000          :
          :  net charge                         -1          :
          :  unpaired electrons                  0          :
          ...................................................

 iter      E             dE          RMSdq      gap      omega  full diag
   1    -12.7416044 -0.127416E+02  0.257E-01    3.77       0.0  T
   2    -12.7418827 -0.278278E-03  0.118E-01    3.76       1.0  T
   3    -12.7418852 -0.255404E-05  0.680E-02    3.76       1.0  T
   4    -12.7418857 -0.505529E-06  0.149E-02    3.76       2.7  T
   5    -12.7418858 -0.691078E-07  0.120E-02    3.76       3.4  T
   6    -12.7418860 -0.146478E-06  0.644E-03    3.76       6.3  T
   7    -12.7418860 -0.331071E-07  0.132E-03    3.76      30.8  T
   8    -12.7418860 -0.602581E-08  0.307E-04    3.76     133.0  T
   9    -12.7418860 -0.299618E-10  0.172E-05    3.76    2379.3  T
  10    -12.7418860 -0.355271E-13  0.526E-06    3.76    7755.0  T

   *** convergence criteria satisfied after 10 iterations ***

         #    Occupation            Energy/Eh            Energy/eV
      -------------------------------------------------------------
         1        2.0000           -0.6359066             -17.3039
       ...           ...                  ...                  ...
         5        2.0000           -0.3325566              -9.0493
         6        2.0000           -0.2690036              -7.3200
         7        2.0000           -0.2099099              -5.7119
         8        2.0000           -0.2099099              -5.7119
         9        2.0000           -0.2050314              -5.5792
        10        2.0000           -0.2050314              -5.5792
        11        2.0000           -0.1993700              -5.4251 (HOMO)
        12                         -0.0612803              -1.6675 (LUMO)
        13                          0.2178728               5.9286
        14                          0.2546719               6.9300
        15                          0.2546720               6.9300
        16                          0.2675681               7.2809
       ...                                ...                  ...
        20                          0.4188495              11.3975
      -------------------------------------------------------------
                  HL-Gap            0.1380897 Eh            3.7576 eV
             Fermi-level           -0.1303251 Eh           -3.5463 eV

 SCC (total)                   0 d,  0 h,  0 min,  0.056 sec
 SCC setup                      ...        0 min,  0.000 sec (  0.467%)
 Dispersion                     ...        0 min,  0.000 sec (  0.121%)
 classical contributions        ...        0 min,  0.000 sec (  0.092%)
 integral evaluation            ...        0 min,  0.052 sec ( 93.815%)
 iterations                     ...        0 min,  0.002 sec (  3.573%)
 molecular gradient             ...        0 min,  0.001 sec (  1.499%)
 printout                       ...        0 min,  0.000 sec (  0.376%)

         :::::::::::::::::::::::::::::::::::::::::::::::::::::
         ::                     SUMMARY                     ::
         :::::::::::::::::::::::::::::::::::::::::::::::::::::
         :: total energy             -12.692337825525 Eh    ::
         :: gradient norm              0.056688193369 Eh/a0 ::
         :: HOMO-LUMO gap              3.757611127298 eV    ::
         ::.................................................::
         :: SCC energy               -12.741886104602 Eh    ::
         :: -> isotropic ES            0.176016973297 Eh    ::
         :: -> anisotropic ES         -0.001711496492 Eh    ::
         :: -> anisotropic XC         -0.002867213210 Eh    ::
         :: -> dispersion             -0.002214694812 Eh    ::
         :: repulsion energy           0.049548279077 Eh    ::
         :: add. restraining           0.000000000000 Eh    ::
         :: total charge              -1.000000000000 e     ::
         :::::::::::::::::::::::::::::::::::::::::::::::::::::


Property printout bound to 'properties.out'

           -------------------------------------------------
          | TOTAL ENERGY              -12.692337825525 Eh   |
          | GRADIENT NORM               0.056688193369 Eh/α |
          | HOMO-LUMO GAP               3.757611127298 eV   |
           -------------------------------------------------

------------------------------------------------------------------------
 * finished run on 2026/03/16 at 14:14:09.270     
------------------------------------------------------------------------
 total:
 * wall-time:     0 d,  0 h,  0 min,  0.092 sec
 *  cpu-time:     0 d,  0 h,  0 min,  0.262 sec
 * ratio c/w:     2.855 speedup
 SCF:
 * wall-time:     0 d,  0 h,  0 min,  0.056 sec
 *  cpu-time:     0 d,  0 h,  0 min,  0.115 sec
 * ratio c/w:     2.063 speedup


-------------------------   --------------------
FINAL SINGLE POINT ENERGY       -12.692337825520
-------------------------   --------------------


-------------
DIPOLE MOMENT
-------------
                                X             Y             Z
Total Dipole Moment    :     -0.00000      -0.00000       0.98700
                        -----------------------------------------
Magnitude (a.u.)       :      0.98700
Magnitude (Debye)      :      2.50875


------------------
CARTESIAN GRADIENT
------------------

   1   C   :   -0.000000115   -0.000000004   -0.006290855
   2   H   :    0.000000004    0.013564376   -0.017238997
   3   H   :    0.011747260   -0.006782218   -0.017239024
   4   H   :   -0.011747171   -0.006782171   -0.017238997
   5   F   :    0.000000014    0.000000014    0.024105618
   6   Br  :    0.000000009    0.000000003    0.033902254

Difference to translation invariance:
           :   -0.0000000000   -0.0000000000    0.0000000000

Difference to rotation invariance:
           :   -0.0000000002    0.0000000003   -0.0000000000

Norm of the Cartesian gradient     ...    0.0566881934
RMS gradient                       ...    0.0133615353
MAX gradient                       ...    0.0339022543
------------------------------------------------------------------------------
                         ORCA GEOMETRY RELAXATION STEP
------------------------------------------------------------------------------

Reading the OPT-File                    .... done
Getting information on internals        .... done
Copying old internal coords+grads       .... done
Making the new internal coordinates     .... (2022 redundants) done
Validating the new internal coordinates .... (2022 redundants) done
Calculating the B-matrix                .... done
Calculating the G,G- and P matrices     .... done
Transforming gradient to internals      .... done
Projecting the internal gradient        .... done
Number of atoms                         ....   6
Number of internal coordinates          ....  14
Current Energy                          ....   -12.692337826 Eh
Current gradient norm                   ....     0.056688193 Eh/bohr
Maximum allowed component of the step   ....  0.300
Current trust radius                    ....  0.100
Updating the Hessian (Bofill)           .... done
Diagonalizing the Hessian               .... done
Dimension of the hessian                ....  14
Lowest eigenvalues of the Hessian:
 -0.011602002  0.058228004  0.087645823  0.087646173  0.105018197
Hessian has   1 negative eigenvalues
Taking P-RFO step
Searching for lambda that maximizes along the lowest mode
TS mode is mode number   0 with eigenvalue  -0.01160200 and components:
   1.   -0.00110813
   2.   -0.00111023
   3.   -0.00111081
   4.   -0.65662992
   5.    0.50362141
[...]
 SCC setup                      ...        0 min,  0.000 sec (  1.473%)
 Dispersion                     ...        0 min,  0.000 sec (  0.350%)
 classical contributions        ...        0 min,  0.000 sec (  0.206%)
 integral evaluation            ...        0 min,  0.017 sec ( 89.011%)
 iterations                     ...        0 min,  0.001 sec (  5.351%)
 molecular gradient             ...        0 min,  0.001 sec (  2.797%)
 printout                       ...        0 min,  0.000 sec (  0.710%)

         :::::::::::::::::::::::::::::::::::::::::::::::::::::
         ::                     SUMMARY                     ::
         :::::::::::::::::::::::::::::::::::::::::::::::::::::
         :: total energy             -12.687984678076 Eh    ::
         :: gradient norm              0.000023521853 Eh/a0 ::
         :: HOMO-LUMO gap              1.276929926258 eV    ::
         ::.................................................::
         :: SCC energy               -12.743847953535 Eh    ::
         :: -> isotropic ES            0.228848737532 Eh    ::
         :: -> anisotropic ES         -0.007946870472 Eh    ::
         :: -> anisotropic XC         -0.008814171568 Eh    ::
         :: -> dispersion             -0.002233812102 Eh    ::
         :: repulsion energy           0.055863275459 Eh    ::
         :: add. restraining           0.000000000000 Eh    ::
         :: total charge              -0.999999999965 e     ::
         :::::::::::::::::::::::::::::::::::::::::::::::::::::

           ------------------------------------------------- 
          |                Numerical Hessian                |
           ------------------------------------------------- 
step length          :   0.00500
SCC accuracy         :   0.30000
Hessian scale factor :   1.00000
frozen atoms in %    :   0.00000    0
RMS gradient         :   0.00002
estimated CPU  time      0.00 min
estimated wall time      0.00 min

writing file <hessian>.

 projected vibrational frequencies (cm⁻¹)
eigval :       -0.00    -0.00     0.00     0.00     0.00     0.00
eigval :     -146.69   176.50   198.22   476.27   764.84   954.02
eigval :     1265.58  1413.53  1439.13  2906.94  3049.98  3058.63

Property printout bound to 'properties.out'
Molecule has the following symmetry elements: (sigma) 
It seems to be the Cs point group
imag cut-off (cm-1) :    5.00
 found            1  significant imaginary frequency
 writing imag mode distorted coords to xtbhess.xyz
 for further optimization.

           -------------------------------------------------
          | TOTAL ENERGY              -12.687984678076 Eh   |
          | TOTAL ENTHALPY            -12.646868602204 Eh   |
          | TOTAL FREE ENERGY         -12.680540523280 Eh   |
          | GRADIENT NORM               0.000023499524 Eh/α |
          | HOMO-LUMO GAP               1.276931057200 eV   |
           -------------------------------------------------

------------------------------------------------------------------------
 * finished run on 2026/03/16 at 14:14:20.370     
------------------------------------------------------------------------
 total:
 * wall-time:     0 d,  0 h,  0 min,  0.124 sec
 *  cpu-time:     0 d,  0 h,  0 min,  0.382 sec
 * ratio c/w:     3.083 speedup
 SCF:
 * wall-time:     0 d,  0 h,  0 min,  0.019 sec
 *  cpu-time:     0 d,  0 h,  0 min,  0.137 sec
 * ratio c/w:     7.152 speedup
 analytical hessian:
 * wall-time:     0 d,  0 h,  0 min,  0.087 sec
 *  cpu-time:     0 d,  0 h,  0 min,  0.157 sec
 * ratio c/w:     1.794 speedup


-------------------------   --------------------
FINAL SINGLE POINT ENERGY       -12.687984678080
-------------------------   --------------------


-------------
DIPOLE MOMENT
-------------
                                X             Y             Z
Total Dipole Moment    :      1.22000       0.67900      -1.14800
                        -----------------------------------------
Magnitude (a.u.)       :      1.80758
Magnitude (Debye)      :      4.59450


-----------------------
VIBRATIONAL FREQUENCIES
-----------------------

Scaling factor for frequencies =  1.000000000  (already applied!)

     0:       0.00 cm**-1
     1:       0.00 cm**-1
     2:       0.00 cm**-1
     3:       0.00 cm**-1
     4:       0.00 cm**-1
     5:       0.00 cm**-1
     6:    -146.69 cm**-1  ***imaginary mode***
     7:     176.49 cm**-1
     8:     198.22 cm**-1
     9:     476.26 cm**-1
    10:     764.82 cm**-1
    11:     953.99 cm**-1
    12:    1265.55 cm**-1
    13:    1413.49 cm**-1
    14:    1439.09 cm**-1
    15:    2906.86 cm**-1
    16:    3049.89 cm**-1
    17:    3058.55 cm**-1


------------
NORMAL MODES
------------

These modes are the Cartesian displacements weighted by the diagonal matrix
M(i,i)=1/sqrt(m[i]) where m[i] is the mass of the displaced atom
Thus, these vectors are normalized but *not* orthogonal

                  0          1          2          3          4          5    
      0       0.000000   0.000000   0.000000   0.000000   0.000000   0.000000
      1       0.000000   0.000000   0.000000   0.000000   0.000000   0.000000
      2       0.000000   0.000000   0.000000   0.000000   0.000000   0.000000
      3       0.000000   0.000000   0.000000   0.000000   0.000000   0.000000
      4       0.000000   0.000000   0.000000   0.000000   0.000000   0.000000
      5       0.000000   0.000000   0.000000   0.000000   0.000000   0.000000
      6       0.000000   0.000000   0.000000   0.000000   0.000000   0.000000
      7       0.000000   0.000000   0.000000   0.000000   0.000000   0.000000
      8       0.000000   0.000000   0.000000   0.000000   0.000000   0.000000
      9       0.000000   0.000000   0.000000   0.000000   0.000000   0.000000
     10       0.000000   0.000000   0.000000   0.000000   0.000000   0.000000
     11       0.000000   0.000000   0.000000   0.000000   0.000000   0.000000
     12       0.000000   0.000000   0.000000   0.000000   0.000000   0.000000
     13       0.000000   0.000000   0.000000   0.000000   0.000000   0.000000
     14       0.000000   0.000000   0.000000   0.000000   0.000000   0.000000
     15       0.000000   0.000000   0.000000   0.000000   0.000000   0.000000
     16       0.000000   0.000000   0.000000   0.000000   0.000000   0.000000
     17       0.000000   0.000000   0.000000   0.000000   0.000000   0.000000
                  6          7          8          9         10         11    
      0       0.298395   0.078393  -0.073788  -0.195484  -0.106561  -0.051675
      1       0.165945  -0.141072  -0.044915  -0.108268  -0.059465   0.092772
      2      -0.121898  -0.000346   0.052546  -0.602819   0.037532   0.000103
      3       0.355396  -0.448922  -0.108424  -0.142418   0.071412   0.260340
      4       0.191082  -0.127162  -0.058853  -0.117048  -0.008392  -0.043015
      5      -0.271402   0.187671   0.167914  -0.452239  -0.283401   0.616444
      6       0.350478   0.344462  -0.092907  -0.176591   0.030999  -0.100517
      7       0.202311   0.314371  -0.048155  -0.061517   0.065671  -0.243918
      8      -0.271768  -0.188203   0.160184  -0.451862  -0.283035  -0.616734
      9       0.492333   0.331038  -0.180163  -0.041668   0.345603   0.145299
     10       0.273117  -0.595116  -0.116195  -0.021976   0.192515  -0.260669
     11       0.229768  -0.000407  -0.140300  -0.303638   0.809884   0.000447
     12      -0.128319  -0.031428   0.090393   0.012682   0.009463  -0.000723
     13      -0.071363   0.056295   0.051868   0.006880   0.005295   0.001308
     14      -0.032922   0.001417  -0.890302   0.072870  -0.013504  -0.000021
     15      -0.029462  -0.007170  -0.005588   0.030921   0.008117   0.004091
     16      -0.016386   0.012967  -0.002765   0.017169   0.004529  -0.007349
     17       0.030106  -0.000273   0.201421   0.088529  -0.005502  -0.000012
                 12         13         14         15         16         17    
      0      -0.000454  -0.032198  -0.066639  -0.051410  -0.056299  -0.044630
      1      -0.000278   0.057729  -0.037123  -0.028625  -0.031495   0.079966
      2      -0.098687   0.000030   0.004008   0.042490  -0.010257  -0.000020
      3       0.013123   0.273722   0.682975  -0.024008   0.025652  -0.075244
      4      -0.092323   0.050776  -0.075203  -0.082668   0.697150  -0.691141
      5       0.623424  -0.362668   0.052113   0.002340   0.097769  -0.099775
      6      -0.071444  -0.187096   0.296266  -0.083072   0.604053   0.628916
      7       0.059970  -0.205017   0.620278   0.023256  -0.344680  -0.301428
      8       0.623040   0.363086   0.051644   0.002297   0.097542   0.100140
      9       0.231327   0.369725  -0.123853   0.729254   0.047042  -0.021011
     10       0.128993  -0.664101  -0.068389   0.405861   0.026108   0.038166
     11       0.354738   0.000245  -0.155354  -0.532291  -0.058350  -0.000179
     12       0.001306  -0.000998  -0.000359  -0.001031   0.000092   0.000114
     13       0.000729   0.001801  -0.000204  -0.000575   0.000051  -0.000206
     14      -0.001788  -0.000015   0.001136   0.000000   0.000127   0.000001
     15      -0.002425  -0.000680  -0.000689   0.000124  -0.000096  -0.000038
     16      -0.001351   0.001218  -0.000385   0.000069  -0.000054   0.000069
     17      -0.004940  -0.000009  -0.000222   0.000269  -0.000216   0.000000


The first frequency considered to be a vibration is 7
The total number of vibrations considered is 11


--------------------------
THERMOCHEMISTRY AT 298.15K
--------------------------

Temperature         ...   298.15 K
Pressure            ...     1.00 atm
Total Mass          ...   113.93 AMU
Quasi RRHO          ...     True
Cut-Off Frequency   ...     1.00 cm^-1

Throughout the following assumptions are being made:
  (1) The electronic state is orbitally nondegenerate
  (2) There are no thermally accessible electronically excited states
  (3) Hindered rotations indicated by low frequency modes are not
      treated as such but are treated as vibrations and this may
      cause some error
  (4) All equations used are the standard statistical mechanics
      equations for an ideal gas
  (5) All vibrations are strictly harmonic

freq.     176.49  E(vib)   ...       0.38 
freq.     198.22  E(vib)   ...       0.35 
freq.     476.26  E(vib)   ...       0.15 
freq.     764.82  E(vib)   ...       0.06 
freq.     953.99  E(vib)   ...       0.03 
freq.    1265.55  E(vib)   ...       0.01 
freq.    1413.49  E(vib)   ...       0.00 
freq.    1439.09  E(vib)   ...       0.00 
freq.    2906.86  E(vib)   ...       0.00 
freq.    3049.89  E(vib)   ...       0.00 
freq.    3058.55  E(vib)   ...       0.00 

------------
INNER ENERGY
------------

The inner energy is: U= E(el) + E(ZPE) + E(vib) + E(rot) + E(trans)
    E(el)   - is the total energy from the electronic structure calculation
              = E(kin-el) + E(nuc-el) + E(el-el) + E(nuc-nuc)
    E(ZPE)  - the the zero temperature vibrational energy from the frequency calculation
    E(vib)  - the the finite temperature correction to E(ZPE) due to population
              of excited vibrational states
    E(rot)  - is the rotational thermal energy
    E(trans)- is the translational thermal energy

Summary of contributions to the inner energy U:
Electronic energy                ...    -12.68798468 Eh
Zero point energy                ...      0.03577456 Eh      22.45 kcal/mol
Thermal vibrational correction   ...      0.00156377 Eh       0.98 kcal/mol
Thermal rotational correction    ...      0.00141627 Eh       0.89 kcal/mol
Thermal translational correction ...      0.00141627 Eh       0.89 kcal/mol
-----------------------------------------------------------------------
Total thermal energy                    -12.64781381 Eh


Summary of corrections to the electronic energy:
(perhaps to be used in another calculation)
Total thermal correction                  0.00439631 Eh       2.76 kcal/mol
Non-thermal (ZPE) correction              0.03577456 Eh      22.45 kcal/mol
-----------------------------------------------------------------------
Total correction                          0.04017087 Eh      25.21 kcal/mol


--------
ENTHALPY
--------

The enthalpy is H = U + kB*T
                kB is Boltzmann's constant
Total thermal energy              ...    -12.64781381 Eh 
Thermal Enthalpy correction       ...      0.00094421 Eh       0.59 kcal/mol
-----------------------------------------------------------------------
Total Enthalpy                    ...    -12.64686960 Eh


WARNING (ORCA/SYM): The number of Z matrix atoms does not agree with
the number of centers in the basis set. The point group will therefore
be determined without considering basis set information.


Note: Only C1 symmetry has been detected, increase convergence thresholds 
      if your molecule has a higher symmetry. Symmetry factor of 1.0 is   
      used for the rotational entropy correction. 
 

Note: Rotational entropy computed according to Herzberg 
Infrared and Raman Spectra, Chapter V,1, Van Nostrand Reinhold, 1945 
Point Group:  C1, Symmetry Number:   1  
Rotational constants in cm-1:     2.065420     0.053517     0.052686 

Vibrational entropy computed according to the QRRHO of S. Grimme
Chem.Eur.J. 2012 18 9955 using a reference frequency of 100.0 cm-1


-------
ENTROPY
-------

The entropy contributions are T*S = T*(S(el)+S(vib)+S(rot)+S(trans))
     S(el)   - electronic entropy
     S(vib)  - vibrational entropy
     S(rot)  - rotational entropy
     S(trans)- translational entropy
The entropies will be listed as multiplied by the temperature to get
units of energy

Electronic entropy                ...      0.00000000 Eh      0.00 kcal/mol
Vibrational entropy               ...      0.00268223 Eh      1.68 kcal/mol
Rotational entropy                ...      0.01194010 Eh      7.49 kcal/mol
Translational entropy             ...      0.01905598 Eh     11.96 kcal/mol
-----------------------------------------------------------------------
Final entropy term                ...      0.03367831 Eh     21.13 kcal/mol

In case the symmetry of your molecule has not been determined correctly
or in case you have a reason to use a different symmetry number we print 
out the resulting rotational entropy values for sn=1,12:

 non-linear molecules -----------------------------------
|  sn= 1 | S(rot)=       0.01194010 Eh      7.49 kcal/mol|
|  sn= 2 | S(rot)=       0.01128565 Eh      7.08 kcal/mol|
|  sn= 3 | S(rot)=       0.01090281 Eh      6.84 kcal/mol|
|  sn= 4 | S(rot)=       0.01063119 Eh      6.67 kcal/mol|
|  sn= 5 | S(rot)=       0.01042050 Eh      6.54 kcal/mol|
|  sn= 6 | S(rot)=       0.01024836 Eh      6.43 kcal/mol|
|  sn= 7 | S(rot)=       0.01010281 Eh      6.34 kcal/mol|
|  sn= 8 | S(rot)=       0.00997673 Eh      6.26 kcal/mol|
|  sn= 9 | S(rot)=       0.00986552 Eh      6.19 kcal/mol|
|  sn=10 | S(rot)=       0.00976605 Eh      6.13 kcal/mol|
|  sn=11 | S(rot)=       0.00967606 Eh      6.07 kcal/mol|
|  sn=12 | S(rot)=       0.00959390 Eh      6.02 kcal/mol|
 linear molecules ---------------------------------------
|  Dinfh | S(rot)=       0.00810490 Eh      5.09 kcal/mol|
|  Cinfv | S(rot)=       0.00875936 Eh      5.50 kcal/mol|
 --------------------------------------------------------


-------------------
GIBBS FREE ENERGY
-------------------

The Gibbs free energy is G = H - T*S

Total enthalpy                    ...    -12.64686960 Eh 
Total entropy correction          ...     -0.03367831 Eh    -21.13 kcal/mol
-----------------------------------------------------------------------
Final Gibbs free energy         ...    -12.68054791 Eh

For completeness - the Gibbs free energy minus the electronic energy
G-E(el)                           ...      0.00743677 Eh      4.67 kcal/mol


--------------------------------
SUGGESTED CITATIONS FOR THIS RUN
--------------------------------

Below you find a list of papers that are relevant to this ORCA run
We neither can nor want to force you to cite these papers, but we appreciate if you do
You receive ORCA, which is the product of decades of hard work by many enthusiastic individuals, for free
The only thing we kindly ask in return is that you cite our papers,
We deeply appreciate it, if you show your appreciation for ORCA by not just citing the generic ORCA reference.

Please note that relegating all ORCA citations to the supporting information does *not* help us.
SI sections are not indexed - citations you put there will not count into any citation statistics
But we need these citations in order to attract the funding resources that allow us to do what we are doing

Therefore, if you are a happy ORCA user, please consider citing a few of the papers listed below in the main body of your paper

In addition to the list printed below, the program has created the file sn2_f_br.bibtex that contains the list in bibtex format
You can import this file easily into all common literature databanks and citation aid programs


List of essential papers. We consider these as the minimum necessary citations

  1. Bannwarth, C.; Ehlert, S.; Grimme, S.
     GFN2-xTB—An Accurate and Broadly Parametrized Self-Consistent Tight-Binding Quantum Chemical Method with Multipole Electrostatics and Density-Dependent Dispersion Contributions
     J. Chem. Theory Comput. 2019 15(3), 1652-1671
     doi.org/10.1021/acs.jctc.8b01176
  2. Neese, F.
     Software update: the ORCA program system, version 6.0
     WIRES Comput. Molec. Sci. 2025 15(1), e70019
     doi.org/10.1002/wcms.7019

List of papers to cite with high priority. The work reported in these papers was absolutely
necessary for this run to complete.
Our perspective: the developers of density functionals and basis sets usually get cited in chemistry papers
Good! But without the algorithms to do something with them, the functionals or basis sets would not do anything.
Hence, in our opinion, the algorithm design and method developments papers are equally worthy of getting cited

  1. Bykov, D.; Petrenko, T.; Izsak, R.; Kossmann, S.; Becker, U.; Valeev, E.; Neese, F.
     Efficient implementation of the analytic second derivatives of Hartree-Fock and hybrid DFT energies: a detailed analysis of different approximations
     Molec. Phys. 2015 113 , 1961-1977
     doi.org/10.1080/00268976.2015.1025114
  2. Bannwarth, C.; Caldeweyher, E.; Ehlert, S.; Hansen, A.; Pracht, P.; Seibert, J.; Spicher, S.; Grimme, S.
     Extended tight-binding quantum chemistry methods
     WIRES Comput. Molec. Sci. 2020 11(2), e1493
     doi.org/10.1002/wcms.1493

List of suggested additional citations. These are papers that are important in the 'surrounding' of 
of this run, or papers that preceded the highly important papers. If you like your results we are grateful for a citation.

  1. Neese, F.
     The ORCA program system
     WIRES Comput. Molec. Sci. 2012 2(1), 73-78
     doi.org/10.1002/wcms.81
  2. Neese, F.
     Software update: the ORCA program system, version 4.0
     WIRES Comput. Molec. Sci. 2018 8(1), 1-6
     doi.org/10.1002/wcms.1327
  3. Neese, F.; Wennmohs, F.; Becker, U.; Riplinger, C.
     The ORCA quantum chemistry program package
     J. Chem. Phys. 2020 152(22), 224108
     doi.org/10.1063/5.0004608
  4. Neese, F.
     Software update: The ORCA program system—Version 5.0
     WIRES Comput. Molec. Sci. 2022 12(1), e1606
     doi.org/10.1002/wcms.1606

List of optional additional citations

  1. Neese, F.
     Approximate second-order SCF convergence for spin unrestricted wavefunctions
     Chem. Phys. Lett. 2000 325(1-3), 93-98
     doi.org/10.1016/s0009-2614(00)00662-x

Timings for individual modules:

Sum of individual times          ...       10.274 sec (=   0.171 min)
Geometry relaxation              ...        0.180 sec (=   0.003 min)   1.8 %
XTB module                       ...       10.094 sec (=   0.168 min)  98.2 %
                             ****ORCA TERMINATED NORMALLY****
TOTAL RUN TIME: 0 days 0 hours 0 minutes 12 seconds 801 msec
