
                                 *****************
                                 * O   R   C   A *
                                 *****************

                                            #,                                       
                                            ###                                      
                                            ####                                     
                                            #####                                    
                                            ######                                   
                                           ########,                                 
                                     ,,################,,,,,                         
                               ,,#################################,,                 
                          ,,##########################################,,             
                       ,#########################################, ''#####,          
                    ,#############################################,,   '####,        
                  ,##################################################,,,,####,       
                ,###########''''           ''''###############################       
              ,#####''   ,,,,##########,,,,          '''####'''          '####       
            ,##' ,,,,###########################,,,                        '##       
           ' ,,###''''                  '''############,,,                           
         ,,##''                                '''############,,,,        ,,,,,,###''
      ,#''                                            '''#######################'''  
     '                                                          ''''####''''         
             ,#######,   #######,   ,#######,      ##                                
            ,#'     '#,  ##    ##  ,#'     '#,    #''#        ,####,    ,#,          
            ##       ##  ##   ,#'  ##            #'  '#       #'       ,# #          
            ##       ##  #######   ##           ,######,      #####,      #          
            '#,     ,#'  ##    ##  '#,     ,#' ,#      #,     #,   #      #          
             '#######'   ##     ##  '#######'  #'      '#     '####' #    #          



                #########################################################
                #                        -***-                          #
                #          Department of theory and spectroscopy        #
                #                                                       #
                #                      Frank Neese                      #
                #                                                       #
                #     Directorship, Architecture, Infrastructure        #
                #                    SHARK, DRIVERS                     #
                #        Core code/Algorithms in most modules           #
                #                                                       #
                #        Max Planck Institute fuer Kohlenforschung      #
                #                Kaiser Wilhelm Platz 1                 #
                #                 D-45470 Muelheim/Ruhr                 #
                #                      Germany                          #
                #                                                       #
                #                  All rights reserved                  #
                #                        -***-                          #
                #########################################################


                         Program Version 6.1.0  -  RELEASE   -
                                (GIT: $679e74b$)
                          ($2025-06-10 18:02:51 +0200$)


 With contributions from (in alphabetic order):
[Max-Planck-Institut fuer Kohlenforschung]                               
  Daniel Aravena         : Magnetic Suceptibility                        
  Michael Atanasov       : Ab Initio Ligand Field Theory (pilot matlab implementation)
  Alexander A. Auer      : GIAO ZORA, VPT2 properties, NMR spectrum      
  Ute Becker             : All parallelization in ORCA, NUMFREQ, NUMCALC 
  Giovanni Bistoni       : ED, misc. LED, open-shell LED, HFLD           
  Dmytro Bykov           : pre 5.0 version of the SCF Hessian            
  Marcos Casanova-Páez   : Triplet and SCS-CIS(D). UHF-(DLPNO)-IP/EA/STEOM-CCSD. UHF-CVS-IP/STEOM-CCSD   
  Vijay G. Chilkuri      : MRCI spin determinant printing, contributions to CSF-ICE 
  Pauline Colinet        : FMM embedding                                 
  Dipayan Datta          : RHF DLPNO-CCSD density                        
  Achintya Kumar Dutta   : EOM-CC, STEOM-CC                              
  Nicolas Foglia         : Exact transition moments, OPA infrastructure, MCD improvements    
  Dmitry Ganyushin       : Spin-Orbit,Spin-Spin,Magnetic field MRCI      
  Miquel Garcia-Rates    : C-PCM and meta-GGA Hessian, CCSD/C-PCM, Gaussian charge scheme 
  Tiago L. C. Gouveia    : GS-ROHF, GS-ROCIS                             
  Yang Guo               : DLPNO-NEVPT2, F12-NEVPT2, CIM, IAO-localization        
  Andreas Hansen         : Spin unrestricted coupled pair/coupled cluster methods 
  Ingolf Harden          : AUTO-CI MPn and infrastructure                
  Benjamin Helmich-Paris : MC-RPA, TRAH-(SCF,CASSCF), AVAS, COSX integrals, SCF dyn. polar., MC-PDFT, srDFT 
  Lee Huntington         : MR-EOM, pCC                                   
  Robert Izsak           : Overlap fitted RIJCOSX, COSX-SCS-MP3, EOM     
  Riya Kayal             : Wick's Theorem for AUTO-CI, AUTO-CI UHF-CCSDT 
  Emily Kempfer          : AUTO-CI RHF CISDT and CCSDT, approximate NEVPT4
  Christian Kollmar      : KDIIS, OOCD, Brueckner-CCSD(T), CCSD density, CASPT2, CASPT2-K, improved NEVPT2 
  Axel Koslowski         : Symmetry handling                             
  Simone Kossmann        : meta-GGA functionals, TD-DFT gradient, OOMP2, (MP2 Hessian; deprecated post 5.0) 
  Lucas Lang             : DCDCAS, Hyperfine gauge corrections, ICE-SOC+SSC
  Marvin Lechner         : AUTO-CI (C++ implementation), FIC-MRCC        
  Spencer Leger          : CASSCF response                               
  Dagmar Lenk            : GEPOL surface, SMD, ORCA-2-JSON               
  Dimitrios Liakos       : Extrapolation schemes; Compound Job, Property file
  Dimitrios Manganas     : Further ROCIS development; embedding schemes. LFT, Crystal Embedding 
  Dimitrios Pantazis     : SARC Basis sets                               
  Anastasios Papadopoulos: AUTO-CI, single reference methods and gradients 
  Taras Petrenko         : pre 6.0 DFT Hessian and TD-DFT gradient,  ECA, NRVS 
  Petra Pikulova         : Analytic Raman intensities                    
  Peter Pinski           : DLPNO-MP2, DLPNO-MP2 Gradient                 
  Shashank Vittal Rao    : ES-AILFT, MagRelax                            
  Christoph Reimann      : Effective Core Potentials                     
  Marius Retegan         : Local ZFS, SOC                                
  Christoph Riplinger    : Optimizer, TS searches, QM/MM, DLPNO-CCSD(T), (RO)-DLPNO pert. Triples 
  Michael Roemelt        : Original ROCIS implementation, recursive CI coupling coefficients
  Masaaki Saitow         : Open-shell DLPNO-CCSD energy and density      
  Barbara Sandhoefer     : DKH picture change effects                    
  Yorick L. A. Schmerwitz: GMF and freeze-and-release deltaSCF, NEB S-IDPP initial path                    
  Kantharuban Sivalingam : CASSCF convergence/infrastructure, NEVPT2, NEVPT3, NEVPT4(SD), FIC-MRCI and CEPA variants
  Bernardo de Souza      : ESD, SOC TD-DFT                               
  Georgi L. Stoychev     : AutoAux, RI-MP2 NMR, DLPNO-MP2 response, X2C  
  Van Anh Tran           : RI-MP2 g-tensors                              
  Willem Van den Heuvel  : Paramagnetic NMR                              
  Zikuan Wang            : NOTCH, Electric field optimization            
  Frank Wennmohs         : Technical directorship and infrastructure     
  Hang Xu                : AUTO-CI-Response properties                   
                                                                         
[FACCTs GmbH]                                                            
  Markus Bursch, Nicolas Foglia, Miquel Garcia-Rates, Ingolf Harden, Hagen Neugebauer, Anastasios Papadopoulos, 
  Christoph Riplinger, Bernardo de Souza, Georgi L. Stoychev                                                    
                                                                 
  APM, various basis sets, CI-OPT, improved COSX, DLPNO-Multilevel,           
  DOCKER, DRACO, updates on ESD, Fragmentator, GOAT, IRC, LR-CPCM, L-BFGS, MBIS, meta-GGA TD-DFT gradient, ML-optimized integration grids, 
  MM, NACMEs, nearIR, NEB, NEB-TS, NL-DFT gradient (VV10), 2- and 3-layer-ONIOM, interface openCOSMO-RS, QMMM,   
  Crystal-QMMM, RESP, rigid body optimization, SF, symmetry and pop. for TD-DFT, various functionals, SOLVATOR                                   
                                                                         
[Other institutions]                                                     
  V. Asgeirsson          : NEB                                           
  Christoph Bannwarth    : sTDA-DFT, sTD-DFT, PBEh-3c, B97-3c, D3        
  Giovanni Bistoni       : ETS/NOCV, ADLD/ADEX, COVALED                  
  Martin Brehm           : Molecular dynamics                            
  Ronald Cardenas        : ETS/NOCV                                      
  Martina Colucci        : COVALED                                       
  Sebastian Ehlert       : rSCAN, r2SCAN, r2SCAN-3c, D4, dhf basis sets  
  Marvin Friede          : D4 for Fr, Ra, Ac-Lr                          
  Lars Goerigk           : TD-DFT with DH, B97 family of functionals     
  Stefan Grimme          : VdW corrections, initial TS optimization, DFT functionals, gCP, sTDA/sTD-DF 
  Waldemar Hujo          : DFT-NL                                        
  H. Jonsson             : NEB                                           
  Holger Kruse           : gCP                                           
  Marcel Mueller         : wB97X-3c, vDZP basis set                      
  Hagen Neugebauer       : wr2SCAN, Native XTB                           
  Gianluca Regni         : ADLD/ADEX                                     
  Tobias Risthaus        : pre 6.0 range-separated hybrid DFT and stability analysis
  Lukas Wittmann         : regularized MP2, r2SCAN double-hybrids, wr2SCAN        
                                                                         
We gratefully acknowledge several colleagues who have allowed us to      
interface, adapt or use parts of their codes:                            
  Ed Valeev, F. Pavosevic, A. Kumar             : LibInt (2-el integral package), F12 methods 
  Garnet Chan, S. Sharma, J. Yang, R. Olivares  : DMRG                   
  Ulf Ekstrom                                   : XCFun DFT Library      
  Mihaly Kallay                                 : mrcc  (arbitrary order and MRCC methods)
  Frank Weinhold                                : gennbo (NPA and NBO analysis)           
  Simon Mueller                                 : openCOSMO-RS                            
  Christopher J. Cramer and Donald G. Truhlar   : smd solvation model                     
  S Lehtola, MJT Oliveira, MAL Marques          : LibXC Library                           
  Liviu Ungur et al                             : ANISO software                          


 Your calculation uses the libint2 library for the computation of 2-el integrals
 For citations please refer to: http://libint.valeyev.net

 Your ORCA version has been built with support for libXC version: 7.0.0
 For citations please refer to: https://libxc.gitlab.io

 This ORCA versions uses:
   CBLAS   interface :  Fast vector & matrix operations
   LAPACKE interface :  Fast linear algebra routines
   SCALAPACK package :  Parallel linear algebra routines
   Shared memory     :  Shared parallel matrices
   BLAS/LAPACK       :  OpenBLAS 0.3.29  USE64BITINT DYNAMIC_ARCH NO_AFFINITY SkylakeX SINGLE_THREADED
        Core in use  :  SkylakeX
   Copyright (c) 2011-2014, The OpenBLAS Project


  ***********************************
  * Starting time: Thu Mar 12 13:27:20 2026
  * Host name:     midway3-login4.rcc.local
  * Process ID:    3079256
  * Working dir.:  /home/rzhu16/orca_TS_search/sn2_br_f/DFT_test
  ***********************************

Your calculation utilizes the geometrical counterpoise correction gCP
Please cite in your paper:
H.Kruse, S. Grimme J.Chem.Phys., 136, (2012), 154101 
   

Your calculation utilizes the atom-pairwise dispersion correction
based on EEQ partial charges (D4)


================================================================================

----- Orbital basis set information -----
Your calculation utilizes the basis: def2-mTZVPP
   Stefan Grimme, Andreas Hansen, Sebastian Ehlert, and Jan-Michael Mewes 
   J. Chem. Phys. 154, 064103 (2021). DOI: 10.1063/5.0040021

----- AuxJ basis set information -----
Your calculation utilizes the basis: def2-mTZVPP/J
   Stefan Grimme, Andreas Hansen, Sebastian Ehlert, and Jan-Michael Mewes 
   J. Chem. Phys. 154, 000000 (2021). DOI: 10.1063/5.0040021

================================================================================
                                        WARNINGS
                       Please study these warnings very carefully!
================================================================================



WARNING: SCAN, rSCAN, or r2SCAN functional requested.
  ===> : libXC variant has now been activated.



WARNING: Geometry Optimization
  ===> : Switching off AutoStart
         For restart on a previous wavefunction, please use MOREAD

================================================================================
                                       INPUT FILE
================================================================================
NAME = product_optfreq.inp
|  1> ! r2SCAN-3c Opt Freq PAL8 TightSCF
|  2> 
|  3> %pal
|  4>    nprocs 8
|  5> end
|  6> 
|  7> %scf
|  8>    MaxIter 150
|  9> end
| 10> 
| 11> * xyz -1 1
| 12>   C       0.109622     -0.066748     -0.026464
| 13>   H       0.095402      0.998127     -0.147430
| 14>   H       1.008948     -0.596583     -0.212215
| 15>   H      -0.828291     -0.573179     -0.144271
| 16>   Br      0.221389     -0.127620      2.213974
| 17>   F       0.297141     -0.172407     -2.079429
| 18> *
| 19> 
| 20>                          ****END OF INPUT****
================================================================================

                       *****************************
                       * Geometry Optimization Run *
                       *****************************

Geometry optimization settings:
Update method            Update   .... BFGS
Choice of coordinates    CoordSys .... (2022) Redundant Internals
Initial Hessian          InHess   .... Almloef's Model
Max. no of cycles        MaxIter  .... 50

Convergence Tolerances:
Energy Change            TolE     ....  5.0000e-06 Eh
Max. Gradient            TolMAXG  ....  3.0000e-04 Eh/bohr
RMS Gradient             TolRMSG  ....  1.0000e-04 Eh/bohr
Max. Displacement        TolMAXD  ....  4.0000e-03 bohr
RMS Displacement         TolRMSD  ....  2.0000e-03 bohr
Strict Convergence                .... False

------------------------------------------------------------------------------
                        ORCA OPTIMIZATION COORDINATE SETUP
------------------------------------------------------------------------------

The optimization will be done in redundant internal coordinates (2022)
Making redundant internal coordinates   ...  (2022 redundants) done
Evaluating the initial hessian          ...  (Almloef) done
Evaluating the coordinates              ...  done
Calculating the B-matrix                .... done
Calculating the G-matrix                .... done
The number of degrees of freedom        ....   18

    -----------------------------------------------------------------
                    Redundant Internal Coordinates


    -----------------------------------------------------------------
         Definition                    Initial Value    Approx d2E/dq
    -----------------------------------------------------------------
      1. B(H   1,C   0)                  1.0718         0.384974   
      2. B(H   2,C   0)                  1.0602         0.401766   
      3. B(H   3,C   0)                  1.0724         0.384158   
      4. B(Br  4,C   0)                  2.2440         0.091128   
      5. B(F   5,C   0)                  2.0642         0.043681   
      6. B(F   5,H   1)                  2.2679         0.010000   
      7. B(F   5,H   2)                  2.0428         0.010000   
      8. B(F   5,H   3)                  2.2742         0.010000   
      9. A(H   1,C   0,H   3)          116.4350         0.296936   
     10. A(H   2,C   0,H   3)          119.1198         0.298955   
     11. A(H   1,C   0,Br  4)           98.0646         0.277345   
     12. A(H   2,C   0,Br  4)           96.8412         0.279174   
     13. A(H   3,C   0,Br  4)           98.0726         0.277255   
     14. A(H   1,C   0,F   5)           86.5495         0.233956   
     15. A(H   2,C   0,F   5)           73.9254         0.235364   
     16. A(H   3,C   0,F   5)           86.9059         0.233887   
     17. A(Br  4,C   0,F   5)          170.7639         0.220236   
     18. A(H   1,C   0,H   2)          119.2089         0.299055   
    -----------------------------------------------------------------

Number of atoms                         .... 6
Number of degrees of freedom            .... 18


         *************************************************************
         *                GEOMETRY OPTIMIZATION CYCLE   1            *
         *************************************************************
---------------------------------
CARTESIAN COORDINATES (ANGSTROEM)
---------------------------------
  C      0.109622   -0.066748   -0.026464
  H      0.095402    0.998127   -0.147430
  H      1.008948   -0.596583   -0.212215
  H     -0.828291   -0.573179   -0.144271
  Br     0.221389   -0.127620    2.213974
  F      0.297141   -0.172407   -2.079429

----------------------------
CARTESIAN COORDINATES (A.U.)
----------------------------
  NO LB      ZA    FRAG     MASS         X           Y           Z
   0 C     6.0000    0    12.011    0.207156   -0.126135   -0.050010
   1 H     1.0000    0     1.008    0.180284    1.886187   -0.278602
   2 H     1.0000    0     1.008    1.906635   -1.127378   -0.401028
   3 H     1.0000    0     1.008   -1.565243   -1.083151   -0.272633
   4 Br   35.0000    0    79.900    0.418365   -0.241167    4.183805
   5 F     9.0000    0    18.998    0.561515   -0.325802   -3.929551

--------------------------------
INTERNAL COORDINATES (ANGSTROEM)
--------------------------------
 C      0   0   0     0.000000000000     0.00000000     0.00000000
 H      1   0   0     1.071817963640     0.00000000     0.00000000
 H      1   2   0     1.060196121245   119.20888434     0.00000000
 H      1   2   3     1.072395282803   116.43499360   205.76438209
 Br     1   2   3     2.244049842253    98.06462520   102.53586703
 F      3   1   2     2.042812425560    76.16072714   283.46561132

---------------------------
INTERNAL COORDINATES (A.U.)
---------------------------
 C      0   0   0     0.000000000000     0.00000000     0.00000000
 H      1   0   0     2.025442416696     0.00000000     0.00000000
 H      1   2   0     2.003480317398   119.20888434     0.00000000
 H      1   2   3     2.026533391807   116.43499360   205.76438209
 Br     1   2   3     4.240639632728    98.06462520   102.53586703
 F      3   1   2     3.860356027279    76.16072714   283.46561132

---------------------
BASIS SET INFORMATION
---------------------
There are 4 groups of distinct atoms

 Group   1 Type C   : 11s6p1d contracted to 5s3p1d pattern {62111/411/1}
 Group   2 Type H   : 4s1p contracted to 2s1p pattern {31/1}
 Group   3 Type Br  : 17s13p7d contracted to 6s5p3d pattern {842111/64111/511}
 Group   4 Type F   : 11s6p2d contracted to 5s3p2d pattern {62111/411/11}

Atom   0C    basis set group =>   1
Atom   1H    basis set group =>   2
Atom   2H    basis set group =>   2
Atom   3H    basis set group =>   2
Atom   4Br   basis set group =>   3
Atom   5F    basis set group =>   4
---------------------------------
AUXILIARY/J BASIS SET INFORMATION
---------------------------------
There are 4 groups of distinct atoms

 Group   1 Type C   : 8s3p3d contracted to 6s3p3d pattern {311111/111/111}
 Group   2 Type H   : 5s2p1d contracted to 3s1p1d pattern {311/2/1}
 Group   3 Type Br  : 19s5p5d3f1g contracted to 8s4p3d2f1g pattern {121111111/2111/311/21/1}
 Group   4 Type F   : 8s3p4d contracted to 6s3p4d pattern {311111/111/1111}

Atom   0C    basis set group =>   1
Atom   1H    basis set group =>   2
Atom   2H    basis set group =>   2
Atom   3H    basis set group =>   2
Atom   4Br   basis set group =>   3
Atom   5F    basis set group =>   4


           ************************************************************
           *        Program running with 8 parallel MPI-processes     *
           *              working on a common directory               *
           ************************************************************
------------------------------------------------------------------------------
                             ORCA STARTUP CALCULATIONS
                           -- RI-GTO INTEGRALS CHOSEN --
------------------------------------------------------------------------------
------------------------------------------------------------------------------
                   ___                                                        
                  /   \      - P O W E R E D   B Y -                         
                 /     \                                                     
                 |  |  |   _    _      __       _____    __    __             
                 |  |  |  | |  | |    /  \     |  _  \  |  |  /  |          
                  \  \/   | |  | |   /    \    | | | |  |  | /  /          
                 / \  \   | |__| |  /  /\  \   | |_| |  |  |/  /          
                |  |  |   |  __  | /  /__\  \  |    /   |      \           
                |  |  |   | |  | | |   __   |  |    \   |  |\   \          
                \     /   | |  | | |  |  |  |  | |\  \  |  | \   \       
                 \___/    |_|  |_| |__|  |__|  |_| \__\ |__|  \__/        
                                                                              
                      - O R C A' S   B I G   F R I E N D -                    
                                      &                                       
                       - I N T E G R A L  F E E D E R -                       
                                                                              
 v1 FN, 2020, v2 2021, v3 2022-2024                                           
------------------------------------------------------------------------------


----------------------
SHARK INTEGRAL PACKAGE
----------------------

Number of atoms                             ...      6
Number of basis functions                   ...     94
Number of shells                            ...     42
Maximum angular momentum                    ...      2
Integral batch strategy                     ... SHARK/LIBINT Hybrid
RI-J (if used) integral strategy            ... SPLIT-RIJ (Revised 2003 algorithm where possible)
Printlevel                                  ...      1
Contraction scheme used                     ... SEGMENTED contraction
Prescreening option                         ... SCHWARTZ
   Thresh                                   ... 2.500e-11
   Tcut                                     ... 2.500e-12
   Tpresel                                  ... 2.500e-12 
Coulomb Range Separation                    ... NOT USED
Exchange Range Separation                   ... NOT USED
Multipole approximations                    ... NOT USED
Finite Nucleus Model                        ... NOT USED
CABS basis                                  ... NOT available
Auxiliary Coulomb fitting basis             ... AVAILABLE
   # of basis functions in Aux-J            ...    156
   # of shells in Aux-J                     ...     58
   Maximum angular momentum in Aux-J        ...      4
Auxiliary J/K fitting basis                 ... NOT available
Auxiliary Correlation fitting basis         ... NOT available
Auxiliary 'external' fitting basis          ... NOT available

Checking pre-screening integrals            ... done (  0.0 sec) Dimension = 42
   => SHARK Basis and OBASIS are compatible. Storing Pre-screening
Shell pair information
Shell pair cut-off parameter TPreSel        ...   2.5e-12
Total number of shell pairs                 ...       903
Shell pairs after pre-screening             ...       828
Total number of primitive shell pairs       ...      4124
Primitive shell pairs kept                  ...      2903
          la=0 lb=0:    224 shell pairs
          la=1 lb=0:    286 shell pairs
          la=1 lb=1:    100 shell pairs
          la=2 lb=0:    120 shell pairs
          la=2 lb=1:     79 shell pairs
          la=2 lb=2:     19 shell pairs

Checking whether 4 symmetric matrices of dimension 94 fit in memory
:Max Core in MB      =   4096.00
 MB in use           =      4.40
 MB left             =   4091.60
 MB needed           =      0.14
 Data fit in memory  = YES
Calculating RI/J V-Matrix + Cholesky decomp.... done (  0.0 sec)
Calculating Nuclear repulsion               ... done (  0.0 sec) ENN=    139.773626018502 Eh

Diagonalization of the overlap matrix:
Smallest eigenvalue                        ... 6.283e-03
Time for diagonalization                   ...    0.001 sec
Threshold for overlap eigenvalues          ... 1.000e-07
Number of eigenvalues below threshold      ... 0
Time for construction of square roots      ...    0.077 sec
Total time needed                          ...    0.080 sec

-------------------
DFT GRID GENERATION
-------------------

General Integration Accuracy     IntAcc      ... 4.388
Radial Grid Type                 RadialGrid  ... OptM3 with GC (2021)
Angular Grid (max. ang.)         AngularGrid ... 4 (Lebedev-302)
Angular grid pruning method      GridPruning ... 4 (adaptive)
Weight generation scheme         WeightScheme... mBecke (2022)
Basis function cutoff            BFCut       ... 1.0000e-11
Integration weight cutoff        WCut        ... 1.0000e-14
Partially contracted basis set               ... off
Rotationally invariant grid construction     ... off
Angular grids for H and He will be reduced by one unit
Core-polarized basis detected: some atoms will have their core
                               angular grid increased.

Total number of grid points                  ...    33373
Total number of batches                      ...      524
Average number of points per batch           ...       63
Average number of grid points per atom       ...     5562
Grids setup in   0.7 sec
Initializing property integral containers    ... done (  0.0 sec)

SHARK setup successfully completed in   1.1 seconds

Maximum memory used throughout the entire STARTUP-calculation: 13.2 MB


           ************************************************************
           *        Program running with 8 parallel MPI-processes     *
           *              working on a common directory               *
           ************************************************************
-------------------------------------------------------------------------------
                                 ORCA GUESS
                   Start orbitals & Density for SCF / CASSCF
-------------------------------------------------------------------------------

------------
SCF SETTINGS
------------
Hamiltonian:
 Density Functional     Method          .... DFT(GTOs)
  Functional kind                       .... Exchange
  Functional name                       .... Re-regularized SCAN exchange by Furness et al
  Functional family                     .... MGGA
  Functional refs                              
    [ 0] J. W. Furness, A. D. Kaplan, J. Ning, J. P. Perdew, and J. Sun.,  J. Phys. Chem. Lett. 11, 8208-8215 (2020), doi: 10.1021/acs.jpclett.0c02405
    [ 1] J. W. Furness, A. D. Kaplan, J. Ning, J. P. Perdew, and J. Sun.,  J. Phys. Chem. Lett. 11, 9248-9248 (2020), doi: 10.1021/acs.jpclett.0c03077
  Functional external parameters        .... 6
    Parameter  0 _c1        =  6.670000e-01 : c1 parameter        
    Parameter  1 _c2        =  8.000000e-01 : c2 parameter        
    Parameter  2 _d         =  1.240000e+00 : d parameter         
    Parameter  3 _k1        =  6.500000e-02 : k1 parameter        
    Parameter  4 _eta       =  1.000000e-03 : eta parameter       
    Parameter  5 _dp2       =  3.610000e-01 : dp2 parameter       
  Functional kind                       .... Correlation
  Functional name                       .... Re-regularized SCAN correlation by Furness et al
  Functional family                     .... MGGA
  Functional refs                              
    [ 0] J. W. Furness, A. D. Kaplan, J. Ning, J. P. Perdew, and J. Sun.,  J. Phys. Chem. Lett. 11, 8208-8215 (2020), doi: 10.1021/acs.jpclett.0c02405
    [ 1] J. W. Furness, A. D. Kaplan, J. Ning, J. P. Perdew, and J. Sun.,  J. Phys. Chem. Lett. 11, 9248-9248 (2020), doi: 10.1021/acs.jpclett.0c03077
  Functional external parameters        .... 1
    Parameter  0 _eta       =  1.000000e-03 : Regularization parameter
 Gradients option       PostSCFGGA      .... off
 RI-approximation to the Coulomb term is turned on
   Number of AuxJ basis functions       .... 156


General Settings:
 Integral files         IntName         .... product_optfreq
 Hartree-Fock type      HFTyp           .... RHF
 Total Charge           Charge          ....   -1
 Multiplicity           Mult            ....    1
 Number of Electrons    NEL             ....   54
 Basis Dimension        Dim             ....   94
 Nuclear Repulsion      ENuc            ....    139.7736260185 Eh

Convergence Acceleration:
 AO-DIIS                CNVDIIS         .... on
   Start iteration      DIISMaxIt       ....    12
   Startup error        DIISStart       ....  0.200000
   # of expansion vecs  DIISMaxEq       ....     5
   Bias factor          DIISBfac        ....   1.050
   Max. coefficient     DIISMaxC        ....  10.000
 MO-DIIS                CNVKDIIS        .... off
 Trust-Rad. Augm. Hess. CNVTRAH         .... auto
   Auto Start mean grad. ratio tolernc. ....  1.125000
   Auto Start start iteration           ....    50
   Auto Start num. interpolation iter.  ....    10
   Max. Number of Micro iterations      ....    24
   Max. Number of Macro iterations      .... Maxiter - #DIIS iter
   Number of Davidson start vectors     ....     2
   Converg. threshold    (grad. norm)   ....   1.000e-05
   Grad. Scal. Fac. for Micro threshold ....   0.100
   Minimum threshold for Micro iter.    ....   1.000e-02
   NR start threshold (gradient norm)   ....   1.000e-04
   Initial trust radius                 ....   0.400
   Minimum AH scaling param. (alpha)    ....   1.000
   Maximum AH scaling param. (alpha)    .... 1000.000
   Quad. conv. algorithm                .... NR
   White noise on init. David. guess    .... on
   Maximum white noise                  ....   0.010
   Pseudo random numbers                .... off
   Inactive MOs                         .... canonical
   Orbital update algorithm             .... Taylor
   Preconditioner                       .... Diag
   Full preconditioner red. dimension   ....   250
   COSX micro iterations for RIJONX calc.... off
 SOSCF                 CNVSOSCF           .... on
   Start iteration     SOSCFMaxIt         ....   150
   Startup grad/error  SOSCFStart         ....  0.003300
   Hessian update      SOSCFHessUp        .... L-BFGS
   Autom. constraints  SOSCFAutoConstrain .... off
 Level Shifting         CNVShift        .... on
   Level shift para.    LevelShift      ....    0.2500
   Turn off err/grad.   ShiftErr        ....    0.0010
 Zerner damping         CNVZerner       .... off
 Static damping         CNVDamp         .... on
   Fraction old density DampFac         ....    0.7000
   Max. Damping (<1)    DampMax         ....    0.9800
   Min. Damping (>=0)   DampMin         ....    0.0000
   Turn off err/grad.   DampErr         ....    0.1000

SCF Procedure:
 Maximum # iterations   MaxIter         ....   150
 SCF integral mode      SCFMode         .... Direct
   Integral package                     .... SHARK and LIBINT hybrid scheme
 Reset frequency        DirectResetFreq ....    20
 Integral Threshold     Thresh          ....  2.500e-11 Eh
 Primitive CutOff       TCut            ....  2.500e-12 Eh

Convergence Tolerance:
 Convergence Check Mode ConvCheckMode   .... Total+1el-Energy
 Convergence forced     ConvForced      .... 0
 Energy Change          TolE            ....  1.000e-08 Eh
 1-El. energy change                    ....  1.000e-05 Eh
 Orbital Gradient       TolG            ....  1.000e-05
 Orbital Rotation angle TolX            ....  1.000e-05
 DIIS Error             TolErr          ....  5.000e-07

------------------------------
INITIAL GUESS: MODEL POTENTIAL
------------------------------
Loading Hartree-Fock densities                     ... done
Calculating cut-offs                               ... done
Initializing the effective Hamiltonian             ... done
Setting up the integral package (SHARK)            ... done
Starting the Coulomb interaction                   ... done (   0.0 sec)
Making the grid                                    ... done (   0.2 sec)
Mapping shells                                     ... done
Starting the XC term evaluation                    ... done (   0.1 sec)
  promolecular density results
     # of electrons  =     52.998283418
     EX              =   -105.160312437
     EC              =     -2.290574582
     EX+EC           =   -107.450887018
Transforming the Hamiltonian                       ... done (   0.0 sec)
Diagonalizing the Hamiltonian                      ... done (   0.0 sec)
Back transforming the eigenvectors                 ... done (   0.0 sec)
Now organizing SCF variables                       ... done
                      ------------------
                      INITIAL GUESS DONE (   0.3 sec)
                      ------------------
             **** ENERGY FILE WAS UPDATED (product_optfreq.en.tmp) ****
Finished Guess after   0.6 sec
Maximum memory used throughout the entire GUESS-calculation: 7.0 MB


           ************************************************************
           *        Program running with 8 parallel MPI-processes     *
           *              working on a common directory               *
           ************************************************************

-------------------------------------------------------------------------------------------
                                      ORCA LEAN-SCF
                              memory conserving SCF solver
-------------------------------------------------------------------------------------------

----------------------------------------D-I-I-S--------------------------------------------
Iteration    Energy (Eh)           Delta-E    RMSDP     MaxDP     DIISErr   Damp  Time(sec)
-------------------------------------------------------------------------------------------
               ***  Starting incremental Fock matrix formation  ***
    1    -2713.7455263941392332     0.00e+00  1.32e-02  7.14e-02  3.62e-01  0.700   0.4
    2    -2713.8293210587480644    -8.38e-02  8.81e-03  4.62e-02  9.33e-02  0.700   0.5
                               ***Turning on AO-DIIS***
    3    -2713.8519400281875278    -2.26e-02  4.59e-03  2.98e-02  3.83e-02  0.700   0.4
    4    -2713.8683544592654471    -1.64e-02  9.23e-03  6.21e-02  3.04e-02  0.000   0.4
    5    -2713.9082336839192067    -3.99e-02  2.44e-03  1.71e-02  1.77e-02  0.000   0.4
    6    -2713.9092781906401797    -1.04e-03  9.86e-04  7.44e-03  5.71e-03  0.000   0.5
                              *** Initializing SOSCF ***
---------------------------------------S-O-S-C-F--------------------------------------
Iteration    Energy (Eh)           Delta-E    RMSDP     MaxDP     MaxGrad    Time(sec)
--------------------------------------------------------------------------------------
    7    -2713.9094111954527762    -1.33e-04  4.53e-04  3.78e-03  1.85e-03     0.4
               *** Restarting incremental Fock matrix formation ***
    8    -2713.9094310391146792    -1.98e-05  4.33e-04  3.37e-03  5.20e-04     0.3
    9    -2713.9094302460321160     7.93e-07  1.63e-04  1.21e-03  7.05e-04     0.5
   10    -2713.9094344705199546    -4.22e-06  1.16e-04  8.36e-04  3.70e-04     0.2
   11    -2713.9094340830333749     3.87e-07  5.82e-05  2.80e-04  4.40e-04     0.2
   12    -2713.9094352155721026    -1.13e-06  5.39e-05  3.73e-04  8.79e-05     0.4
   13    -2713.9094352733395681    -5.78e-08  1.89e-05  1.05e-04  7.13e-05     0.2
   14    -2713.9094353204231993    -4.71e-08  8.77e-06  6.80e-05  1.29e-05     0.1
   15    -2713.9094353215268711    -1.10e-09  4.38e-06  3.42e-05  9.39e-06     0.2
                 **** Energy Check signals convergence ****

               *****************************************************
               *                     SUCCESS                       *
               *           SCF CONVERGED AFTER  15 CYCLES          *
               *****************************************************

             **** ENERGY FILE WAS UPDATED (product_optfreq.en.tmp) ****

----------------
TOTAL SCF ENERGY
----------------

Total Energy       :      -2713.90943532181154 Eh          -73849.23016 eV

Components:
Nuclear Repulsion  :        139.77362601850197 Eh            3803.43373 eV
Electronic Energy  :      -2853.68306134031354 Eh          -77652.66388 eV
One Electron Energy:      -4066.13756333700530 Eh         -110645.22819 eV
Two Electron Energy:       1212.45450199669199 Eh           32992.56431 eV

Virial components:
Potential Energy   :      -5423.96963740951833 Eh         -147593.71735 eV
Kinetic Energy     :       2710.06020208770633 Eh           73744.48720 eV
Virial Ratio       :          2.00142034971442

DFT components:
N(Alpha)           :       27.000005469700 electrons
N(Beta)            :       27.000005469700 electrons
N(Total)           :       54.000010939400 electrons
E(X)               :     -106.142961556086 Eh       
E(C)               :       -2.324150003135 Eh       
E(XC)              :     -108.467111559221 Eh       

---------------
SCF CONVERGENCE
---------------

  Last Energy change         ...    1.1037e-09  Tolerance :   1.0000e-08
  Last MAX-Density change    ...    3.4221e-05  Tolerance :   1.0000e-07
  Last RMS-Density change    ...    4.3845e-06  Tolerance :   5.0000e-09
  Last DIIS Error            ...    1.8512e-03  Tolerance :   5.0000e-07
  Last Orbital Gradient      ...    9.3861e-06  Tolerance :   1.0000e-05
  Last Orbital Rotation      ...    1.3968e-05  Tolerance :   1.0000e-05


----------------
ORBITAL ENERGIES
----------------

  NO   OCC          E(Eh)            E(eV) 
   0   2.0000    -482.010638    -13116.1763 
   1   2.0000     -62.083316     -1689.3729 
   2   2.0000     -55.863623     -1520.1265 
   3   2.0000     -55.861230     -1520.0613 
   4   2.0000     -55.861190     -1520.0603 
   5   2.0000     -24.123406      -656.4312 
   6   2.0000      -9.906697      -269.5749 
   7   2.0000      -8.414881      -228.9806 
   8   2.0000      -6.218121      -169.2037 
   9   2.0000      -6.210847      -169.0057 
  10   2.0000      -6.210840      -169.0055 
  11   2.0000      -2.316738       -63.0416 
  12   2.0000      -2.315006       -62.9945 
  13   2.0000      -2.314994       -62.9942 
  14   2.0000      -2.309485       -62.8443 
  15   2.0000      -2.309482       -62.8442 
  16   2.0000      -0.755780       -20.5658 
  17   2.0000      -0.539756       -14.6875 
  18   2.0000      -0.456092       -12.4109 
  19   2.0000      -0.235041        -6.3958 
  20   2.0000      -0.230977        -6.2852 
  21   2.0000      -0.139156        -3.7866 
  22   2.0000      -0.073017        -1.9869 
  23   2.0000      -0.072686        -1.9779 
  24   2.0000      -0.034279        -0.9328 
  25   2.0000      -0.029733        -0.8091 
  26   2.0000      -0.027296        -0.7428 
  27   0.0000       0.140368         3.8196 
  28   0.0000       0.272309         7.4099 
  29   0.0000       0.345263         9.3951 
  30   0.0000       0.346351         9.4247 
  31   0.0000       0.373397        10.1606 
  32   0.0000       0.375964        10.2305 
  33   0.0000       0.382115        10.3979 
  34   0.0000       0.434976        11.8363 
  35   0.0000       0.448356        12.2004 
  36   0.0000       0.450890        12.2693 
  37   0.0000       0.537589        14.6285 
*Only the first 10 virtual orbitals were printed.

                    ********************************
                    * MULLIKEN POPULATION ANALYSIS *
                    ********************************

-----------------------
MULLIKEN ATOMIC CHARGES
-----------------------
   0 C :   -0.213416
   1 H :    0.165932
   2 H :    0.191037
   3 H :    0.165228
   4 Br:   -0.581413
   5 F :   -0.727369
Sum of atomic charges:   -1.0000000

--------------------------------
MULLIKEN REDUCED ORBITAL CHARGES
--------------------------------
  0 C s       :     3.321007  s :     3.321007
      pz      :     0.636763  p :     2.868446
      px      :     1.122175
      py      :     1.109508
      dz2     :     0.011595  d :     0.023963
      dxz     :     0.001581
      dyz     :     0.001485
      dx2y2   :     0.004985
      dxy     :     0.004317

  1 H s       :     0.814793  s :     0.814793
      pz      :     0.003928  p :     0.019275
      px      :     0.003471
      py      :     0.011876

  2 H s       :     0.788243  s :     0.788243
      pz      :     0.005361  p :     0.020720
      px      :     0.009760
      py      :     0.005599

  3 H s       :     0.815534  s :     0.815534
      pz      :     0.003895  p :     0.019238
      px      :     0.009871
      py      :     0.005473

  4 Brs       :     7.962095  s :     7.962095
      pz      :     5.608679  p :    17.599065
      px      :     5.994611
      py      :     5.995775
      dz2     :     2.011714  d :    10.020253
      dxz     :     2.004266
      dyz     :     2.004164
      dx2y2   :     2.000077
      dxy     :     2.000032

  5 F s       :     3.981371  s :     3.981371
      pz      :     1.779052  p :     5.747654
      px      :     1.982832
      py      :     1.985771
      dz2     :    -0.000139  d :    -0.001657
      dxz     :    -0.000761
      dyz     :    -0.000727
      dx2y2   :    -0.000024
      dxy     :    -0.000005



                     *******************************
                     * LOEWDIN POPULATION ANALYSIS *
                     *******************************

----------------------
LOEWDIN ATOMIC CHARGES
----------------------
   0 C :   -0.346721
   1 H :    0.154098
   2 H :    0.166999
   3 H :    0.153828
   4 Br:   -0.384365
   5 F :   -0.743838

-------------------------------
LOEWDIN REDUCED ORBITAL CHARGES
-------------------------------
  0 C s       :     3.105568  s :     3.105568
      pz      :     0.798850  p :     3.185521
      px      :     1.196063
      py      :     1.190609
      dz2     :     0.024381  d :     0.055631
      dxz     :     0.002842
      dyz     :     0.002581
      dx2y2   :     0.013686
      dxy     :     0.012141

  1 H s       :     0.799477  s :     0.799477
      pz      :     0.008088  p :     0.046425
      px      :     0.007807
      py      :     0.030530

  2 H s       :     0.782079  s :     0.782079
      pz      :     0.011880  p :     0.050922
      px      :     0.025288
      py      :     0.013754

  3 H s       :     0.799854  s :     0.799854
      pz      :     0.008008  p :     0.046319
      px      :     0.025159
      py      :     0.013152

  4 Brs       :     7.828626  s :     7.828626
      pz      :     5.567567  p :    17.528046
      px      :     5.979693
      py      :     5.980785
      dz2     :     2.018390  d :    10.027694
      dxz     :     2.004688
      dyz     :     2.004477
      dx2y2   :     2.000098
      dxy     :     2.000040

  5 F s       :     3.942706  s :     3.942706
      pz      :     1.787017  p :     5.758160
      px      :     1.984241
      py      :     1.986902
      dz2     :     0.024696  d :     0.042972
      dxz     :     0.009534
      dyz     :     0.008131
      dx2y2   :     0.000432
      dxy     :     0.000179



                      *****************************
                      * MAYER POPULATION ANALYSIS *
                      *****************************

  NA   - Mulliken gross atomic population
  ZA   - Total nuclear charge
  QA   - Mulliken gross atomic charge
  VA   - Mayer's total valence
  BVA  - Mayer's bonded valence
  FA   - Mayer's free valence

  ATOM       NA         ZA         QA         VA         BVA        FA
  0 C      6.2134     6.0000    -0.2134     3.7677     3.7677     0.0000
  1 H      0.8341     1.0000     0.1659     0.9540     0.9540     0.0000
  2 H      0.8090     1.0000     0.1910     0.9526     0.9526     0.0000
  3 H      0.8348     1.0000     0.1652     0.9540     0.9540    -0.0000
  4 Br    35.5814    35.0000    -0.5814     0.6453     0.6453    -0.0000
  5 F      9.7274     9.0000    -0.7274     0.3814     0.3814    -0.0000

  Mayer bond orders larger than 0.100000
B(  0-C ,  1-H ) :   0.9650 B(  0-C ,  2-H ) :   0.9613 B(  0-C ,  3-H ) :   0.9650 
B(  0-C ,  4-Br) :   0.5632 B(  0-C ,  5-F ) :   0.3132 

-------
TIMINGS
-------

Total SCF time: 0 days 0 hours 0 min 5 sec 

Total time                  ....       5.883 sec
Sum of individual times     ....       5.593 sec  ( 95.1%)

SCF preparation             ....       0.457 sec  (  7.8%)
Fock matrix formation       ....       4.178 sec  ( 71.0%)
  Startup                   ....       0.024 sec  (  0.6% of F)
  Split-RI-J                ....       0.699 sec  ( 16.7% of F)
  XC integration            ....       3.264 sec  ( 78.1% of F)
    XC Preparation          ....       0.000 sec  (  0.0% of XC)
    Basis function eval.    ....       0.424 sec  ( 13.0% of XC)
    Density eval.           ....       0.409 sec  ( 12.5% of XC)
    XC-Functional eval.     ....       0.534 sec  ( 16.4% of XC)
    XC-Potential eval.      ....       0.705 sec  ( 21.6% of XC)
Diagonalization             ....       0.000 sec  (  0.0%)
Density matrix formation    ....       0.203 sec  (  3.5%)
Total Energy calculation    ....       0.107 sec  (  1.8%)
Population analysis         ....       0.010 sec  (  0.2%)
Orbital Transformation      ....       0.087 sec  (  1.5%)
Orbital Orthonormalization  ....       0.000 sec  (  0.0%)
DIIS solution               ....       0.325 sec  (  5.5%)
SOSCF solution              ....       0.225 sec  (  3.8%)
Finished LeanSCF after   6.0 sec

Maximum memory used throughout the entire LEANSCF-calculation: 6.4 MB


           ************************************************************
           *        Program running with 8 parallel MPI-processes     *
           *              working on a common directory               *
           ************************************************************

------------------------------------------------------------------------------
                         ORCA PROPERTY INTEGRAL CALCULATIONS
------------------------------------------------------------------------------

GBWName                                   ... product_optfreq.gbw
Number of atoms                           ...      6
Number of basis functions                 ...     94
Max core memory                           ...   4096 MB

Dipole integrals                          ... YES
Quadrupole integrals                      ...  NO
Linear momentum integrals                 ...  NO
Angular momentum integrals                ...  NO
Higher moments length integrals           ...  NO
Higher moments velocity integrals         ...  NO
Kinetic energy integrals                  ...  NO
GIAO right hand sides                     ...  NO
GIAO dipole derivative integrals          ...  NO
SOC integrals                             ...  NO
EPR diamagnetic integrals (GIAO)          ...  NO
EPR gauge integrals                       ...  NO
Field gradient integrals                  ...  NO (   0 nuclei)
Spin-dipole/Fermi contact integrals       ...  NO (   0 nuclei)
Contact density integrals                 ...  NO (   0 nuclei)
Nucleus-orbit integrals                   ...  NO (   0 nuclei)
Geometric perturbations                   ...  NO (   6 nuclei)

Choice of electric origin   ... Center of mass
Position of electric origin ... (  0.4135, -0.2396,  2.2651) 
Choice of magnetic origin   ... GIAO
Position of magnetic origin ... (  0.0000,  0.0000,  0.0000) 

Calculating integrals                     ... Electric Dipole (Length)     done (  0.0 sec)

Property integrals calculated in   0.0 sec

Maximum memory used throughout the entire PROPINT-calculation: 7.0 MB


-------------------------------------------------------------------------------
                          DFT DISPERSION CORRECTION                            
                                                                               
                                DFTD4 V3.4.0                                   
-------------------------------------------------------------------------------
The R2SCAN3C composite method is recognized
Using three-body term ABC
Active option DFTDOPT                   ...         5   

-------------------------   ----------------
Dispersion correction           -0.000868432
-------------------------   ----------------

------------------   -----------------
gCP correction             0.004052692
------------------   -----------------

-------------------------   --------------------
FINAL SINGLE POINT ENERGY     -2713.906251061288
-------------------------   --------------------



           ************************************************************
           *        Program running with 8 parallel MPI-processes     *
           *              working on a common directory               *
           ************************************************************
------------------------------------------------------------------------------
                         ORCA SCF GRADIENT CALCULATION
------------------------------------------------------------------------------

Nuc. rep. gradient        (SHARK) ... done (  0.0 sec)
HCore & Overlap gradient  (SHARK) ... done (  0.0 sec)
Split-RIJ-J gradient      (SHARK) ... done (  0.6 sec)
XC gradient                       ... done (  0.4 sec)
Dispersion correction             ... done (  0.1 sec)

-------------------
DISPERSION GRADIENT
-------------------

   1   C   :   -0.000000400    0.000000208   -0.000004716
   2   H   :    0.000000188   -0.000001960   -0.000003608
   3   H   :   -0.000002103    0.000001249   -0.000004929
   4   H   :    0.000001788    0.000000791   -0.000003572
   5   Br  :    0.000000021    0.000000011    0.000039027
   6   F   :    0.000000506   -0.000000298   -0.000022202

Difference to translation invariance:
           :    0.0000000000   -0.0000000000    0.0000000000

Difference to rotation invariance:
           :   -0.0000000000   -0.0000000000   -0.0000000000

Norm of the Dispersion gradient    ...    0.0000458539
RMS gradient                       ...    0.0000108079
MAX gradient                       ...    0.0000390268
gCP correction                   ... done

------------------
CARTESIAN GRADIENT
------------------

   1   C   :    0.003218897   -0.001582580    0.015731609
   2   H   :   -0.002218213   -0.003654433   -0.000246322
   3   H   :   -0.008179895    0.004744325   -0.002108286
   4   H   :    0.001830952    0.003494119   -0.000193059
   5   Br  :    0.001450412   -0.000828872   -0.013461916
   6   F   :    0.003897847   -0.002172558    0.000277974

Difference to translation invariance:
           :    0.0000000000   -0.0000000000   -0.0000000000

Difference to rotation invariance:
           :   -0.0000183712   -0.0000313641   -0.0000057571

Norm of the Cartesian gradient     ...    0.0243341837
RMS gradient                       ...    0.0057356221
MAX gradient                       ...    0.0157316091

-------
TIMINGS
-------

Total SCF gradient time     ....        1.208 sec

Densities                   ....       0.000 sec  (  0.0%)
One electron gradient       ....       0.009 sec  (  0.8%)
RI-J Coulomb gradient       ....       0.611 sec  ( 50.6%)
XC gradient                 ....       0.391 sec  ( 32.4%)

Maximum memory used throughout the entire SCFGRAD-calculation: 26.7 MB
------------------------------------------------------------------------------
                         ORCA GEOMETRY RELAXATION STEP
------------------------------------------------------------------------------

Reading the OPT-File                    .... done
Getting information on internals        .... done
Copying old internal coords+grads       .... done
Making the new internal coordinates     .... (2022 redundants) done
Validating the new internal coordinates .... (2022 redundants) done
Calculating the B-matrix                .... done
Calculating the G,G- and P matrices     .... done
Transforming gradient to internals      .... done
Projecting the internal gradient        .... done
Number of atoms                         ....   6
Number of internal coordinates          ....  18
Current Energy                          .... -2713.906251061 Eh
Current gradient norm                   ....     0.024334184 Eh/bohr
Maximum allowed component of the step   ....  0.300
Current trust radius                    ....  0.300
Evaluating the initial hessian          ....  (Almloef) done
Projecting the Hessian                  .... done
Forming the augmented Hessian           .... done
Diagonalizing the augmented Hessian     .... done
Last element of RFO vector              ....  0.986894143
Lowest eigenvalues of augmented Hessian:
 -0.002745839  0.019694702  0.060040448  0.071849776  0.093051733
Length of the computed step             ....  0.163511956
The final length of the internal step   ....  0.163511956
Converting the step to Cartesian space:
 Initial RMS(Int)=    0.0385401376
Transforming coordinates:
 Iter   0:  RMS(Cart)=    0.0361691047 RMS(Int)=    0.0386149510
done
Storing new coordinates                 .... done

                                .--------------------.
          ----------------------|Geometry convergence|-------------------------
          Item                value                   Tolerance       Converged
          ---------------------------------------------------------------------
          RMS gradient        0.0044632557            0.0001000000      NO
          MAX gradient        0.0133454400            0.0003000000      NO
          RMS step            0.0385401376            0.0020000000      NO
          MAX step            0.1421640072            0.0040000000      NO
          -------------------------------------------------------------------------
          ........................................................
          Max(Bonds)      0.0752      Max(Angles)    1.78
          Max(Dihed)        0.00      Max(Improp)    0.00
          ---------------------------------------------------------------------

The optimization has not yet converged - more geometry cycles are needed


    ---------------------------------------------------------------------------
                         Redundant Internal Coordinates
                            (Angstroem and degrees)

        Definition                    Value    dE/dq     Step     New-Value
    ----------------------------------------------------------------------------
     1. B(H   1,C   0)                1.0718 -0.003891  0.0050    1.0768   
     2. B(H   2,C   0)                1.0602 -0.007915  0.0115    1.0717   
     3. B(H   3,C   0)                1.0724 -0.003623  0.0046    1.0769   
     4. B(Br  4,C   0)                2.2440 -0.013345  0.0752    2.3193   
     5. B(F   5,C   0)                2.0642  0.002414 -0.0047    2.0595   
     6. B(F   5,H   1)                2.2679  0.000759 -0.0084    2.2595   
     7. B(F   5,H   2)                2.0428 -0.004285  0.0288    2.0716   
     8. B(F   5,H   3)                2.2742  0.000929 -0.0095    2.2647   
     9. A(H   1,C   0,H   3)          116.43 -0.003264    0.70    117.13   
    10. A(H   2,C   0,H   3)          119.12  0.000997   -0.11    119.01   
    11. A(H   1,C   0,Br  4)           98.06  0.002574   -0.57     97.50   
    12. A(H   2,C   0,Br  4)           96.84 -0.002667    0.11     96.95   
    13. A(H   3,C   0,Br  4)           98.07  0.002666   -0.57     97.50   
    14. A(H   1,C   0,F   5)           86.55  0.000139   -0.37     86.18   
    15. A(H   2,C   0,F   5)           73.93 -0.002305    1.67     75.60   
    16. A(H   3,C   0,F   5)           86.91  0.000179   -0.43     86.47   
    17. A(Br  4,C   0,F   5)          170.76 -0.004973    1.78    172.55   
    18. A(H   1,C   0,H   2)          119.21  0.001157   -0.14    119.07   
    ----------------------------------------------------------------------------

Geometry step timings:
Preparation and reading OPT file:      0.000 s ( 2.903 %)
Internal coordinates            :      0.000 s ( 3.285 %)
B/P matrices and projection     :      0.000 s (11.688 %)
Hessian update/contruction      :      0.000 s (36.516 %)
Making the step                 :      0.000 s (10.237 %)
Converting the step to Cartesian:      0.000 s ( 3.361 %)
Storing new data                :      0.000 s ( 6.570 %)
Checking convergence            :      0.000 s ( 4.507 %)
Final printing                  :      0.000 s (20.474 %)
Total time                      :      0.001 s

Time for energy+gradient        :     11.727 s
Time for complete geometry iter :     12.323 s

         *************************************************************
         *                GEOMETRY OPTIMIZATION CYCLE   2            *
         *************************************************************
---------------------------------
CARTESIAN COORDINATES (ANGSTROEM)
---------------------------------
  C      0.116150   -0.070461   -0.041921
  H      0.108038    0.999803   -0.160171
  H      1.027072   -0.606852   -0.217882
  H     -0.823177   -0.584423   -0.157309
  Br     0.205066   -0.118504    2.275155
  F      0.271061   -0.157973   -2.093707

----------------------------
CARTESIAN COORDINATES (A.U.)
----------------------------
  NO LB      ZA    FRAG     MASS         X           Y           Z
   0 C     6.0000    0    12.011    0.219492   -0.133153   -0.079220
   1 H     1.0000    0     1.008    0.204163    1.889354   -0.302679
   2 H     1.0000    0     1.008    1.940885   -1.146784   -0.411737
   3 H     1.0000    0     1.008   -1.555580   -1.104399   -0.297271
   4 Br   35.0000    0    79.900    0.387520   -0.223939    4.299421
   5 F     9.0000    0    18.998    0.512231   -0.298526   -3.956533

--------------------------------
INTERNAL COORDINATES (ANGSTROEM)
--------------------------------
 C      0   0   0     0.000000000000     0.00000000     0.00000000
 H      1   0   0     1.076807439856     0.00000000     0.00000000
 H      1   2   0     1.071660233589   119.06843211     0.00000000
 H      1   2   3     1.076943367578   117.12958154   204.73964046
 Br     1   2   3     2.319279794803    97.50357154   102.29503869
 F      1   2   3     2.059485697962    86.18104563   288.80672474

---------------------------
INTERNAL COORDINATES (A.U.)
---------------------------
 C      0   0   0     0.000000000000     0.00000000     0.00000000
 H      1   0   0     2.034871160297     0.00000000     0.00000000
 H      1   2   0     2.025144350097   119.06843211     0.00000000
 H      1   2   3     2.035128026465   117.12958154   204.73964046
 Br     1   2   3     4.382803640114    97.50357154   102.29503869
 F      1   2   3     3.891863945876    86.18104563   288.80672474



           ************************************************************
           *        Program running with 8 parallel MPI-processes     *
           *              working on a common directory               *
           ************************************************************
------------------------------------------------------------------------------
                   ___                                                        
                  /   \      - P O W E R E D   B Y -                         
                 /     \                                                     
                 |  |  |   _    _      __       _____    __    __             
                 |  |  |  | |  | |    /  \     |  _  \  |  |  /  |          
                  \  \/   | |  | |   /    \    | | | |  |  | /  /          
                 / \  \   | |__| |  /  /\  \   | |_| |  |  |/  /          
                |  |  |   |  __  | /  /__\  \  |    /   |      \           
                |  |  |   | |  | | |   __   |  |    \   |  |\   \          
                \     /   | |  | | |  |  |  |  | |\  \  |  | \   \       
                 \___/    |_|  |_| |__|  |__|  |_| \__\ |__|  \__/        
                                                                              
                      - O R C A' S   B I G   F R I E N D -                    
                                      &                                       
                       - I N T E G R A L  F E E D E R -                       
                                                                              
 v1 FN, 2020, v2 2021, v3 2022-2024                                           
------------------------------------------------------------------------------


----------------------
SHARK INTEGRAL PACKAGE
----------------------

Number of atoms                             ...      6
Number of basis functions                   ...     94
Number of shells                            ...     42
Maximum angular momentum                    ...      2
Integral batch strategy                     ... SHARK/LIBINT Hybrid
RI-J (if used) integral strategy            ... SPLIT-RIJ (Revised 2003 algorithm where possible)
Printlevel                                  ...      1
Contraction scheme used                     ... SEGMENTED contraction
Prescreening option                         ... SCHWARTZ
   Thresh                                   ... 2.500e-11
   Tcut                                     ... 2.500e-12
   Tpresel                                  ... 2.500e-12 
Coulomb Range Separation                    ... NOT USED
Exchange Range Separation                   ... NOT USED
Multipole approximations                    ... NOT USED
Finite Nucleus Model                        ... NOT USED
CABS basis                                  ... NOT available
Auxiliary Coulomb fitting basis             ... AVAILABLE
   # of basis functions in Aux-J            ...    156
   # of shells in Aux-J                     ...     58
   Maximum angular momentum in Aux-J        ...      4
Auxiliary J/K fitting basis                 ... NOT available
Auxiliary Correlation fitting basis         ... NOT available
Auxiliary 'external' fitting basis          ... NOT available

Checking pre-screening integrals            ... done (  0.0 sec) Dimension = 42
   => SHARK Basis and OBASIS are compatible. Storing Pre-screening
Shell pair information
Shell pair cut-off parameter TPreSel        ...   2.5e-12
Total number of shell pairs                 ...       903
Shell pairs after pre-screening             ...       828
Total number of primitive shell pairs       ...      4124
Primitive shell pairs kept                  ...      2898
          la=0 lb=0:    224 shell pairs
          la=1 lb=0:    286 shell pairs
          la=1 lb=1:    100 shell pairs
          la=2 lb=0:    120 shell pairs
          la=2 lb=1:     79 shell pairs
          la=2 lb=2:     19 shell pairs

Checking whether 4 symmetric matrices of dimension 94 fit in memory
:Max Core in MB      =   4096.00
 MB in use           =      4.47
 MB left             =   4091.53
 MB needed           =      0.14
 Data fit in memory  = YES
Calculating RI/J V-Matrix + Cholesky decomp.... done (  0.1 sec)
Calculating Nuclear repulsion               ... done (  0.0 sec) ENN=    136.916793174633 Eh

Diagonalization of the overlap matrix:
Smallest eigenvalue                        ... 6.429e-03
Time for diagonalization                   ...    0.001 sec
Threshold for overlap eigenvalues          ... 1.000e-07
Number of eigenvalues below threshold      ... 0
Time for construction of square roots      ...    0.001 sec
Total time needed                          ...    0.003 sec

-------------------
DFT GRID GENERATION
-------------------

General Integration Accuracy     IntAcc      ... 4.388
Radial Grid Type                 RadialGrid  ... OptM3 with GC (2021)
Angular Grid (max. ang.)         AngularGrid ... 4 (Lebedev-302)
Angular grid pruning method      GridPruning ... 4 (adaptive)
Weight generation scheme         WeightScheme... mBecke (2022)
Basis function cutoff            BFCut       ... 1.0000e-11
Integration weight cutoff        WCut        ... 1.0000e-14
Partially contracted basis set               ... off
Rotationally invariant grid construction     ... off
Angular grids for H and He will be reduced by one unit
Core-polarized basis detected: some atoms will have their core
                               angular grid increased.

Total number of grid points                  ...    33380
Total number of batches                      ...      525
Average number of points per batch           ...       63
Average number of grid points per atom       ...     5563
Grids setup in   0.7 sec
Initializing property integral containers    ... done (  0.0 sec)

SHARK setup successfully completed in   1.0 seconds

Maximum memory used throughout the entire STARTUP-calculation: 13.3 MB


           ************************************************************
           *        Program running with 8 parallel MPI-processes     *
           *              working on a common directory               *
           ************************************************************
Occupation numbers will be reassigned to an Aufbau configuration
             **** ENERGY FILE WAS UPDATED (product_optfreq.en.tmp) ****
Finished Guess after   0.5 sec
Maximum memory used throughout the entire GUESS-calculation: 6.9 MB


           ************************************************************
           *        Program running with 8 parallel MPI-processes     *
           *              working on a common directory               *
           ************************************************************
----------------------------------------D-I-I-S--------------------------------------------
Iteration    Energy (Eh)           Delta-E    RMSDP     MaxDP     DIISErr   Damp  Time(sec)
-------------------------------------------------------------------------------------------
               ***  Starting incremental Fock matrix formation  ***
    1    -2713.9106305998147946     0.00e+00  4.72e-04  2.57e-03  1.04e-02  0.700   0.2
    2    -2713.9107962652469723    -1.66e-04  5.03e-04  2.96e-03  7.17e-03  0.700   0.3
                               ***Turning on AO-DIIS***
    3    -2713.9109243593138672    -1.28e-04  4.29e-04  2.74e-03  4.36e-03  0.700   0.2
    4    -2713.9110129511559535    -8.86e-05  1.12e-03  7.53e-03  3.44e-03  0.000   0.4
                              *** Initializing SOSCF ***
---------------------------------------S-O-S-C-F--------------------------------------
Iteration    Energy (Eh)           Delta-E    RMSDP     MaxDP     MaxGrad    Time(sec)
--------------------------------------------------------------------------------------
    5    -2713.9112205091823853    -2.08e-04  9.73e-05  6.56e-04  7.54e-04     0.5
               *** Restarting incremental Fock matrix formation ***
    6    -2713.9112219122198439    -1.40e-06  9.67e-05  4.48e-04  2.08e-04     0.4
    7    -2713.9112209442305357     9.68e-07  6.72e-05  4.02e-04  4.48e-04     0.5
    8    -2713.9112222524022400    -1.31e-06  2.73e-05  1.29e-04  5.70e-05     0.3
    9    -2713.9112221925643098     5.98e-08  1.52e-05  7.39e-05  1.20e-04     0.2
   10    -2713.9112222963931345    -1.04e-07  8.53e-06  5.52e-05  1.67e-05     0.3
   11    -2713.9112222955900506     8.03e-10  4.49e-06  2.76e-05  1.62e-05     0.3
                 **** Energy Check signals convergence ****

               *****************************************************
               *                     SUCCESS                       *
               *           SCF CONVERGED AFTER  11 CYCLES          *
               *****************************************************

             **** ENERGY FILE WAS UPDATED (product_optfreq.en.tmp) ****

----------------
TOTAL SCF ENERGY
----------------

Total Energy       :      -2713.91122229913162 Eh          -73849.27878 eV

Components:
Nuclear Repulsion  :        136.91679317463337 Eh            3725.69535 eV
Electronic Energy  :      -2850.82801547376494 Eh          -77574.97414 eV
One Electron Energy:      -4060.47324782473015 Eh         -110491.09433 eV
Two Electron Energy:       1209.64523235096522 Eh           32916.12020 eV

Virial components:
Potential Energy   :      -5423.89596126119250 Eh         -147591.71252 eV
Kinetic Energy     :       2709.98473896206087 Eh           73742.43374 eV
Virial Ratio       :          2.00144889499953

DFT components:
N(Alpha)           :       27.000003428994 electrons
N(Beta)            :       27.000003428994 electrons
N(Total)           :       54.000006857987 electrons
E(X)               :     -106.122044999348 Eh       
E(C)               :       -2.321943202466 Eh       
E(XC)              :     -108.443988201814 Eh       

---------------
SCF CONVERGENCE
---------------

  Last Energy change         ...   -8.0308e-10  Tolerance :   1.0000e-08
  Last MAX-Density change    ...    2.7590e-05  Tolerance :   1.0000e-07
  Last RMS-Density change    ...    4.4904e-06  Tolerance :   5.0000e-09
  Last DIIS Error            ...    7.5356e-04  Tolerance :   5.0000e-07
  Last Orbital Gradient      ...    1.6166e-05  Tolerance :   1.0000e-05
  Last Orbital Rotation      ...    2.2423e-05  Tolerance :   1.0000e-05


Total SCF time: 0 days 0 hours 0 min 4 sec 
Finished LeanSCF after   4.3 sec

Maximum memory used throughout the entire LEANSCF-calculation: 6.5 MB


           ************************************************************
           *        Program running with 8 parallel MPI-processes     *
           *              working on a common directory               *
           ************************************************************

------------------------------------------------------------------------------
                         ORCA PROPERTY INTEGRAL CALCULATIONS
------------------------------------------------------------------------------

GBWName                                   ... product_optfreq.gbw
Number of atoms                           ...      6
Number of basis functions                 ...     94
Max core memory                           ...   4096 MB

Dipole integrals                          ... YES
Quadrupole integrals                      ...  NO
Linear momentum integrals                 ...  NO
Angular momentum integrals                ...  NO
Higher moments length integrals           ...  NO
Higher moments velocity integrals         ...  NO
Kinetic energy integrals                  ...  NO
GIAO right hand sides                     ...  NO
GIAO dipole derivative integrals          ...  NO
SOC integrals                             ...  NO
EPR diamagnetic integrals (GIAO)          ...  NO
EPR gauge integrals                       ...  NO
Field gradient integrals                  ...  NO (   0 nuclei)
Spin-dipole/Fermi contact integrals       ...  NO (   0 nuclei)
Contact density integrals                 ...  NO (   0 nuclei)
Nucleus-orbit integrals                   ...  NO (   0 nuclei)
Geometric perturbations                   ...  NO (   6 nuclei)

Choice of electric origin   ... Center of mass
Position of electric origin ... (  0.3855, -0.2241,  2.3381) 
Choice of magnetic origin   ... GIAO
Position of magnetic origin ... (  0.0000,  0.0000,  0.0000) 

Calculating integrals                     ... Electric Dipole (Length)     done (  0.0 sec)

Property integrals calculated in   0.0 sec

Maximum memory used throughout the entire PROPINT-calculation: 7.0 MB


-------------------------------------------------------------------------------
                          DFT DISPERSION CORRECTION                            
                                                                               
                                DFTD4 V3.4.0                                   
-------------------------------------------------------------------------------
-------------------------   ----------------
Dispersion correction           -0.000863921
-------------------------   ----------------

------------------   -----------------
gCP correction             0.003795754
------------------   -----------------

-------------------------   --------------------
FINAL SINGLE POINT ENERGY     -2713.908290466059
-------------------------   --------------------



           ************************************************************
           *        Program running with 8 parallel MPI-processes     *
           *              working on a common directory               *
           ************************************************************
------------------------------------------------------------------------------
                         ORCA SCF GRADIENT CALCULATION
------------------------------------------------------------------------------

Nuc. rep. gradient        (SHARK) ... done (  0.0 sec)
HCore & Overlap gradient  (SHARK) ... done (  0.1 sec)
Split-RIJ-J gradient      (SHARK) ... done (  0.6 sec)
XC gradient                       ... done (  0.5 sec)
Dispersion correction             ... done (  0.2 sec)

-------------------
DISPERSION GRADIENT
-------------------

   1   C   :    0.000001286   -0.000000719   -0.000002115
   2   H   :    0.000000133   -0.000003265   -0.000004179
   3   H   :   -0.000003146    0.000001858   -0.000005287
   4   H   :    0.000002899    0.000001467   -0.000004152
   5   Br  :   -0.000000601    0.000000348    0.000023830
   6   F   :   -0.000000571    0.000000310   -0.000008096

Difference to translation invariance:
           :    0.0000000000   -0.0000000000   -0.0000000000

Difference to rotation invariance:
           :    0.0000000000    0.0000000000   -0.0000000000

Norm of the Dispersion gradient    ...    0.0000271698
RMS gradient                       ...    0.0000064040
MAX gradient                       ...    0.0000238297
gCP correction                   ... done

------------------
CARTESIAN GRADIENT
------------------

   1   C   :   -0.000760923    0.000455645    0.020541514
   2   H   :   -0.001677065   -0.000036565   -0.002720994
   3   H   :   -0.001557212    0.000855329   -0.005852947
   4   H   :   -0.000813261    0.001412352   -0.002621546
   5   Br  :    0.001228066   -0.000697464   -0.005548943
   6   F   :    0.003580395   -0.001989297   -0.003797083

Difference to translation invariance:
           :   -0.0000000001   -0.0000000000    0.0000000000

Difference to rotation invariance:
           :    0.0000323974   -0.0000111588   -0.0000064918

Norm of the Cartesian gradient     ...    0.0233212341
RMS gradient                       ...    0.0054968676
MAX gradient                       ...    0.0205415138

-------
TIMINGS
-------

Total SCF gradient time     ....        1.458 sec

Densities                   ....       0.000 sec  (  0.0%)
One electron gradient       ....       0.062 sec  (  4.2%)
RI-J Coulomb gradient       ....       0.608 sec  ( 41.7%)
XC gradient                 ....       0.508 sec  ( 34.8%)

Maximum memory used throughout the entire SCFGRAD-calculation: 26.7 MB
------------------------------------------------------------------------------
                         ORCA GEOMETRY RELAXATION STEP
------------------------------------------------------------------------------

Reading the OPT-File                    .... done
Getting information on internals        .... done
Copying old internal coords+grads       .... done
Making the new internal coordinates     .... (2022 redundants) done
Validating the new internal coordinates .... (2022 redundants) done
Calculating the B-matrix                .... done
Calculating the G,G- and P matrices     .... done
Transforming gradient to internals      .... done
Projecting the internal gradient        .... done
Number of atoms                         ....   6
Number of internal coordinates          ....  18
Current Energy                          .... -2713.908290466 Eh
Current gradient norm                   ....     0.023321234 Eh/bohr
Maximum allowed component of the step   ....  0.300
Current trust radius                    ....  0.300
Updating the Hessian (BFGS)             .... done
Forming the augmented Hessian           .... done
Diagonalizing the augmented Hessian     .... done
Last element of RFO vector              ....  0.948192221
Lowest eigenvalues of augmented Hessian:
 -0.003527723  0.019500912  0.037524895  0.060040846  0.082194146
Length of the computed step             ....  0.335055694
Warning: the length of the step is outside the trust region - taking restricted step instead
The input lambda is                     ....     0.017247
   iter:   5  x=    0.010502  g=  462.299174 f(x)=     1.207181
   iter:  10  x=   -0.006717  g=    6.189888 f(x)=     0.003758
The output lambda is                    ....    -0.006737 (14 iterations)
The final length of the internal step   ....  0.300000000
Converting the step to Cartesian space:
 Initial RMS(Int)=    0.0707106781
Transforming coordinates:
 Iter   0:  RMS(Cart)=    0.0559811376 RMS(Int)=    0.0704762744
done
Storing new coordinates                 .... done
The predicted energy change is          ....    -0.001905812
Previously predicted energy change      ....    -0.001409626
Actually observed energy change         ....    -0.002039405
Ratio of predicted to observed change   ....     1.446770217
New trust radius                        ....     0.300000000

                                .--------------------.
          ----------------------|Geometry convergence|-------------------------
          Item                value                   Tolerance       Converged
          ---------------------------------------------------------------------
          Energy change      -0.0020394048            0.0000050000      NO
          RMS gradient        0.0030549773            0.0001000000      NO
          MAX gradient        0.0056726358            0.0003000000      NO
          RMS step            0.0707106781            0.0020000000      NO
          MAX step            0.1982584274            0.0040000000      NO
          -------------------------------------------------------------------------
[...]
Rotational constants in MHz :        157264.007859          1187.424256          1187.422919 

Dipole components along the rotational axes: 
x,y,z [a.u.] :    -1.042499    -0.000403    -0.000348 
x,y,z [Debye]:    -2.649821    -0.001025    -0.000884 

 

Dipole moment calculation done in   0.1 sec 

-----------
SCF HESSIAN
-----------

Occupied/Occupied contributions to the Hessian:
   => Occupied/Occupied contributions              ... done (  0.0 sec)
Perturbed density contributions to the Hessian:
   => Perturbed density contributions              ... done (  0.0 sec)
Explicit contributions to the Hessian:
   => Nuclear repulsion Hessian                    ... done (  0.0 sec)
   => HCore and overlap Hessian                    ... done (  0.3 sec)
   => RI-J Hessian                                 ... done (  1.4 sec)
   => XC-Hessian                                   ... done (  3.4 sec)
   => Van der Waals-Hessian                        ... done (  0.7 sec)
   => GCP-Hessian                                  ... done (  0.0 sec)
   => Explicit contributions done
Dipole derivatives                                 ... done (  0.1 sec)
Mass weighting the Hessian           ... done
Calculating normal modes             ... done
Scaling frequencies                  ... done

-----------------------
VIBRATIONAL FREQUENCIES
-----------------------

Scaling factor for frequencies =  1.000000000  (already applied!)

     0:       0.00 cm**-1
     1:       0.00 cm**-1
     2:       0.00 cm**-1
     3:       0.00 cm**-1
     4:       0.00 cm**-1
     5:       0.00 cm**-1
     6:      92.96 cm**-1
     7:      95.43 cm**-1
     8:      96.90 cm**-1
     9:     931.04 cm**-1
    10:    1138.29 cm**-1
    11:    1138.70 cm**-1
    12:    1418.27 cm**-1
    13:    1469.18 cm**-1
    14:    1469.26 cm**-1
    15:    3047.91 cm**-1
    16:    3160.45 cm**-1
    17:    3161.32 cm**-1


------------
NORMAL MODES
------------

These modes are the Cartesian displacements weighted by the diagonal matrix
M(i,i)=1/sqrt(m[i]) where m[i] is the mass of the displaced atom
Thus, these vectors are normalized but *not* orthogonal

                  0          1          2          3          4          5    
      0       0.000000   0.000000   0.000000   0.000000   0.000000   0.000000
      1       0.000000   0.000000   0.000000   0.000000   0.000000   0.000000
      2       0.000000   0.000000   0.000000   0.000000   0.000000   0.000000
      3       0.000000   0.000000   0.000000   0.000000   0.000000   0.000000
      4       0.000000   0.000000   0.000000   0.000000   0.000000   0.000000
      5       0.000000   0.000000   0.000000   0.000000   0.000000   0.000000
      6       0.000000   0.000000   0.000000   0.000000   0.000000   0.000000
      7       0.000000   0.000000   0.000000   0.000000   0.000000   0.000000
      8       0.000000   0.000000   0.000000   0.000000   0.000000   0.000000
      9       0.000000   0.000000   0.000000   0.000000   0.000000   0.000000
     10       0.000000   0.000000   0.000000   0.000000   0.000000   0.000000
     11       0.000000   0.000000   0.000000   0.000000   0.000000   0.000000
     12       0.000000   0.000000   0.000000   0.000000   0.000000   0.000000
     13       0.000000   0.000000   0.000000   0.000000   0.000000   0.000000
     14       0.000000   0.000000   0.000000   0.000000   0.000000   0.000000
     15       0.000000   0.000000   0.000000   0.000000   0.000000   0.000000
     16       0.000000   0.000000   0.000000   0.000000   0.000000   0.000000
     17       0.000000   0.000000   0.000000   0.000000   0.000000   0.000000
                  6          7          8          9         10         11    
      0       0.006299   0.184853   0.273884   0.006072   0.068155   0.110076
      1       0.082554   0.271622  -0.182879  -0.004240   0.110058  -0.068135
      2      -0.429388   0.030596  -0.015795  -0.657456  -0.000207   0.001749
      3       0.007873   0.253778   0.370253   0.002010  -0.130938  -0.200255
      4       0.118077   0.383071  -0.257765  -0.083164  -0.099680   0.063080
      5      -0.525749  -0.292543   0.199367  -0.328636   0.651624  -0.399320
      6       0.005202   0.254229   0.392827  -0.067174  -0.123320  -0.109695
      7       0.114973   0.370929  -0.259732   0.039603  -0.203693   0.071308
      8      -0.376033   0.004154  -0.401363  -0.327809   0.017748   0.760106
      9       0.008342   0.263729   0.379406   0.073308  -0.030979  -0.151498
     10       0.114715   0.379013  -0.245299   0.038599  -0.156510   0.150897
     11      -0.372851   0.378464   0.160734  -0.327808  -0.668072  -0.369251
     12      -0.001789  -0.012711  -0.019034   0.000022  -0.000076  -0.000119
     13      -0.004882  -0.018878   0.012707  -0.000016  -0.000124   0.000075
     14       0.180477  -0.012855   0.007883  -0.001506   0.000006  -0.000015
     15       0.002404  -0.104358  -0.153723  -0.004364  -0.027637  -0.044609
     16      -0.050114  -0.152445   0.102652   0.003013  -0.044661   0.027626
     17      -0.419935   0.029944  -0.020977   0.474218   0.000034  -0.000595
                 12         13         14         15         16         17    
      0      -0.001088  -0.043869   0.048868   0.000323   0.010936   0.095690
      1       0.000918   0.048875   0.043963   0.000093  -0.095701   0.010950
      2       0.092644  -0.001084   0.000099  -0.040526   0.000544   0.000812
      3       0.008500   0.506293  -0.549003   0.002809   0.006742   0.022625
      4       0.193344   0.094837   0.095156   0.549040   0.771462  -0.094287
      5      -0.541187  -0.211428  -0.203760   0.167792   0.241824  -0.029281
      6       0.173242  -0.230447  -0.324668   0.474359  -0.407381  -0.523754
      7      -0.104370  -0.126404  -0.635375  -0.278801   0.217897   0.324044
      8      -0.537865   0.282252  -0.088015   0.178985  -0.153530  -0.204892
      9      -0.164107   0.335470   0.192995  -0.481343   0.272840  -0.617011
     10      -0.103510  -0.649118  -0.071796  -0.270934   0.129063  -0.357733
     11      -0.540826  -0.054524   0.290521   0.169911  -0.094523   0.224686
     12      -0.000003  -0.000103   0.000116   0.000001  -0.000004  -0.000035
     13       0.000006   0.000116   0.000105  -0.000001   0.000034  -0.000004
     14       0.000064  -0.000004   0.000000  -0.000062  -0.000000  -0.000000
     15      -0.000234  -0.004269   0.004734   0.000015  -0.000116  -0.001023
     16       0.000166   0.004727   0.004236  -0.000016   0.001019  -0.000117
     17       0.027108  -0.000162   0.000003  -0.001531  -0.000012  -0.000009


-----------
IR SPECTRUM
-----------

 Mode   freq       eps      Int      T**2         TX        TY        TZ
       cm**-1   L/(mol*cm) km/mol    a.u.
----------------------------------------------------------------------------
  6:     92.96   0.001191    6.02  0.004000  ( 0.000832  0.008949 -0.062602)
  7:     95.43   0.001208    6.10  0.003950  ( 0.035173  0.051517  0.007650)
  8:     96.90   0.001212    6.13  0.003904  ( 0.051908 -0.034538 -0.004123)
  9:    931.04   0.048550  245.35  0.016273  ( 0.001168 -0.000719 -0.127558)
 10:   1138.29   0.000497    2.51  0.000136  ( 0.006117  0.009937 -0.000023)
 11:   1138.70   0.000492    2.49  0.000135  ( 0.009863 -0.006127  0.000099)
 12:   1418.27   0.000159    0.80  0.000035  ( 0.000080 -0.000147 -0.005916)
 13:   1469.18   0.001934    9.78  0.000411  ( 0.013521 -0.015101  0.000158)
 14:   1469.26   0.001930    9.75  0.000410  (-0.015033 -0.013563 -0.000104)
 15:   3047.91   0.003986   20.14  0.000408  ( 0.000184  0.000054 -0.020200)
 16:   3160.45   0.002464   12.45  0.000243  ( 0.001764 -0.015499 -0.000036)
 17:   3161.32   0.002426   12.26  0.000239  ( 0.015373  0.001771  0.000139)

* The epsilon (eps) is given for a Dirac delta lineshape.
** The dipole moment derivative (T) already includes vibrational overlap.

The first frequency considered to be a vibration is 6
The total number of vibrations considered is 12


--------------------------
THERMOCHEMISTRY AT 298.15K
--------------------------

Temperature         ...   298.15 K
Pressure            ...     1.00 atm
Total Mass          ...   113.93 AMU
Quasi RRHO          ...     True
Cut-Off Frequency   ...     1.00 cm^-1

Throughout the following assumptions are being made:
  (1) The electronic state is orbitally nondegenerate
  (2) There are no thermally accessible electronically excited states
  (3) Hindered rotations indicated by low frequency modes are not
      treated as such but are treated as vibrations and this may
      cause some error
  (4) All equations used are the standard statistical mechanics
      equations for an ideal gas
  (5) All vibrations are strictly harmonic

freq.      92.96  E(vib)   ...       0.47 
freq.      95.43  E(vib)   ...       0.47 
freq.      96.90  E(vib)   ...       0.46 
freq.     931.04  E(vib)   ...       0.03 
freq.    1138.29  E(vib)   ...       0.01 
freq.    1138.70  E(vib)   ...       0.01 
freq.    1418.27  E(vib)   ...       0.00 
freq.    1469.18  E(vib)   ...       0.00 
freq.    1469.26  E(vib)   ...       0.00 
freq.    3047.91  E(vib)   ...       0.00 
freq.    3160.45  E(vib)   ...       0.00 
freq.    3161.32  E(vib)   ...       0.00 

------------
INNER ENERGY
------------

The inner energy is: U= E(el) + E(ZPE) + E(vib) + E(rot) + E(trans)
    E(el)   - is the total energy from the electronic structure calculation
              = E(kin-el) + E(nuc-el) + E(el-el) + E(nuc-nuc)
    E(ZPE)  - the the zero temperature vibrational energy from the frequency calculation
    E(vib)  - the the finite temperature correction to E(ZPE) due to population
              of excited vibrational states
    E(rot)  - is the rotational thermal energy
    E(trans)- is the translational thermal energy

Summary of contributions to the inner energy U:
Electronic energy                ...  -2713.95620479 Eh
Zero point energy                ...      0.03922937 Eh      24.62 kcal/mol
Thermal vibrational correction   ...      0.00234117 Eh       1.47 kcal/mol
Thermal rotational correction    ...      0.00141627 Eh       0.89 kcal/mol
Thermal translational correction ...      0.00141627 Eh       0.89 kcal/mol
-----------------------------------------------------------------------
Total thermal energy                  -2713.91180171 Eh


Summary of corrections to the electronic energy:
(perhaps to be used in another calculation)
Total thermal correction                  0.00517371 Eh       3.25 kcal/mol
Non-thermal (ZPE) correction              0.03922937 Eh      24.62 kcal/mol
-----------------------------------------------------------------------
Total correction                          0.04440309 Eh      27.86 kcal/mol


--------
ENTHALPY
--------

The enthalpy is H = U + kB*T
                kB is Boltzmann's constant
Total thermal energy              ...  -2713.91180171 Eh 
Thermal Enthalpy correction       ...      0.00094421 Eh       0.59 kcal/mol
-----------------------------------------------------------------------
Total Enthalpy                    ...  -2713.91085750 Eh


Note: Only C1 symmetry has been detected, increase convergence thresholds 
      if your molecule has a higher symmetry. Symmetry factor of 1.0 is   
      used for the rotational entropy correction. 
 

Note: Rotational entropy computed according to Herzberg 
Infrared and Raman Spectra, Chapter V,1, Van Nostrand Reinhold, 1945 
Point Group:  C1, Symmetry Number:   1  
Rotational constants in cm-1:     5.245767     0.039608     0.039608 

Vibrational entropy computed according to the QRRHO of S. Grimme
Chem.Eur.J. 2012 18 9955 using a reference frequency of 100.0 cm-1


-------
ENTROPY
-------

The entropy contributions are T*S = T*(S(el)+S(vib)+S(rot)+S(trans))
     S(el)   - electronic entropy
     S(vib)  - vibrational entropy
     S(rot)  - rotational entropy
     S(trans)- translational entropy
The entropies will be listed as multiplied by the temperature to get
units of energy

Electronic entropy                ...      0.00000000 Eh      0.00 kcal/mol
Vibrational entropy               ...      0.00468541 Eh      2.94 kcal/mol
Rotational entropy                ...      0.01177685 Eh      7.39 kcal/mol
Translational entropy             ...      0.01905598 Eh     11.96 kcal/mol
-----------------------------------------------------------------------
Final entropy term                ...      0.03551825 Eh     22.29 kcal/mol

In case the symmetry of your molecule has not been determined correctly
or in case you have a reason to use a different symmetry number we print 
out the resulting rotational entropy values for sn=1,12:

 non-linear molecules -----------------------------------
|  sn= 1 | S(rot)=       0.01177685 Eh      7.39 kcal/mol|
|  sn= 2 | S(rot)=       0.01112240 Eh      6.98 kcal/mol|
|  sn= 3 | S(rot)=       0.01073956 Eh      6.74 kcal/mol|
|  sn= 4 | S(rot)=       0.01046794 Eh      6.57 kcal/mol|
|  sn= 5 | S(rot)=       0.01025725 Eh      6.44 kcal/mol|
|  sn= 6 | S(rot)=       0.01008511 Eh      6.33 kcal/mol|
|  sn= 7 | S(rot)=       0.00993956 Eh      6.24 kcal/mol|
|  sn= 8 | S(rot)=       0.00981348 Eh      6.16 kcal/mol|
|  sn= 9 | S(rot)=       0.00970227 Eh      6.09 kcal/mol|
|  sn=10 | S(rot)=       0.00960279 Eh      6.03 kcal/mol|
|  sn=11 | S(rot)=       0.00951280 Eh      5.97 kcal/mol|
|  sn=12 | S(rot)=       0.00943065 Eh      5.92 kcal/mol|
 linear molecules ---------------------------------------
|  Dinfh | S(rot)=       0.00837430 Eh      5.25 kcal/mol|
|  Cinfv | S(rot)=       0.00902876 Eh      5.67 kcal/mol|
 --------------------------------------------------------


-------------------
GIBBS FREE ENERGY
-------------------

The Gibbs free energy is G = H - T*S

Total enthalpy                    ...  -2713.91085750 Eh 
Total entropy correction          ...     -0.03551825 Eh    -22.29 kcal/mol
-----------------------------------------------------------------------
Final Gibbs free energy         ...  -2713.94637574 Eh

For completeness - the Gibbs free energy minus the electronic energy
G-E(el)                           ...      0.00982905 Eh      6.17 kcal/mol


Maximum memory used throughout the entire PROP-calculation: 30.9 MB

--------------------------------
SUGGESTED CITATIONS FOR THIS RUN
--------------------------------

Below you find a list of papers that are relevant to this ORCA run
We neither can nor want to force you to cite these papers, but we appreciate if you do
You receive ORCA, which is the product of decades of hard work by many enthusiastic individuals, for free
The only thing we kindly ask in return is that you cite our papers,
We deeply appreciate it, if you show your appreciation for ORCA by not just citing the generic ORCA reference.

Please note that relegating all ORCA citations to the supporting information does *not* help us.
SI sections are not indexed - citations you put there will not count into any citation statistics
But we need these citations in order to attract the funding resources that allow us to do what we are doing

Therefore, if you are a happy ORCA user, please consider citing a few of the papers listed below in the main body of your paper

In addition to the list printed below, the program has created the file product_optfreq.bibtex that contains the list in bibtex format
You can import this file easily into all common literature databanks and citation aid programs


List of essential papers. We consider these as the minimum necessary citations

  1. Grimme, S.; Hansen, A.; Ehlert, S.; Mewes, J.
     r2SCAN-3c: A 'Swiss army knife' composite electronic-structure method
     J. Chem. Phys. 2021 154 , 064103
     doi.org/10.1063/5.0040021
  2. Neese, F.
     Software update: the ORCA program system, version 6.0
     WIRES Comput. Molec. Sci. 2025 15(1), e70019
     doi.org/10.1002/wcms.7019

List of papers to cite with high priority. The work reported in these papers was absolutely
necessary for this run to complete.
Our perspective: the developers of density functionals and basis sets usually get cited in chemistry papers
Good! But without the algorithms to do something with them, the functionals or basis sets would not do anything.
Hence, in our opinion, the algorithm design and method developments papers are equally worthy of getting cited

  1. Neese, F.
     An improvement of the resolution of the identity approximation for the formation of the Coulomb matrix
     J. Comp. Chem. 2003 24(14), 1740-1747
     doi.org/10.1002/jcc.10318
  2. Bykov, D.; Petrenko, T.; Izsak, R.; Kossmann, S.; Becker, U.; Valeev, E.; Neese, F.
     Efficient implementation of the analytic second derivatives of Hartree-Fock and hybrid DFT energies: a detailed analysis of different approximations
     Molec. Phys. 2015 113 , 1961-1977
     doi.org/10.1080/00268976.2015.1025114
  3. Caldeweyher, E.; Bannwarth, C.; Grimme, S.
     Extension of the D3 dispersion coefficient model
     J. Chem. Phys. 2017 147 , 034112
     doi.org/10.1063/1.4993215
  4. Lehtola, S.; Steigemann, C.; Oliveira, M.; Marques, M.
     Recent developments in Libxc - A comprehensive library of functionals for density functional theory
     Software X 2018 7 , 
     doi.org/10.1016/j.softx.2017.11.002
  5. Caldeweyher, E.; Ehlert, S.; Hansen, A.; Neugebauer, H.; Spicher, S.; Bannwarth, C.; Grimme, S.
     A generally applicable atomic-charge dependent London dispersion correction
     J. Chem. Phys. 2019 150 , 154122
     doi.org/10.1063/1.5090222
  6. Caldeweyher, E.; Mewes, J.; Ehlert, S.; Grimme, S.
     Extension and evaluation of the D4 London-dispersion model for periodic systems
     Phys. Chem. Chem. Phys. 2020 22(16), 8499-8512
     doi.org/10.1039/D0CP00502A
  7. Neese, F.
     The SHARK Integral Generation and Digestion System
     J. Comp. Chem. 2022 44(3), 381
     doi.org/10.1002/jcc.26942
  8. Wittmann, L.; Gordiy, I.; Friede, M.; Helmich-Paris, B.; Grimme, S.; Hansen, A.; Bursch, M.
     Extension of the D3 and D4 London Dispersion Corrections to the full Actinides Series
     Phys. Chem. Chem. Phys. 2024 26(32), 21379-21394
     doi.org/10.1039/D4CP01514B

List of suggested additional citations. These are papers that are important in the 'surrounding' of 
of this run, or papers that preceded the highly important papers. If you like your results we are grateful for a citation.

  1. Neese, F.
     The ORCA program system
     WIRES Comput. Molec. Sci. 2012 2(1), 73-78
     doi.org/10.1002/wcms.81
  2. Neese, F.
     Software update: the ORCA program system, version 4.0
     WIRES Comput. Molec. Sci. 2018 8(1), 1-6
     doi.org/10.1002/wcms.1327
  3. Neese, F.; Wennmohs, F.; Becker, U.; Riplinger, C.
     The ORCA quantum chemistry program package
     J. Chem. Phys. 2020 152(22), 224108
     doi.org/10.1063/5.0004608
  4. Neese, F.
     Software update: The ORCA program system—Version 5.0
     WIRES Comput. Molec. Sci. 2022 12(1), e1606
     doi.org/10.1002/wcms.1606

List of optional additional citations

  1. Neese, F.
     Approximate second-order SCF convergence for spin unrestricted wavefunctions
     Chem. Phys. Lett. 2000 325(1-3), 93-98
     doi.org/10.1016/s0009-2614(00)00662-x

Timings for individual modules:

Sum of individual times          ...      258.399 sec (=   4.307 min)
Startup calculation              ...       41.471 sec (=   0.691 min)  16.0 %
SCF iterations                   ...      118.956 sec (=   1.983 min)  46.0 %
Property integrals               ...       29.608 sec (=   0.493 min)  11.5 %
SCF Response                     ...        5.532 sec (=   0.092 min)   2.1 %
Property calculations            ...        6.753 sec (=   0.113 min)   2.6 %
SCF Gradient evaluation          ...       56.007 sec (=   0.933 min)  21.7 %
Geometry relaxation              ...        0.072 sec (=   0.001 min)   0.0 %
                             ****ORCA TERMINATED NORMALLY****
TOTAL RUN TIME: 0 days 0 hours 4 minutes 39 seconds 772 msec
