
                                 *****************
                                 * O   R   C   A *
                                 *****************

                                            #,                                       
                                            ###                                      
                                            ####                                     
                                            #####                                    
                                            ######                                   
                                           ########,                                 
                                     ,,################,,,,,                         
                               ,,#################################,,                 
                          ,,##########################################,,             
                       ,#########################################, ''#####,          
                    ,#############################################,,   '####,        
                  ,##################################################,,,,####,       
                ,###########''''           ''''###############################       
              ,#####''   ,,,,##########,,,,          '''####'''          '####       
            ,##' ,,,,###########################,,,                        '##       
           ' ,,###''''                  '''############,,,                           
         ,,##''                                '''############,,,,        ,,,,,,###''
      ,#''                                            '''#######################'''  
     '                                                          ''''####''''         
             ,#######,   #######,   ,#######,      ##                                
            ,#'     '#,  ##    ##  ,#'     '#,    #''#        ,####,    ,#,          
            ##       ##  ##   ,#'  ##            #'  '#       #'       ,# #          
            ##       ##  #######   ##           ,######,      #####,      #          
            '#,     ,#'  ##    ##  '#,     ,#' ,#      #,     #,   #      #          
             '#######'   ##     ##  '#######'  #'      '#     '####' #    #          



                #########################################################
                #                        -***-                          #
                #          Department of theory and spectroscopy        #
                #                                                       #
                #                      Frank Neese                      #
                #                                                       #
                #     Directorship, Architecture, Infrastructure        #
                #                    SHARK, DRIVERS                     #
                #        Core code/Algorithms in most modules           #
                #                                                       #
                #        Max Planck Institute fuer Kohlenforschung      #
                #                Kaiser Wilhelm Platz 1                 #
                #                 D-45470 Muelheim/Ruhr                 #
                #                      Germany                          #
                #                                                       #
                #                  All rights reserved                  #
                #                        -***-                          #
                #########################################################


                         Program Version 6.1.0  -  RELEASE   -
                                (GIT: $679e74b$)
                          ($2025-06-10 18:02:51 +0200$)


 With contributions from (in alphabetic order):
[Max-Planck-Institut fuer Kohlenforschung]                               
  Daniel Aravena         : Magnetic Suceptibility                        
  Michael Atanasov       : Ab Initio Ligand Field Theory (pilot matlab implementation)
  Alexander A. Auer      : GIAO ZORA, VPT2 properties, NMR spectrum      
  Ute Becker             : All parallelization in ORCA, NUMFREQ, NUMCALC 
  Giovanni Bistoni       : ED, misc. LED, open-shell LED, HFLD           
  Dmytro Bykov           : pre 5.0 version of the SCF Hessian            
  Marcos Casanova-Páez   : Triplet and SCS-CIS(D). UHF-(DLPNO)-IP/EA/STEOM-CCSD. UHF-CVS-IP/STEOM-CCSD   
  Vijay G. Chilkuri      : MRCI spin determinant printing, contributions to CSF-ICE 
  Pauline Colinet        : FMM embedding                                 
  Dipayan Datta          : RHF DLPNO-CCSD density                        
  Achintya Kumar Dutta   : EOM-CC, STEOM-CC                              
  Nicolas Foglia         : Exact transition moments, OPA infrastructure, MCD improvements    
  Dmitry Ganyushin       : Spin-Orbit,Spin-Spin,Magnetic field MRCI      
  Miquel Garcia-Rates    : C-PCM and meta-GGA Hessian, CCSD/C-PCM, Gaussian charge scheme 
  Tiago L. C. Gouveia    : GS-ROHF, GS-ROCIS                             
  Yang Guo               : DLPNO-NEVPT2, F12-NEVPT2, CIM, IAO-localization        
  Andreas Hansen         : Spin unrestricted coupled pair/coupled cluster methods 
  Ingolf Harden          : AUTO-CI MPn and infrastructure                
  Benjamin Helmich-Paris : MC-RPA, TRAH-(SCF,CASSCF), AVAS, COSX integrals, SCF dyn. polar., MC-PDFT, srDFT 
  Lee Huntington         : MR-EOM, pCC                                   
  Robert Izsak           : Overlap fitted RIJCOSX, COSX-SCS-MP3, EOM     
  Riya Kayal             : Wick's Theorem for AUTO-CI, AUTO-CI UHF-CCSDT 
  Emily Kempfer          : AUTO-CI RHF CISDT and CCSDT, approximate NEVPT4
  Christian Kollmar      : KDIIS, OOCD, Brueckner-CCSD(T), CCSD density, CASPT2, CASPT2-K, improved NEVPT2 
  Axel Koslowski         : Symmetry handling                             
  Simone Kossmann        : meta-GGA functionals, TD-DFT gradient, OOMP2, (MP2 Hessian; deprecated post 5.0) 
  Lucas Lang             : DCDCAS, Hyperfine gauge corrections, ICE-SOC+SSC
  Marvin Lechner         : AUTO-CI (C++ implementation), FIC-MRCC        
  Spencer Leger          : CASSCF response                               
  Dagmar Lenk            : GEPOL surface, SMD, ORCA-2-JSON               
  Dimitrios Liakos       : Extrapolation schemes; Compound Job, Property file
  Dimitrios Manganas     : Further ROCIS development; embedding schemes. LFT, Crystal Embedding 
  Dimitrios Pantazis     : SARC Basis sets                               
  Anastasios Papadopoulos: AUTO-CI, single reference methods and gradients 
  Taras Petrenko         : pre 6.0 DFT Hessian and TD-DFT gradient,  ECA, NRVS 
  Petra Pikulova         : Analytic Raman intensities                    
  Peter Pinski           : DLPNO-MP2, DLPNO-MP2 Gradient                 
  Shashank Vittal Rao    : ES-AILFT, MagRelax                            
  Christoph Reimann      : Effective Core Potentials                     
  Marius Retegan         : Local ZFS, SOC                                
  Christoph Riplinger    : Optimizer, TS searches, QM/MM, DLPNO-CCSD(T), (RO)-DLPNO pert. Triples 
  Michael Roemelt        : Original ROCIS implementation, recursive CI coupling coefficients
  Masaaki Saitow         : Open-shell DLPNO-CCSD energy and density      
  Barbara Sandhoefer     : DKH picture change effects                    
  Yorick L. A. Schmerwitz: GMF and freeze-and-release deltaSCF, NEB S-IDPP initial path                    
  Kantharuban Sivalingam : CASSCF convergence/infrastructure, NEVPT2, NEVPT3, NEVPT4(SD), FIC-MRCI and CEPA variants
  Bernardo de Souza      : ESD, SOC TD-DFT                               
  Georgi L. Stoychev     : AutoAux, RI-MP2 NMR, DLPNO-MP2 response, X2C  
  Van Anh Tran           : RI-MP2 g-tensors                              
  Willem Van den Heuvel  : Paramagnetic NMR                              
  Zikuan Wang            : NOTCH, Electric field optimization            
  Frank Wennmohs         : Technical directorship and infrastructure     
  Hang Xu                : AUTO-CI-Response properties                   
                                                                         
[FACCTs GmbH]                                                            
  Markus Bursch, Nicolas Foglia, Miquel Garcia-Rates, Ingolf Harden, Hagen Neugebauer, Anastasios Papadopoulos, 
  Christoph Riplinger, Bernardo de Souza, Georgi L. Stoychev                                                    
                                                                 
  APM, various basis sets, CI-OPT, improved COSX, DLPNO-Multilevel,           
  DOCKER, DRACO, updates on ESD, Fragmentator, GOAT, IRC, LR-CPCM, L-BFGS, MBIS, meta-GGA TD-DFT gradient, ML-optimized integration grids, 
  MM, NACMEs, nearIR, NEB, NEB-TS, NL-DFT gradient (VV10), 2- and 3-layer-ONIOM, interface openCOSMO-RS, QMMM,   
  Crystal-QMMM, RESP, rigid body optimization, SF, symmetry and pop. for TD-DFT, various functionals, SOLVATOR                                   
                                                                         
[Other institutions]                                                     
  V. Asgeirsson          : NEB                                           
  Christoph Bannwarth    : sTDA-DFT, sTD-DFT, PBEh-3c, B97-3c, D3        
  Giovanni Bistoni       : ETS/NOCV, ADLD/ADEX, COVALED                  
  Martin Brehm           : Molecular dynamics                            
  Ronald Cardenas        : ETS/NOCV                                      
  Martina Colucci        : COVALED                                       
  Sebastian Ehlert       : rSCAN, r2SCAN, r2SCAN-3c, D4, dhf basis sets  
  Marvin Friede          : D4 for Fr, Ra, Ac-Lr                          
  Lars Goerigk           : TD-DFT with DH, B97 family of functionals     
  Stefan Grimme          : VdW corrections, initial TS optimization, DFT functionals, gCP, sTDA/sTD-DF 
  Waldemar Hujo          : DFT-NL                                        
  H. Jonsson             : NEB                                           
  Holger Kruse           : gCP                                           
  Marcel Mueller         : wB97X-3c, vDZP basis set                      
  Hagen Neugebauer       : wr2SCAN, Native XTB                           
  Gianluca Regni         : ADLD/ADEX                                     
  Tobias Risthaus        : pre 6.0 range-separated hybrid DFT and stability analysis
  Lukas Wittmann         : regularized MP2, r2SCAN double-hybrids, wr2SCAN        
                                                                         
We gratefully acknowledge several colleagues who have allowed us to      
interface, adapt or use parts of their codes:                            
  Ed Valeev, F. Pavosevic, A. Kumar             : LibInt (2-el integral package), F12 methods 
  Garnet Chan, S. Sharma, J. Yang, R. Olivares  : DMRG                   
  Ulf Ekstrom                                   : XCFun DFT Library      
  Mihaly Kallay                                 : mrcc  (arbitrary order and MRCC methods)
  Frank Weinhold                                : gennbo (NPA and NBO analysis)           
  Simon Mueller                                 : openCOSMO-RS                            
  Christopher J. Cramer and Donald G. Truhlar   : smd solvation model                     
  S Lehtola, MJT Oliveira, MAL Marques          : LibXC Library                           
  Liviu Ungur et al                             : ANISO software                          


 Your calculation uses the libint2 library for the computation of 2-el integrals
 For citations please refer to: http://libint.valeyev.net

 Your ORCA version has been built with support for libXC version: 7.0.0
 For citations please refer to: https://libxc.gitlab.io

 This ORCA versions uses:
   CBLAS   interface :  Fast vector & matrix operations
   LAPACKE interface :  Fast linear algebra routines
   SCALAPACK package :  Parallel linear algebra routines
   Shared memory     :  Shared parallel matrices
   BLAS/LAPACK       :  OpenBLAS 0.3.29  USE64BITINT DYNAMIC_ARCH NO_AFFINITY SkylakeX SINGLE_THREADED
        Core in use  :  SkylakeX
   Copyright (c) 2011-2014, The OpenBLAS Project


  ***********************************
  * Starting time: Thu Mar 12 13:24:44 2026
  * Host name:     midway3-login4.rcc.local
  * Process ID:    3064783
  * Working dir.:  /home/rzhu16/orca_TS_search/sn2_br_f/DFT_test
  ***********************************

Your calculation utilizes the geometrical counterpoise correction gCP
Please cite in your paper:
H.Kruse, S. Grimme J.Chem.Phys., 136, (2012), 154101 
   

Your calculation utilizes the atom-pairwise dispersion correction
based on EEQ partial charges (D4)


================================================================================

----- Orbital basis set information -----
Your calculation utilizes the basis: def2-mTZVPP
   Stefan Grimme, Andreas Hansen, Sebastian Ehlert, and Jan-Michael Mewes 
   J. Chem. Phys. 154, 064103 (2021). DOI: 10.1063/5.0040021

----- AuxJ basis set information -----
Your calculation utilizes the basis: def2-mTZVPP/J
   Stefan Grimme, Andreas Hansen, Sebastian Ehlert, and Jan-Michael Mewes 
   J. Chem. Phys. 154, 000000 (2021). DOI: 10.1063/5.0040021

================================================================================
                                        WARNINGS
                       Please study these warnings very carefully!
================================================================================



WARNING: SCAN, rSCAN, or r2SCAN functional requested.
  ===> : libXC variant has now been activated.



WARNING: Geometry Optimization
  ===> : Switching off AutoStart
         For restart on a previous wavefunction, please use MOREAD

================================================================================
                                       INPUT FILE
================================================================================
NAME = reactant_optfreq.inp
|  1> ! r2SCAN-3c Opt Freq PAL8 TightSCF
|  2> 
|  3> %pal
|  4>    nprocs 8
|  5> end
|  6> 
|  7> %scf
|  8>    MaxIter 150
|  9> end
| 10> 
| 11> * xyz -1 1
| 12>   C      -0.352293      0.207123      0.308143
| 13>   H      -0.452816      1.288436      0.267091
| 14>   H       0.279689     -0.150217     -0.540630
| 15>   H      -1.332718     -0.258721      0.259936
| 16>   Br      0.344277     -0.197280      2.089021
| 17>   F       0.609651     -0.350930     -2.157165
| 18> *
| 19> 
| 20>                          ****END OF INPUT****
================================================================================

                       *****************************
                       * Geometry Optimization Run *
                       *****************************

Geometry optimization settings:
Update method            Update   .... BFGS
Choice of coordinates    CoordSys .... (2022) Redundant Internals
Initial Hessian          InHess   .... Almloef's Model
Max. no of cycles        MaxIter  .... 50

Convergence Tolerances:
Energy Change            TolE     ....  5.0000e-06 Eh
Max. Gradient            TolMAXG  ....  3.0000e-04 Eh/bohr
RMS Gradient             TolRMSG  ....  1.0000e-04 Eh/bohr
Max. Displacement        TolMAXD  ....  4.0000e-03 bohr
RMS Displacement         TolRMSD  ....  2.0000e-03 bohr
Strict Convergence                .... False

------------------------------------------------------------------------------
                        ORCA OPTIMIZATION COORDINATE SETUP
------------------------------------------------------------------------------

The optimization will be done in redundant internal coordinates (2022)
Making redundant internal coordinates   ...  (2022 redundants) done
Evaluating the initial hessian          ...  (Almloef) done
Evaluating the coordinates              ...  done
Calculating the B-matrix                .... done
Calculating the G-matrix                .... done
The number of degrees of freedom        ....   15

    -----------------------------------------------------------------
                    Redundant Internal Coordinates


    -----------------------------------------------------------------
         Definition                    Initial Value    Approx d2E/dq
    -----------------------------------------------------------------
      1. B(H   1,C   0)                  1.0868         0.364424   
      2. B(H   2,C   0)                  1.1169         0.326193   
      3. B(H   3,C   0)                  1.0865         0.364707   
      4. B(Br  4,C   0)                  1.9546         0.263951   
      5. B(F   5,H   2)                  1.6620         0.036645   
      6. A(H   1,C   0,H   3)          109.9655         0.291969   
      7. A(H   1,C   0,H   2)          109.9966         0.286906   
      8. A(H   1,C   0,Br  4)          105.8578         0.325647   
      9. A(H   2,C   0,Br  4)          115.1224         0.319785   
     10. A(H   3,C   0,Br  4)          105.8604         0.325689   
     11. A(H   2,C   0,H   3)          109.8575         0.286941   
     12. A(C   0,H   2,F   5)          152.8847         0.204372   
     13. D(F   5,H   2,C   0,H   3)     59.4126         0.095630   
     14. D(F   5,H   2,C   0,Br  4)    178.7716         0.095630   
     15. D(F   5,H   2,C   0,H   1)    -61.7694         0.095630   
    -----------------------------------------------------------------

Number of atoms                         .... 6
Number of degrees of freedom            .... 15


         *************************************************************
         *                GEOMETRY OPTIMIZATION CYCLE   1            *
         *************************************************************
---------------------------------
CARTESIAN COORDINATES (ANGSTROEM)
---------------------------------
  C     -0.352293    0.207123    0.308143
  H     -0.452816    1.288436    0.267091
  H      0.279689   -0.150217   -0.540630
  H     -1.332718   -0.258721    0.259936
  Br     0.344277   -0.197280    2.089021
  F      0.609651   -0.350930   -2.157165

----------------------------
CARTESIAN COORDINATES (A.U.)
----------------------------
  NO LB      ZA    FRAG     MASS         X           Y           Z
   0 C     6.0000    0    12.011   -0.665737    0.391406    0.582306
   1 H     1.0000    0     1.008   -0.855698    2.434791    0.504729
   2 H     1.0000    0     1.008    0.528536   -0.283869   -1.021643
   3 H     1.0000    0     1.008   -2.518472   -0.488912    0.491208
   4 Br   35.0000    0    79.900    0.650589   -0.372805    3.947678
   5 F     9.0000    0    18.998    1.152073   -0.663162   -4.076451

--------------------------------
INTERNAL COORDINATES (ANGSTROEM)
--------------------------------
 C      0   0   0     0.000000000000     0.00000000     0.00000000
 H      1   0   0     1.086751095791     0.00000000     0.00000000
 H      1   2   0     1.116919303017   109.99661909     0.00000000
 H      1   2   3     1.086539335602   109.96552468   238.88281385
 Br     1   2   3     1.954553146423   105.85781763   124.96215027
 F      3   1   2     1.662030696479   152.88468092   298.23061216

---------------------------
INTERNAL COORDINATES (A.U.)
---------------------------
 C      0   0   0     0.000000000000     0.00000000     0.00000000
 H      1   0   0     2.053661946783     0.00000000     0.00000000
 H      1   2   0     2.110671596393   109.99661909     0.00000000
 H      1   2   3     2.053261778020   109.96552468   238.88281385
 Br     1   2   3     3.693570160934   105.85781763   124.96215027
 F      3   1   2     3.140782842515   152.88468092   298.23061216

---------------------
BASIS SET INFORMATION
---------------------
There are 4 groups of distinct atoms

 Group   1 Type C   : 11s6p1d contracted to 5s3p1d pattern {62111/411/1}
 Group   2 Type H   : 4s1p contracted to 2s1p pattern {31/1}
 Group   3 Type Br  : 17s13p7d contracted to 6s5p3d pattern {842111/64111/511}
 Group   4 Type F   : 11s6p2d contracted to 5s3p2d pattern {62111/411/11}

Atom   0C    basis set group =>   1
Atom   1H    basis set group =>   2
Atom   2H    basis set group =>   2
Atom   3H    basis set group =>   2
Atom   4Br   basis set group =>   3
Atom   5F    basis set group =>   4
---------------------------------
AUXILIARY/J BASIS SET INFORMATION
---------------------------------
There are 4 groups of distinct atoms

 Group   1 Type C   : 8s3p3d contracted to 6s3p3d pattern {311111/111/111}
 Group   2 Type H   : 5s2p1d contracted to 3s1p1d pattern {311/2/1}
 Group   3 Type Br  : 19s5p5d3f1g contracted to 8s4p3d2f1g pattern {121111111/2111/311/21/1}
 Group   4 Type F   : 8s3p4d contracted to 6s3p4d pattern {311111/111/1111}

Atom   0C    basis set group =>   1
Atom   1H    basis set group =>   2
Atom   2H    basis set group =>   2
Atom   3H    basis set group =>   2
Atom   4Br   basis set group =>   3
Atom   5F    basis set group =>   4


           ************************************************************
           *        Program running with 8 parallel MPI-processes     *
           *              working on a common directory               *
           ************************************************************
------------------------------------------------------------------------------
                             ORCA STARTUP CALCULATIONS
                           -- RI-GTO INTEGRALS CHOSEN --
------------------------------------------------------------------------------
------------------------------------------------------------------------------
                   ___                                                        
                  /   \      - P O W E R E D   B Y -                         
                 /     \                                                     
                 |  |  |   _    _      __       _____    __    __             
                 |  |  |  | |  | |    /  \     |  _  \  |  |  /  |          
                  \  \/   | |  | |   /    \    | | | |  |  | /  /          
                 / \  \   | |__| |  /  /\  \   | |_| |  |  |/  /          
                |  |  |   |  __  | /  /__\  \  |    /   |      \           
                |  |  |   | |  | | |   __   |  |    \   |  |\   \          
                \     /   | |  | | |  |  |  |  | |\  \  |  | \   \       
                 \___/    |_|  |_| |__|  |__|  |_| \__\ |__|  \__/        
                                                                              
                      - O R C A' S   B I G   F R I E N D -                    
                                      &                                       
                       - I N T E G R A L  F E E D E R -                       
                                                                              
 v1 FN, 2020, v2 2021, v3 2022-2024                                           
------------------------------------------------------------------------------


----------------------
SHARK INTEGRAL PACKAGE
----------------------

Number of atoms                             ...      6
Number of basis functions                   ...     94
Number of shells                            ...     42
Maximum angular momentum                    ...      2
Integral batch strategy                     ... SHARK/LIBINT Hybrid
RI-J (if used) integral strategy            ... SPLIT-RIJ (Revised 2003 algorithm where possible)
Printlevel                                  ...      1
Contraction scheme used                     ... SEGMENTED contraction
Prescreening option                         ... SCHWARTZ
   Thresh                                   ... 2.500e-11
   Tcut                                     ... 2.500e-12
   Tpresel                                  ... 2.500e-12 
Coulomb Range Separation                    ... NOT USED
Exchange Range Separation                   ... NOT USED
Multipole approximations                    ... NOT USED
Finite Nucleus Model                        ... NOT USED
CABS basis                                  ... NOT available
Auxiliary Coulomb fitting basis             ... AVAILABLE
   # of basis functions in Aux-J            ...    156
   # of shells in Aux-J                     ...     58
   Maximum angular momentum in Aux-J        ...      4
Auxiliary J/K fitting basis                 ... NOT available
Auxiliary Correlation fitting basis         ... NOT available
Auxiliary 'external' fitting basis          ... NOT available

Checking pre-screening integrals            ... done (  0.0 sec) Dimension = 42
   => SHARK Basis and OBASIS are compatible. Storing Pre-screening
Shell pair information
Shell pair cut-off parameter TPreSel        ...   2.5e-12
Total number of shell pairs                 ...       903
Shell pairs after pre-screening             ...       823
Total number of primitive shell pairs       ...      4124
Primitive shell pairs kept                  ...      2892
          la=0 lb=0:    225 shell pairs
          la=1 lb=0:    281 shell pairs
          la=1 lb=1:    100 shell pairs
          la=2 lb=0:    119 shell pairs
          la=2 lb=1:     79 shell pairs
          la=2 lb=2:     19 shell pairs

Checking whether 4 symmetric matrices of dimension 94 fit in memory
:Max Core in MB      =   4096.00
 MB in use           =      4.40
 MB left             =   4091.60
 MB needed           =      0.14
 Data fit in memory  = YES
Calculating RI/J V-Matrix + Cholesky decomp.... done (  0.0 sec)
Calculating Nuclear repulsion               ... done (  0.0 sec) ENN=    144.039299241451 Eh

Diagonalization of the overlap matrix:
Smallest eigenvalue                        ... 5.396e-03
Time for diagonalization                   ...    0.001 sec
Threshold for overlap eigenvalues          ... 1.000e-07
Number of eigenvalues below threshold      ... 0
Time for construction of square roots      ...    0.001 sec
Total time needed                          ...    0.003 sec

-------------------
DFT GRID GENERATION
-------------------

General Integration Accuracy     IntAcc      ... 4.388
Radial Grid Type                 RadialGrid  ... OptM3 with GC (2021)
Angular Grid (max. ang.)         AngularGrid ... 4 (Lebedev-302)
Angular grid pruning method      GridPruning ... 4 (adaptive)
Weight generation scheme         WeightScheme... mBecke (2022)
Basis function cutoff            BFCut       ... 1.0000e-11
Integration weight cutoff        WCut        ... 1.0000e-14
Partially contracted basis set               ... off
Rotationally invariant grid construction     ... off
Angular grids for H and He will be reduced by one unit
Core-polarized basis detected: some atoms will have their core
                               angular grid increased.

Total number of grid points                  ...    33360
Total number of batches                      ...      524
Average number of points per batch           ...       63
Average number of grid points per atom       ...     5560
Grids setup in   0.4 sec
Initializing property integral containers    ... done (  0.0 sec)

SHARK setup successfully completed in   0.7 seconds

Maximum memory used throughout the entire STARTUP-calculation: 13.2 MB


           ************************************************************
           *        Program running with 8 parallel MPI-processes     *
           *              working on a common directory               *
           ************************************************************
-------------------------------------------------------------------------------
                                 ORCA GUESS
                   Start orbitals & Density for SCF / CASSCF
-------------------------------------------------------------------------------

------------
SCF SETTINGS
------------
Hamiltonian:
 Density Functional     Method          .... DFT(GTOs)
  Functional kind                       .... Exchange
  Functional name                       .... Re-regularized SCAN exchange by Furness et al
  Functional family                     .... MGGA
  Functional refs                              
    [ 0] J. W. Furness, A. D. Kaplan, J. Ning, J. P. Perdew, and J. Sun.,  J. Phys. Chem. Lett. 11, 8208-8215 (2020), doi: 10.1021/acs.jpclett.0c02405
    [ 1] J. W. Furness, A. D. Kaplan, J. Ning, J. P. Perdew, and J. Sun.,  J. Phys. Chem. Lett. 11, 9248-9248 (2020), doi: 10.1021/acs.jpclett.0c03077
  Functional external parameters        .... 6
    Parameter  0 _c1        =  6.670000e-01 : c1 parameter        
    Parameter  1 _c2        =  8.000000e-01 : c2 parameter        
    Parameter  2 _d         =  1.240000e+00 : d parameter         
    Parameter  3 _k1        =  6.500000e-02 : k1 parameter        
    Parameter  4 _eta       =  1.000000e-03 : eta parameter       
    Parameter  5 _dp2       =  3.610000e-01 : dp2 parameter       
  Functional kind                       .... Correlation
  Functional name                       .... Re-regularized SCAN correlation by Furness et al
  Functional family                     .... MGGA
  Functional refs                              
    [ 0] J. W. Furness, A. D. Kaplan, J. Ning, J. P. Perdew, and J. Sun.,  J. Phys. Chem. Lett. 11, 8208-8215 (2020), doi: 10.1021/acs.jpclett.0c02405
    [ 1] J. W. Furness, A. D. Kaplan, J. Ning, J. P. Perdew, and J. Sun.,  J. Phys. Chem. Lett. 11, 9248-9248 (2020), doi: 10.1021/acs.jpclett.0c03077
  Functional external parameters        .... 1
    Parameter  0 _eta       =  1.000000e-03 : Regularization parameter
 Gradients option       PostSCFGGA      .... off
 RI-approximation to the Coulomb term is turned on
   Number of AuxJ basis functions       .... 156


General Settings:
 Integral files         IntName         .... reactant_optfreq
 Hartree-Fock type      HFTyp           .... RHF
 Total Charge           Charge          ....   -1
 Multiplicity           Mult            ....    1
 Number of Electrons    NEL             ....   54
 Basis Dimension        Dim             ....   94
 Nuclear Repulsion      ENuc            ....    144.0392992415 Eh

Convergence Acceleration:
 AO-DIIS                CNVDIIS         .... on
   Start iteration      DIISMaxIt       ....    12
   Startup error        DIISStart       ....  0.200000
   # of expansion vecs  DIISMaxEq       ....     5
   Bias factor          DIISBfac        ....   1.050
   Max. coefficient     DIISMaxC        ....  10.000
 MO-DIIS                CNVKDIIS        .... off
 Trust-Rad. Augm. Hess. CNVTRAH         .... auto
   Auto Start mean grad. ratio tolernc. ....  1.125000
   Auto Start start iteration           ....    50
   Auto Start num. interpolation iter.  ....    10
   Max. Number of Micro iterations      ....    24
   Max. Number of Macro iterations      .... Maxiter - #DIIS iter
   Number of Davidson start vectors     ....     2
   Converg. threshold    (grad. norm)   ....   1.000e-05
   Grad. Scal. Fac. for Micro threshold ....   0.100
   Minimum threshold for Micro iter.    ....   1.000e-02
   NR start threshold (gradient norm)   ....   1.000e-04
   Initial trust radius                 ....   0.400
   Minimum AH scaling param. (alpha)    ....   1.000
   Maximum AH scaling param. (alpha)    .... 1000.000
   Quad. conv. algorithm                .... NR
   White noise on init. David. guess    .... on
   Maximum white noise                  ....   0.010
   Pseudo random numbers                .... off
   Inactive MOs                         .... canonical
   Orbital update algorithm             .... Taylor
   Preconditioner                       .... Diag
   Full preconditioner red. dimension   ....   250
   COSX micro iterations for RIJONX calc.... off
 SOSCF                 CNVSOSCF           .... on
   Start iteration     SOSCFMaxIt         ....   150
   Startup grad/error  SOSCFStart         ....  0.003300
   Hessian update      SOSCFHessUp        .... L-BFGS
   Autom. constraints  SOSCFAutoConstrain .... off
 Level Shifting         CNVShift        .... on
   Level shift para.    LevelShift      ....    0.2500
   Turn off err/grad.   ShiftErr        ....    0.0010
 Zerner damping         CNVZerner       .... off
 Static damping         CNVDamp         .... on
   Fraction old density DampFac         ....    0.7000
   Max. Damping (<1)    DampMax         ....    0.9800
   Min. Damping (>=0)   DampMin         ....    0.0000
   Turn off err/grad.   DampErr         ....    0.1000

SCF Procedure:
 Maximum # iterations   MaxIter         ....   150
 SCF integral mode      SCFMode         .... Direct
   Integral package                     .... SHARK and LIBINT hybrid scheme
 Reset frequency        DirectResetFreq ....    20
 Integral Threshold     Thresh          ....  2.500e-11 Eh
 Primitive CutOff       TCut            ....  2.500e-12 Eh

Convergence Tolerance:
 Convergence Check Mode ConvCheckMode   .... Total+1el-Energy
 Convergence forced     ConvForced      .... 0
 Energy Change          TolE            ....  1.000e-08 Eh
 1-El. energy change                    ....  1.000e-05 Eh
 Orbital Gradient       TolG            ....  1.000e-05
 Orbital Rotation angle TolX            ....  1.000e-05
 DIIS Error             TolErr          ....  5.000e-07

------------------------------
INITIAL GUESS: MODEL POTENTIAL
------------------------------
Loading Hartree-Fock densities                     ... done
Calculating cut-offs                               ... done
Initializing the effective Hamiltonian             ... done
Setting up the integral package (SHARK)            ... done
Starting the Coulomb interaction                   ... done (   0.1 sec)
Making the grid                                    ... done (   0.2 sec)
Mapping shells                                     ... done
Starting the XC term evaluation                    ... done (   0.0 sec)
  promolecular density results
     # of electrons  =     52.997932976
     EX              =   -105.183890590
     EC              =     -2.294771206
     EX+EC           =   -107.478661796
Transforming the Hamiltonian                       ... done (   0.0 sec)
Diagonalizing the Hamiltonian                      ... done (   0.0 sec)
Back transforming the eigenvectors                 ... done (   0.0 sec)
Now organizing SCF variables                       ... done
                      ------------------
                      INITIAL GUESS DONE (   0.3 sec)
                      ------------------
             **** ENERGY FILE WAS UPDATED (reactant_optfreq.en.tmp) ****
Finished Guess after   0.5 sec
Maximum memory used throughout the entire GUESS-calculation: 6.9 MB


           ************************************************************
           *        Program running with 8 parallel MPI-processes     *
           *              working on a common directory               *
           ************************************************************

-------------------------------------------------------------------------------------------
                                      ORCA LEAN-SCF
                              memory conserving SCF solver
-------------------------------------------------------------------------------------------

----------------------------------------D-I-I-S--------------------------------------------
Iteration    Energy (Eh)           Delta-E    RMSDP     MaxDP     DIISErr   Damp  Time(sec)
-------------------------------------------------------------------------------------------
               ***  Starting incremental Fock matrix formation  ***
    1    -2713.7270766528095010     0.00e+00  1.33e-02  7.33e-02  3.79e-01  0.700   0.5
Warning: op=0 Small HOMO/LUMO gap (   0.057) - skipping pre-diagonalization
         Will do a full diagonalization
    2    -2713.8148422483491231    -8.78e-02  9.46e-03  3.24e-02  1.19e-01  0.700   0.6
                               ***Turning on AO-DIIS***
    3    -2713.8426598311866655    -2.78e-02  4.26e-03  2.31e-02  2.49e-02  0.700   0.4
    4    -2713.8599816070504858    -1.73e-02  7.32e-03  4.98e-02  1.70e-02  0.000   0.6
    5    -2713.9014991425938206    -4.15e-02  2.29e-03  1.14e-02  9.90e-03  0.000   0.5
                              *** Initializing SOSCF ***
---------------------------------------S-O-S-C-F--------------------------------------
Iteration    Energy (Eh)           Delta-E    RMSDP     MaxDP     MaxGrad    Time(sec)
--------------------------------------------------------------------------------------
    6    -2713.9022166161221321    -7.17e-04  1.00e-03  4.93e-03  3.25e-03     0.5
               *** Restarting incremental Fock matrix formation ***
    7    -2713.9023449830538084    -1.28e-04  1.72e-03  7.64e-03  2.04e-03     0.3
    8    -2713.9023743591501443    -2.94e-05  5.25e-04  2.84e-03  2.37e-03     0.2
    9    -2713.9023918687894366    -1.75e-05  5.08e-04  2.20e-03  1.53e-03     0.3
   10    -2713.9024063632646175    -1.45e-05  1.23e-04  5.43e-04  2.91e-04     0.4
   11    -2713.9024069603469798    -5.97e-07  4.78e-05  2.05e-04  2.19e-04     0.2
   12    -2713.9024071955054751    -2.35e-07  3.33e-05  1.83e-04  8.69e-05     0.2
   13    -2713.9024072817082924    -8.62e-08  9.79e-06  6.46e-05  7.18e-05     0.3
   14    -2713.9024072988572698    -1.71e-08  5.07e-06  2.11e-05  1.45e-05     0.4
   15    -2713.9024072981474092     7.10e-10  1.86e-06  1.07e-05  4.43e-06     0.5
                 **** Energy Check signals convergence ****

               *****************************************************
               *                     SUCCESS                       *
               *           SCF CONVERGED AFTER  15 CYCLES          *
               *****************************************************

             **** ENERGY FILE WAS UPDATED (reactant_optfreq.en.tmp) ****

----------------
TOTAL SCF ENERGY
----------------

Total Energy       :      -2713.90240729988545 Eh          -73849.03892 eV

Components:
Nuclear Repulsion  :        144.03929924145083 Eh            3919.50860 eV
Electronic Energy  :      -2857.94170654133632 Eh          -77768.54751 eV
One Electron Energy:      -4073.39081703643114 Eh         -110842.59926 eV
Two Electron Energy:       1215.44911049509506 Eh           33074.05175 eV

Virial components:
Potential Energy   :      -5423.97200469051768 Eh         -147593.78177 eV
Kinetic Energy     :       2710.06959739063223 Eh           73744.74286 eV
Virial Ratio       :          2.00141428467850

DFT components:
N(Alpha)           :       26.999995007522 electrons
N(Beta)            :       26.999995007522 electrons
N(Total)           :       53.999990015045 electrons
E(X)               :     -106.166157714788 Eh       
E(C)               :       -2.328369665574 Eh       
E(XC)              :     -108.494527380362 Eh       

---------------
SCF CONVERGENCE
---------------

  Last Energy change         ...   -7.0986e-10  Tolerance :   1.0000e-08
  Last MAX-Density change    ...    1.0660e-05  Tolerance :   1.0000e-07
  Last RMS-Density change    ...    1.8647e-06  Tolerance :   5.0000e-09
  Last DIIS Error            ...    3.2508e-03  Tolerance :   5.0000e-07
  Last Orbital Gradient      ...    4.4348e-06  Tolerance :   1.0000e-05
  Last Orbital Rotation      ...    9.7386e-06  Tolerance :   1.0000e-05


----------------
ORBITAL ENERGIES
----------------

  NO   OCC          E(Eh)            E(eV) 
   0   2.0000    -482.063159    -13117.6054 
   1   2.0000     -62.135288     -1690.7871 
   2   2.0000     -55.916322     -1521.5605 
   3   2.0000     -55.912788     -1521.4643 
   4   2.0000     -55.912713     -1521.4623 
   5   2.0000     -24.064673      -654.8330 
   6   2.0000      -9.893613      -269.2189 
   7   2.0000      -8.467335      -230.4079 
   8   2.0000      -6.273584      -170.7129 
   9   2.0000      -6.261815      -170.3926 
  10   2.0000      -6.261675      -170.3888 
  11   2.0000      -2.371484       -64.5314 
  12   2.0000      -2.368693       -64.4554 
  13   2.0000      -2.368559       -64.4518 
  14   2.0000      -2.359587       -64.2076 
  15   2.0000      -2.359578       -64.2074 
  16   2.0000      -0.698719       -19.0131 
  17   2.0000      -0.604361       -16.4455 
  18   2.0000      -0.459478       -12.5030 
  19   2.0000      -0.236231        -6.4282 
  20   2.0000      -0.211782        -5.7629 
  21   2.0000      -0.200685        -5.4609 
  22   2.0000      -0.103173        -2.8075 
  23   2.0000      -0.100982        -2.7479 
  24   2.0000       0.017860         0.4860 
  25   2.0000       0.018907         0.5145 
  26   2.0000       0.019281         0.5247 
  27   0.0000       0.139807         3.8043 
  28   0.0000       0.262823         7.1518 
  29   0.0000       0.328548         8.9402 
  30   0.0000       0.337378         9.1805 
  31   0.0000       0.363691         9.8965 
  32   0.0000       0.373170        10.1545 
  33   0.0000       0.373997        10.1770 
  34   0.0000       0.405892        11.0449 
  35   0.0000       0.426642        11.6095 
  36   0.0000       0.465965        12.6796 
  37   0.0000       0.544224        14.8091 
*Only the first 10 virtual orbitals were printed.

                    ********************************
                    * MULLIKEN POPULATION ANALYSIS *
                    ********************************

-----------------------
MULLIKEN ATOMIC CHARGES
-----------------------
   0 C :   -0.404194
   1 H :    0.124153
   2 H :    0.334279
   3 H :    0.124956
   4 Br:   -0.325800
   5 F :   -0.853394
Sum of atomic charges:   -1.0000000

--------------------------------
MULLIKEN REDUCED ORBITAL CHARGES
--------------------------------
  0 C s       :     3.317118  s :     3.317118
      pz      :     0.854107  p :     3.062185
      px      :     1.131153
      py      :     1.076925
      dz2     :     0.008391  d :     0.024891
      dxz     :     0.004722
      dyz     :     0.002854
      dx2y2   :     0.006038
      dxy     :     0.002887

  1 H s       :     0.857001  s :     0.857001
      pz      :     0.003424  p :     0.018847
      px      :     0.004125
      py      :     0.011298

  2 H s       :     0.640037  s :     0.640037
      pz      :     0.016065  p :     0.025684
      px      :     0.005732
      py      :     0.003887

  3 H s       :     0.856191  s :     0.856191
      pz      :     0.003435  p :     0.018853
      px      :     0.010112
      py      :     0.005306

  4 Brs       :     7.951777  s :     7.951777
      pz      :     5.455012  p :    17.328776
      px      :     5.907260
      py      :     5.966504
      dz2     :     2.018751  d :    10.045247
      dxz     :     2.012069
      dyz     :     2.009725
      dx2y2   :     2.002620
      dxy     :     2.002082

  5 F s       :     3.991493  s :     3.991493
      pz      :     1.910015  p :     5.859815
      px      :     1.969935
      py      :     1.979865
      dz2     :     0.001585  d :     0.002086
      dxz     :     0.000276
      dyz     :     0.000201
      dx2y2   :     0.000011
      dxy     :     0.000014



                     *******************************
                     * LOEWDIN POPULATION ANALYSIS *
                     *******************************

----------------------
LOEWDIN ATOMIC CHARGES
----------------------
   0 C :   -0.551262
   1 H :    0.133412
   2 H :    0.224599
   3 H :    0.133791
   4 Br:   -0.072911
   5 F :   -0.867628

-------------------------------
LOEWDIN REDUCED ORBITAL CHARGES
-------------------------------
  0 C s       :     3.114983  s :     3.114983
      pz      :     1.001930  p :     3.379415
      px      :     1.197421
      py      :     1.180065
      dz2     :     0.018570  d :     0.056864
      dxz     :     0.010453
      dyz     :     0.005719
      dx2y2   :     0.014917
      dxy     :     0.007206

  1 H s       :     0.820955  s :     0.820955
      pz      :     0.007532  p :     0.045634
      px      :     0.009603
      py      :     0.028499

  2 H s       :     0.689638  s :     0.689638
      pz      :     0.055977  p :     0.085764
      px      :     0.018853
      py      :     0.010934

  3 H s       :     0.820549  s :     0.820549
      pz      :     0.007565  p :     0.045660
      px      :     0.025715
      py      :     0.012380

  4 Brs       :     7.729064  s :     7.729064
      pz      :     5.447335  p :    17.278951
      px      :     5.889158
      py      :     5.942458
      dz2     :     2.030118  d :    10.064897
      dxz     :     2.016916
      dyz     :     2.011978
      dx2y2   :     2.003127
      dxy     :     2.002758

  5 F s       :     3.974502  s :     3.974502
      pz      :     1.913492  p :     5.871185
      px      :     1.973755
      py      :     1.983939
      dz2     :     0.016680  d :     0.021940
      dxz     :     0.003479
      dyz     :     0.001513
      dx2y2   :     0.000120
      dxy     :     0.000148



                      *****************************
                      * MAYER POPULATION ANALYSIS *
                      *****************************

  NA   - Mulliken gross atomic population
  ZA   - Total nuclear charge
  QA   - Mulliken gross atomic charge
  VA   - Mayer's total valence
  BVA  - Mayer's bonded valence
  FA   - Mayer's free valence

  ATOM       NA         ZA         QA         VA         BVA        FA
  0 C      6.4042     6.0000    -0.4042     3.7275     3.7275    -0.0000
  1 H      0.8758     1.0000     0.1242     0.9640     0.9640    -0.0000
  2 H      0.6657     1.0000     0.3343     0.9144     0.9144    -0.0000
  3 H      0.8750     1.0000     0.1250     0.9639     0.9639     0.0000
  4 Br    35.3258    35.0000    -0.3258     0.8898     0.8898     0.0000
  5 F      9.8534     9.0000    -0.8534     0.2439     0.2439     0.0000

  Mayer bond orders larger than 0.100000
B(  0-C ,  1-H ) :   0.9713 B(  0-C ,  2-H ) :   0.8105 B(  0-C ,  3-H ) :   0.9713 
B(  0-C ,  4-Br) :   0.8543 B(  0-C ,  5-F ) :   0.1201 B(  2-H ,  5-F ) :   0.1025 


-------
TIMINGS
-------

Total SCF time: 0 days 0 hours 0 min 7 sec 

Total time                  ....       7.194 sec
Sum of individual times     ....       6.647 sec  ( 92.4%)

SCF preparation             ....       0.599 sec  (  8.3%)
Fock matrix formation       ....       4.748 sec  ( 66.0%)
  Startup                   ....       0.105 sec  (  2.2% of F)
  Split-RI-J                ....       0.979 sec  ( 20.6% of F)
  XC integration            ....       3.148 sec  ( 66.3% of F)
    XC Preparation          ....       0.000 sec  (  0.0% of XC)
    Basis function eval.    ....       0.534 sec  ( 17.0% of XC)
    Density eval.           ....       0.342 sec  ( 10.9% of XC)
    XC-Functional eval.     ....       0.553 sec  ( 17.6% of XC)
    XC-Potential eval.      ....       0.541 sec  ( 17.2% of XC)
Diagonalization             ....       0.000 sec  (  0.0%)
Density matrix formation    ....       0.256 sec  (  3.6%)
Total Energy calculation    ....       0.040 sec  (  0.6%)
Population analysis         ....       0.097 sec  (  1.4%)
Orbital Transformation      ....       0.094 sec  (  1.3%)
Orbital Orthonormalization  ....       0.000 sec  (  0.0%)
DIIS solution               ....       0.554 sec  (  7.7%)
SOSCF solution              ....       0.258 sec  (  3.6%)
Finished LeanSCF after   7.3 sec

Maximum memory used throughout the entire LEANSCF-calculation: 6.5 MB


           ************************************************************
           *        Program running with 8 parallel MPI-processes     *
           *              working on a common directory               *
           ************************************************************

------------------------------------------------------------------------------
                         ORCA PROPERTY INTEGRAL CALCULATIONS
------------------------------------------------------------------------------

GBWName                                   ... reactant_optfreq.gbw
Number of atoms                           ...      6
Number of basis functions                 ...     94
Max core memory                           ...   4096 MB

Dipole integrals                          ... YES
Quadrupole integrals                      ...  NO
Linear momentum integrals                 ...  NO
Angular momentum integrals                ...  NO
Higher moments length integrals           ...  NO
Higher moments velocity integrals         ...  NO
Kinetic energy integrals                  ...  NO
GIAO right hand sides                     ...  NO
GIAO dipole derivative integrals          ...  NO
SOC integrals                             ...  NO
EPR diamagnetic integrals (GIAO)          ...  NO
EPR gauge integrals                       ...  NO
Field gradient integrals                  ...  NO (   0 nuclei)
Spin-dipole/Fermi contact integrals       ...  NO (   0 nuclei)
Contact density integrals                 ...  NO (   0 nuclei)
Nucleus-orbit integrals                   ...  NO (   0 nuclei)
Geometric perturbations                   ...  NO (   6 nuclei)

Choice of electric origin   ... Center of mass
Position of electric origin ... (  0.5530, -0.3161,  2.1499) 
Choice of magnetic origin   ... GIAO
Position of magnetic origin ... (  0.0000,  0.0000,  0.0000) 

Calculating integrals                     ... Electric Dipole (Length)     done (  0.0 sec)

Property integrals calculated in   0.0 sec

Maximum memory used throughout the entire PROPINT-calculation: 7.0 MB


-------------------------------------------------------------------------------
                          DFT DISPERSION CORRECTION                            
                                                                               
                                DFTD4 V3.4.0                                   
-------------------------------------------------------------------------------
The R2SCAN3C composite method is recognized
Using three-body term ABC
Active option DFTDOPT                   ...         5   

-------------------------   ----------------
Dispersion correction           -0.000858578
-------------------------   ----------------

------------------   -----------------
gCP correction             0.004576386
------------------   -----------------

-------------------------   --------------------
FINAL SINGLE POINT ENERGY     -2713.898689491256
-------------------------   --------------------



           ************************************************************
           *        Program running with 8 parallel MPI-processes     *
           *              working on a common directory               *
           ************************************************************
------------------------------------------------------------------------------
                         ORCA SCF GRADIENT CALCULATION
------------------------------------------------------------------------------

Nuc. rep. gradient        (SHARK) ... done (  0.0 sec)
HCore & Overlap gradient  (SHARK) ... done (  0.0 sec)
Split-RIJ-J gradient      (SHARK) ... done (  1.2 sec)
XC gradient                       ... done (  0.6 sec)
Dispersion correction             ... done (  0.1 sec)

-------------------
DISPERSION GRADIENT
-------------------

   1   C   :   -0.000007658    0.000004451   -0.000002820
   2   H   :   -0.000001266    0.000000897    0.000003722
   3   H   :    0.000000082   -0.000000087   -0.000003511
   4   H   :   -0.000001373    0.000000647    0.000003680
   5   Br  :    0.000001611   -0.000000942    0.000041691
   6   F   :    0.000008604   -0.000004965   -0.000042762

Difference to translation invariance:
           :    0.0000000000    0.0000000000    0.0000000000

Difference to rotation invariance:
           :   -0.0000000000   -0.0000000000    0.0000000000

Norm of the Dispersion gradient    ...    0.0000616416
RMS gradient                       ...    0.0000145291
MAX gradient                       ...    0.0000427616
gCP correction                   ... done

------------------
CARTESIAN GRADIENT
------------------

   1   C   :    0.008501637   -0.005056665    0.010983866
   2   H   :    0.000548654   -0.002883977   -0.000669004
   3   H   :   -0.006136974    0.003681665    0.008699861
   4   H   :    0.002839011    0.001045283   -0.000669014
   5   Br  :   -0.006278984    0.003627229   -0.014972138
   6   F   :    0.000526655   -0.000413534   -0.003373570

Difference to translation invariance:
           :    0.0000000000    0.0000000000   -0.0000000001

Difference to rotation invariance:
           :   -0.0000101913    0.0000416611    0.0000219151

Norm of the Cartesian gradient     ...    0.0255468290
RMS gradient                       ...    0.0060214453
MAX gradient                       ...    0.0149721380

-------
TIMINGS
-------

Total SCF gradient time     ....        1.987 sec

Densities                   ....       0.000 sec  (  0.0%)
One electron gradient       ....       0.010 sec  (  0.5%)
RI-J Coulomb gradient       ....       1.197 sec  ( 60.2%)
XC gradient                 ....       0.579 sec  ( 29.1%)

Maximum memory used throughout the entire SCFGRAD-calculation: 26.7 MB
------------------------------------------------------------------------------
                         ORCA GEOMETRY RELAXATION STEP
------------------------------------------------------------------------------

Reading the OPT-File                    .... done
Getting information on internals        .... done
Copying old internal coords+grads       .... done
Making the new internal coordinates     .... (2022 redundants) done
Validating the new internal coordinates .... (2022 redundants) done
Calculating the B-matrix                .... done
Calculating the G,G- and P matrices     .... done
Transforming gradient to internals      .... done
Projecting the internal gradient        .... done
Number of atoms                         ....   6
Number of internal coordinates          ....  15
Current Energy                          .... -2713.898689491 Eh
Current gradient norm                   ....     0.025546829 Eh/bohr
Maximum allowed component of the step   ....  0.300
Current trust radius                    ....  0.300
Evaluating the initial hessian          ....  (Almloef) done
Projecting the Hessian                  .... done
Forming the augmented Hessian           .... done
Diagonalizing the augmented Hessian     .... done
Last element of RFO vector              ....  0.993638869
Lowest eigenvalues of augmented Hessian:
 -0.001634128  0.036951420  0.095629630  0.204372913  0.219878920
Length of the computed step             ....  0.113334428
The final length of the internal step   ....  0.113334428
Converting the step to Cartesian space:
 Initial RMS(Int)=    0.0292628235
Transforming coordinates:
 Iter   0:  RMS(Cart)=    0.0203849028 RMS(Int)=    0.0292675468
done
Storing new coordinates                 .... done

                                .--------------------.
          ----------------------|Geometry convergence|-------------------------
          Item                value                   Tolerance       Converged
          ---------------------------------------------------------------------
          RMS gradient        0.0050468435            0.0001000000      NO
          MAX gradient        0.0166303990            0.0003000000      NO
          RMS step            0.0292628235            0.0020000000      NO
          MAX step            0.0897427154            0.0040000000      NO
          -------------------------------------------------------------------------
          ........................................................
          Max(Bonds)      0.0475      Max(Angles)    0.37
          Max(Dihed)        0.17      Max(Improp)    0.00
          ---------------------------------------------------------------------

The optimization has not yet converged - more geometry cycles are needed


    ---------------------------------------------------------------------------
                         Redundant Internal Coordinates
                            (Angstroem and degrees)

        Definition                    Value    dE/dq     Step     New-Value
    ----------------------------------------------------------------------------
     1. B(H   1,C   0)                1.0868 -0.002895  0.0042    1.0909   
     2. B(H   2,C   0)                1.1169 -0.008267  0.0133    1.1303   
     3. B(H   3,C   0)                1.0865 -0.002980  0.0043    1.0908   
     4. B(Br  4,C   0)                1.9546 -0.016630  0.0331    1.9877   
     5. B(F   5,H   2)                1.6620  0.003435 -0.0475    1.6145   
     6. A(H   1,C   0,H   3)          109.97  0.000417   -0.04    109.93   
     7. A(H   1,C   0,H   2)          110.00 -0.001296    0.26    110.26   
     8. A(H   1,C   0,Br  4)          105.86  0.000233   -0.07    105.78   
     9. A(H   2,C   0,Br  4)          115.12  0.001864   -0.37    114.76   
    10. A(H   3,C   0,Br  4)          105.86  0.000221   -0.07    105.79   
    11. A(H   2,C   0,H   3)          109.86 -0.001334    0.27    110.13   
    12. A(C   0,H   2,F   5)          152.88 -0.000432    0.12    153.00   
    13. D(F   5,H   2,C   0,H   3)     59.41 -0.000613    0.17     59.58   
    14. D(F   5,H   2,C   0,Br  4)    178.77 -0.000051    0.02    178.80   
    15. D(F   5,H   2,C   0,H   1)    -61.77  0.000560   -0.13    -61.90   
    ----------------------------------------------------------------------------

Geometry step timings:
Preparation and reading OPT file:      0.000 s ( 1.909 %)
Internal coordinates            :      0.000 s ( 2.530 %)
B/P matrices and projection     :      0.000 s ( 6.778 %)
Hessian update/contruction      :      0.001 s (56.181 %)
Making the step                 :      0.000 s ( 7.064 %)
Converting the step to Cartesian:      0.000 s ( 2.291 %)
Storing new data                :      0.000 s ( 4.153 %)
Checking convergence            :      0.000 s ( 3.294 %)
Final printing                  :      0.000 s (15.513 %)
Total time                      :      0.002 s

Time for energy+gradient        :     14.027 s
Time for complete geometry iter :     14.526 s

         *************************************************************
         *                GEOMETRY OPTIMIZATION CYCLE   2            *
         *************************************************************
---------------------------------
CARTESIAN COORDINATES (ANGSTROEM)
---------------------------------
  C     -0.356680    0.209544    0.297508
  H     -0.458049    1.295155    0.261270
  H      0.283449   -0.152565   -0.560751
  H     -1.341532   -0.257511    0.254308
  Br     0.360464   -0.206492    2.104031
  F      0.608139   -0.349720   -2.129970

----------------------------
CARTESIAN COORDINATES (A.U.)
----------------------------
  NO LB      ZA    FRAG     MASS         X           Y           Z
   0 C     6.0000    0    12.011   -0.674027    0.395980    0.562208
   1 H     1.0000    0     1.008   -0.865587    2.447488    0.493728
   2 H     1.0000    0     1.008    0.535641   -0.288307   -1.059665
   3 H     1.0000    0     1.008   -2.535129   -0.486625    0.480572
   4 Br   35.0000    0    79.900    0.681178   -0.390213    3.976043
   5 F     9.0000    0    18.998    1.149215   -0.660874   -4.025060

--------------------------------
INTERNAL COORDINATES (ANGSTROEM)
--------------------------------
 C      0   0   0     0.000000000000     0.00000000     0.00000000
 H      1   0   0     1.090935561831     0.00000000     0.00000000
 H      1   2   0     1.130263212095   110.25594243     0.00000000
 H      1   2   3     1.090844230336   109.92944262   238.40372429
 Br     1   2   3     1.987689094018   105.78326276   124.62087728
 F      3   1   2     1.614540896859   153.00490399   298.09984141

---------------------------
INTERNAL COORDINATES (A.U.)
---------------------------
 C      0   0   0     0.000000000000     0.00000000     0.00000000
 H      1   0   0     2.061569441617     0.00000000     0.00000000
 H      1   2   0     2.135887930106   110.25594243     0.00000000
 H      1   2   3     2.061396850104   109.92944262   238.40372429
 Br     1   2   3     3.756188027076   105.78326276   124.62087728
 F      3   1   2     3.051040127079   153.00490399   298.09984141



           ************************************************************
           *        Program running with 8 parallel MPI-processes     *
           *              working on a common directory               *
           ************************************************************
------------------------------------------------------------------------------
                   ___                                                        
                  /   \      - P O W E R E D   B Y -                         
                 /     \                                                     
                 |  |  |   _    _      __       _____    __    __             
                 |  |  |  | |  | |    /  \     |  _  \  |  |  /  |          
                  \  \/   | |  | |   /    \    | | | |  |  | /  /          
                 / \  \   | |__| |  /  /\  \   | |_| |  |  |/  /          
                |  |  |   |  __  | /  /__\  \  |    /   |      \           
                |  |  |   | |  | | |   __   |  |    \   |  |\   \          
                \     /   | |  | | |  |  |  |  | |\  \  |  | \   \       
                 \___/    |_|  |_| |__|  |__|  |_| \__\ |__|  \__/        
                                                                              
                      - O R C A' S   B I G   F R I E N D -                    
                                      &                                       
                       - I N T E G R A L  F E E D E R -                       
                                                                              
 v1 FN, 2020, v2 2021, v3 2022-2024                                           
------------------------------------------------------------------------------


----------------------
SHARK INTEGRAL PACKAGE
----------------------

Number of atoms                             ...      6
Number of basis functions                   ...     94
Number of shells                            ...     42
Maximum angular momentum                    ...      2
Integral batch strategy                     ... SHARK/LIBINT Hybrid
RI-J (if used) integral strategy            ... SPLIT-RIJ (Revised 2003 algorithm where possible)
Printlevel                                  ...      1
Contraction scheme used                     ... SEGMENTED contraction
Prescreening option                         ... SCHWARTZ
   Thresh                                   ... 2.500e-11
   Tcut                                     ... 2.500e-12
   Tpresel                                  ... 2.500e-12 
Coulomb Range Separation                    ... NOT USED
Exchange Range Separation                   ... NOT USED
Multipole approximations                    ... NOT USED
Finite Nucleus Model                        ... NOT USED
CABS basis                                  ... NOT available
Auxiliary Coulomb fitting basis             ... AVAILABLE
   # of basis functions in Aux-J            ...    156
   # of shells in Aux-J                     ...     58
   Maximum angular momentum in Aux-J        ...      4
Auxiliary J/K fitting basis                 ... NOT available
Auxiliary Correlation fitting basis         ... NOT available
Auxiliary 'external' fitting basis          ... NOT available

Checking pre-screening integrals            ... done (  0.0 sec) Dimension = 42
   => SHARK Basis and OBASIS are compatible. Storing Pre-screening
Shell pair information
Shell pair cut-off parameter TPreSel        ...   2.5e-12
Total number of shell pairs                 ...       903
Shell pairs after pre-screening             ...       823
Total number of primitive shell pairs       ...      4124
Primitive shell pairs kept                  ...      2887
          la=0 lb=0:    225 shell pairs
          la=1 lb=0:    281 shell pairs
          la=1 lb=1:    100 shell pairs
          la=2 lb=0:    119 shell pairs
          la=2 lb=1:     79 shell pairs
          la=2 lb=2:     19 shell pairs

Checking whether 4 symmetric matrices of dimension 94 fit in memory
:Max Core in MB      =   4096.00
 MB in use           =      4.47
 MB left             =   4091.53
 MB needed           =      0.14
 Data fit in memory  = YES
Calculating RI/J V-Matrix + Cholesky decomp.... done (  0.0 sec)
Calculating Nuclear repulsion               ... done (  0.0 sec) ENN=    143.107595004100 Eh

Diagonalization of the overlap matrix:
Smallest eigenvalue                        ... 5.402e-03
Time for diagonalization                   ...    0.001 sec
Threshold for overlap eigenvalues          ... 1.000e-07
Number of eigenvalues below threshold      ... 0
Time for construction of square roots      ...    0.001 sec
Total time needed                          ...    0.003 sec

-------------------
DFT GRID GENERATION
-------------------

General Integration Accuracy     IntAcc      ... 4.388
Radial Grid Type                 RadialGrid  ... OptM3 with GC (2021)
Angular Grid (max. ang.)         AngularGrid ... 4 (Lebedev-302)
Angular grid pruning method      GridPruning ... 4 (adaptive)
Weight generation scheme         WeightScheme... mBecke (2022)
Basis function cutoff            BFCut       ... 1.0000e-11
Integration weight cutoff        WCut        ... 1.0000e-14
Partially contracted basis set               ... off
Rotationally invariant grid construction     ... off
Angular grids for H and He will be reduced by one unit
Core-polarized basis detected: some atoms will have their core
                               angular grid increased.

Total number of grid points                  ...    33365
Total number of batches                      ...      524
Average number of points per batch           ...       63
Average number of grid points per atom       ...     5561
Grids setup in   0.5 sec
Initializing property integral containers    ... done (  0.0 sec)

SHARK setup successfully completed in   0.6 seconds

Maximum memory used throughout the entire STARTUP-calculation: 13.3 MB


           ************************************************************
           *        Program running with 8 parallel MPI-processes     *
           *              working on a common directory               *
           ************************************************************
Occupation numbers will be reassigned to an Aufbau configuration
             **** ENERGY FILE WAS UPDATED (reactant_optfreq.en.tmp) ****
Finished Guess after   0.6 sec
Maximum memory used throughout the entire GUESS-calculation: 6.9 MB


           ************************************************************
           *        Program running with 8 parallel MPI-processes     *
           *              working on a common directory               *
           ************************************************************
----------------------------------------D-I-I-S--------------------------------------------
Iteration    Energy (Eh)           Delta-E    RMSDP     MaxDP     DIISErr   Damp  Time(sec)
-------------------------------------------------------------------------------------------
               ***  Starting incremental Fock matrix formation  ***
    1    -2713.9032401741669673     0.00e+00  3.48e-04  1.65e-03  7.98e-03  0.700   0.5
    2    -2713.9033536166293743    -1.13e-04  3.29e-04  1.52e-03  5.11e-03  0.700   0.5
                               ***Turning on AO-DIIS***
                              *** Initializing SOSCF ***
---------------------------------------S-O-S-C-F--------------------------------------
Iteration    Energy (Eh)           Delta-E    RMSDP     MaxDP     MaxGrad    Time(sec)
--------------------------------------------------------------------------------------
    3    -2713.9034296196878131    -7.60e-05  8.61e-04  4.13e-03  3.05e-03     0.2
               *** Restarting incremental Fock matrix formation ***
    4    -2713.9036020752450895    -1.72e-04  2.56e-04  1.04e-03  4.79e-04     0.3
    5    -2713.9035963296691989     5.75e-06  1.78e-04  8.82e-04  9.01e-04     0.5
    6    -2713.9036055759520423    -9.25e-06  5.44e-05  2.35e-04  8.65e-05     0.2
    7    -2713.9036054372481885     1.39e-07  2.95e-05  1.10e-04  1.41e-04     0.3
    8    -2713.9036056753498087    -2.38e-07  7.49e-06  3.52e-05  1.75e-05     0.3
    9    -2713.9036056775003090    -2.15e-09  2.95e-06  1.41e-05  1.12e-05     0.5
                 **** Energy Check signals convergence ****

               *****************************************************
               *                     SUCCESS                       *
               *           SCF CONVERGED AFTER   9 CYCLES          *
               *****************************************************

             **** ENERGY FILE WAS UPDATED (reactant_optfreq.en.tmp) ****

----------------
TOTAL SCF ENERGY
----------------

Total Energy       :      -2713.90360567976768 Eh          -73849.07152 eV

Components:
Nuclear Repulsion  :        143.10759500410001 Eh            3894.15564 eV
Electronic Energy  :      -2857.01120068386717 Eh          -77743.22716 eV
One Electron Energy:      -4071.61683449786642 Eh         -110794.32674 eV
Two Electron Energy:       1214.60563381399902 Eh           33051.09958 eV

Virial components:
Potential Energy   :      -5423.92188362975685 Eh         -147592.41791 eV
Kinetic Energy     :       2710.01827794998871 Eh           73743.34638 eV
Virial Ratio       :          2.00143369059958

DFT components:
N(Alpha)           :       26.999994369296 electrons
N(Beta)            :       26.999994369296 electrons
N(Total)           :       53.999988738592 electrons
E(X)               :     -106.151964366485 Eh       
E(C)               :       -2.327695053926 Eh       
E(XC)              :     -108.479659420411 Eh       

---------------
SCF CONVERGENCE
---------------

  Last Energy change         ...    2.1505e-09  Tolerance :   1.0000e-08
  Last MAX-Density change    ...    1.4084e-05  Tolerance :   1.0000e-07
  Last RMS-Density change    ...    2.9471e-06  Tolerance :   5.0000e-09
  Last DIIS Error            ...    3.0459e-03  Tolerance :   5.0000e-07
  Last Orbital Gradient      ...    1.1156e-05  Tolerance :   1.0000e-05
  Last Orbital Rotation      ...    1.5046e-05  Tolerance :   1.0000e-05


Total SCF time: 0 days 0 hours 0 min 4 sec 
Finished LeanSCF after   4.7 sec

Maximum memory used throughout the entire LEANSCF-calculation: 6.5 MB


           ************************************************************
           *        Program running with 8 parallel MPI-processes     *
           *              working on a common directory               *
           ************************************************************

------------------------------------------------------------------------------
                         ORCA PROPERTY INTEGRAL CALCULATIONS
------------------------------------------------------------------------------

GBWName                                   ... reactant_optfreq.gbw
Number of atoms                           ...      6
Number of basis functions                 ...     94
Max core memory                           ...   4096 MB

Dipole integrals                          ... YES
Quadrupole integrals                      ...  NO
Linear momentum integrals                 ...  NO
Angular momentum integrals                ...  NO
Higher moments length integrals           ...  NO
Higher moments velocity integrals         ...  NO
Kinetic energy integrals                  ...  NO
GIAO right hand sides                     ...  NO
GIAO dipole derivative integrals          ...  NO
SOC integrals                             ...  NO
EPR diamagnetic integrals (GIAO)          ...  NO
EPR gauge integrals                       ...  NO
Field gradient integrals                  ...  NO (   0 nuclei)
Spin-dipole/Fermi contact integrals       ...  NO (   0 nuclei)
Contact density integrals                 ...  NO (   0 nuclei)
Nucleus-orbit integrals                   ...  NO (   0 nuclei)
Geometric perturbations                   ...  NO (   6 nuclei)

Choice of electric origin   ... Center of mass
Position of electric origin ... (  0.5729, -0.3273,  2.1757) 
Choice of magnetic origin   ... GIAO
Position of magnetic origin ... (  0.0000,  0.0000,  0.0000) 

Calculating integrals                     ... Electric Dipole (Length)     done (  0.0 sec)

Property integrals calculated in   0.0 sec

Maximum memory used throughout the entire PROPINT-calculation: 7.0 MB


-------------------------------------------------------------------------------
                          DFT DISPERSION CORRECTION                            
                                                                               
                                DFTD4 V3.4.0                                   
-------------------------------------------------------------------------------
-------------------------   ----------------
Dispersion correction           -0.000859320
-------------------------   ----------------

------------------   -----------------
gCP correction             0.004532967
------------------   -----------------

-------------------------   --------------------
FINAL SINGLE POINT ENERGY     -2713.899932032893
-------------------------   --------------------



           ************************************************************
           *        Program running with 8 parallel MPI-processes     *
           *              working on a common directory               *
           ************************************************************
------------------------------------------------------------------------------
                         ORCA SCF GRADIENT CALCULATION
------------------------------------------------------------------------------

Nuc. rep. gradient        (SHARK) ... done (  0.0 sec)
HCore & Overlap gradient  (SHARK) ... done (  0.1 sec)
Split-RIJ-J gradient      (SHARK) ... done (  0.7 sec)
XC gradient                       ... done (  0.2 sec)
Dispersion correction             ... done (  0.1 sec)

-------------------
DISPERSION GRADIENT
-------------------

   1   C   :   -0.000007146    0.000004154   -0.000003693
   2   H   :   -0.000001334    0.000000686    0.000003326
   3   H   :   -0.000000786    0.000000411   -0.000002366
   4   H   :   -0.000001223    0.000000815    0.000003285
   5   Br  :    0.000002024   -0.000001180    0.000042382
   6   F   :    0.000008465   -0.000004885   -0.000042934

Difference to translation invariance:
           :    0.0000000000    0.0000000000    0.0000000000

Difference to rotation invariance:
           :    0.0000000000    0.0000000000   -0.0000000000

Norm of the Dispersion gradient    ...    0.0000620901
RMS gradient                       ...    0.0000146348
MAX gradient                       ...    0.0000429340
gCP correction                   ... done

------------------
CARTESIAN GRADIENT
------------------

   1   C   :    0.005345073   -0.003183645    0.008194466
   2   H   :   -0.000139421   -0.000307719   -0.001920245
   3   H   :   -0.003289791    0.002103104    0.005529737
   4   H   :    0.000196461    0.000303418   -0.001935465
   5   Br  :   -0.002373199    0.001358173   -0.007111072
   6   F   :    0.000260878   -0.000273331   -0.002757421

Difference to translation invariance:
           :    0.0000000000   -0.0000000000    0.0000000002

Difference to rotation invariance:
           :    0.0000140413    0.0000360246   -0.0000012584

Norm of the Cartesian gradient     ...    0.0150048919
RMS gradient                       ...    0.0035366869
MAX gradient                       ...    0.0081944663

-------
TIMINGS
-------

Total SCF gradient time     ....        1.097 sec

Densities                   ....       0.000 sec  (  0.0%)
One electron gradient       ....       0.068 sec  (  6.2%)
RI-J Coulomb gradient       ....       0.725 sec  ( 66.1%)
XC gradient                 ....       0.209 sec  ( 19.0%)

Maximum memory used throughout the entire SCFGRAD-calculation: 26.7 MB
------------------------------------------------------------------------------
                         ORCA GEOMETRY RELAXATION STEP
------------------------------------------------------------------------------

Reading the OPT-File                    .... done
Getting information on internals        .... done
Copying old internal coords+grads       .... done
Making the new internal coordinates     .... (2022 redundants) done
Validating the new internal coordinates .... (2022 redundants) done
Calculating the B-matrix                .... done
Calculating the G,G- and P matrices     .... done
Transforming gradient to internals      .... done
Projecting the internal gradient        .... done
Number of atoms                         ....   6
Number of internal coordinates          ....  15
Current Energy                          .... -2713.899932033 Eh
Current gradient norm                   ....     0.015004892 Eh/bohr
Maximum allowed component of the step   ....  0.300
Current trust radius                    ....  0.300
Updating the Hessian (BFGS)             .... done
Forming the augmented Hessian           .... done
Diagonalizing the augmented Hessian     .... done
Last element of RFO vector              ....  0.982582576
Lowest eigenvalues of augmented Hessian:
 -0.001314642  0.025189335  0.095622093  0.167126617  0.205782185
Length of the computed step             ....  0.189120473
The final length of the internal step   ....  0.189120473
Converting the step to Cartesian space:
 Initial RMS(Int)=    0.0488306960
Transforming coordinates:
 Iter   0:  RMS(Cart)=    0.0324517483 RMS(Int)=    0.0488182971
done
Storing new coordinates                 .... done
The predicted energy change is          ....    -0.000680831
Previously predicted energy change      ....    -0.000827559
Actually observed energy change         ....    -0.001242542
Ratio of predicted to observed change   ....     1.501454285
New trust radius                        ....     0.200000000

                                .--------------------.
          ----------------------|Geometry convergence|-------------------------
          Item                value                   Tolerance       Converged
          ---------------------------------------------------------------------
          Energy change      -0.0012425416            0.0000050000      NO
          RMS gradient        0.0026171177            0.0001000000      NO
          MAX gradient        0.0076039784            0.0003000000      NO
          RMS step            0.0488306960            0.0020000000      NO
          MAX step            0.1674240209            0.0040000000      NO
          -------------------------------------------------------------------------
          ........................................................
          Max(Bonds)      0.0886      Max(Angles)    0.88
          Max(Dihed)        0.67      Max(Improp)    0.00
          ---------------------------------------------------------------------

The optimization has not yet converged - more geometry cycles are needed


    ---------------------------------------------------------------------------
                         Redundant Internal Coordinates
                            (Angstroem and degrees)

        Definition                    Value    dE/dq     Step     New-Value
    ----------------------------------------------------------------------------
     1. B(H   1,C   0)                1.0909 -0.000229  0.0016    1.0925   
     2. B(H   2,C   0)                1.1303 -0.004406  0.0177    1.1480   
[...]
Rotational constants in MHz :         26514.771708          1882.865626          1777.915072 

Dipole components along the rotational axes: 
x,y,z [a.u.] :     3.372876     0.669268     0.000079 
x,y,z [Debye]:     8.573170     1.701143     0.000202 

 

Dipole moment calculation done in   0.0 sec 

-----------
SCF HESSIAN
-----------

Occupied/Occupied contributions to the Hessian:
   => Occupied/Occupied contributions              ... done (  0.0 sec)
Perturbed density contributions to the Hessian:
   => Perturbed density contributions              ... done (  0.0 sec)
Explicit contributions to the Hessian:
   => Nuclear repulsion Hessian                    ... done (  0.0 sec)
   => HCore and overlap Hessian                    ... done (  0.4 sec)
   => RI-J Hessian                                 ... done (  1.4 sec)
   => XC-Hessian                                   ... done (  3.7 sec)
   => Van der Waals-Hessian                        ... done (  0.8 sec)
   => GCP-Hessian                                  ... done (  0.0 sec)
   => Explicit contributions done
Dipole derivatives                                 ... done (  0.0 sec)
Mass weighting the Hessian           ... done
Calculating normal modes             ... done
Scaling frequencies                  ... done

-----------------------
VIBRATIONAL FREQUENCIES
-----------------------

Scaling factor for frequencies =  1.000000000  (already applied!)

     0:       0.00 cm**-1
     1:       0.00 cm**-1
     2:       0.00 cm**-1
     3:       0.00 cm**-1
     4:       0.00 cm**-1
     5:       0.00 cm**-1
     6:      83.45 cm**-1
     7:     328.94 cm**-1
     8:     334.68 cm**-1
     9:     485.28 cm**-1
    10:     928.17 cm**-1
    11:    1000.94 cm**-1
    12:    1341.05 cm**-1
    13:    1441.88 cm**-1
    14:    1511.80 cm**-1
    15:    1936.82 cm**-1
    16:    3055.77 cm**-1
    17:    3133.67 cm**-1


------------
NORMAL MODES
------------

These modes are the Cartesian displacements weighted by the diagonal matrix
M(i,i)=1/sqrt(m[i]) where m[i] is the mass of the displaced atom
Thus, these vectors are normalized but *not* orthogonal

                  0          1          2          3          4          5    
      0       0.000000   0.000000   0.000000   0.000000   0.000000   0.000000
      1       0.000000   0.000000   0.000000   0.000000   0.000000   0.000000
      2       0.000000   0.000000   0.000000   0.000000   0.000000   0.000000
      3       0.000000   0.000000   0.000000   0.000000   0.000000   0.000000
      4       0.000000   0.000000   0.000000   0.000000   0.000000   0.000000
      5       0.000000   0.000000   0.000000   0.000000   0.000000   0.000000
      6       0.000000   0.000000   0.000000   0.000000   0.000000   0.000000
      7       0.000000   0.000000   0.000000   0.000000   0.000000   0.000000
      8       0.000000   0.000000   0.000000   0.000000   0.000000   0.000000
      9       0.000000   0.000000   0.000000   0.000000   0.000000   0.000000
     10       0.000000   0.000000   0.000000   0.000000   0.000000   0.000000
     11       0.000000   0.000000   0.000000   0.000000   0.000000   0.000000
     12       0.000000   0.000000   0.000000   0.000000   0.000000   0.000000
     13       0.000000   0.000000   0.000000   0.000000   0.000000   0.000000
     14       0.000000   0.000000   0.000000   0.000000   0.000000   0.000000
     15       0.000000   0.000000   0.000000   0.000000   0.000000   0.000000
     16       0.000000   0.000000   0.000000   0.000000   0.000000   0.000000
     17       0.000000   0.000000   0.000000   0.000000   0.000000   0.000000
                  6          7          8          9         10         11    
      0       0.335007  -0.334611   0.052942   0.224826  -0.055165   0.037652
      1      -0.192721   0.185228   0.100198  -0.129882   0.030987   0.066292
      2      -0.137128   0.172926   0.001965   0.537265   0.016811   0.000327
      3       0.328593  -0.256744  -0.554630   0.200016   0.060099  -0.300004
      4      -0.188891   0.180459   0.029443  -0.123210   0.058983   0.076365
      5      -0.271333   0.257674   0.280444   0.252123  -0.526696  -0.617870
      6       0.344488  -0.409866   0.228495   0.084373   0.227167  -0.101743
      7      -0.199256   0.207592   0.408853  -0.048601  -0.128831  -0.179555
      8      -0.060332   0.280972   0.004454   0.621185   0.596617   0.001293
      9       0.327888  -0.317813   0.301490   0.206252  -0.021396   0.216702
     10      -0.186831   0.180126  -0.459873  -0.109145  -0.077930  -0.222739
     11      -0.269033   0.286188  -0.276221   0.252212  -0.529411   0.614284
     12      -0.034928   0.020557  -0.002924  -0.042197   0.007195  -0.003836
     13       0.020002  -0.011455  -0.005558   0.024326  -0.004087  -0.006751
     14       0.134388   0.042439   0.000476  -0.083591   0.001378  -0.000020
     15      -0.118011   0.177326  -0.019866   0.009295  -0.009489   0.002149
     16       0.068226  -0.099077  -0.038826  -0.005284   0.005437   0.003774
     17      -0.446631  -0.331579  -0.003705  -0.047832   0.007955   0.000001
                 12         13         14         15         16         17    
      0       0.043622  -0.043661   0.032878   0.061702  -0.057683  -0.047725
      1      -0.024823   0.024851   0.058598  -0.034855   0.033577  -0.082674
      2       0.090839   0.045680   0.000255  -0.067950   0.009877  -0.000147
      3      -0.388165   0.577880  -0.160877  -0.039132   0.036065  -0.065927
      4      -0.007605   0.073932   0.003179  -0.081776  -0.706231   0.694534
      5      -0.417237  -0.172393   0.278406  -0.000886  -0.041444   0.052056
      6      -0.257108  -0.317846  -0.436806  -0.739538   0.027513  -0.012221
      7       0.144922   0.182175  -0.772994   0.417702  -0.015449  -0.021513
      8      -0.501716  -0.350986  -0.000508   0.502532  -0.041717  -0.000082
      9      -0.188495   0.229360   0.085430   0.050992   0.620143   0.639387
     10       0.338645  -0.534686  -0.138765   0.074105   0.323826   0.299154
     11      -0.418698  -0.174161  -0.277686  -0.002227  -0.038609  -0.050328
     12       0.002630  -0.000518   0.000342  -0.000238   0.000057   0.000059
     13      -0.001512   0.000297   0.000595   0.000133  -0.000034   0.000101
     14       0.003692   0.001385  -0.000023   0.001390   0.000013   0.000001
     15       0.005600   0.003816   0.004953   0.000602  -0.000049   0.000149
     16      -0.003199  -0.002179   0.008660  -0.000279   0.000025   0.000261
     17      -0.001986   0.002305  -0.000077   0.010614   0.000161  -0.000000


-----------
IR SPECTRUM
-----------

 Mode   freq       eps      Int      T**2         TX        TY        TZ
       cm**-1   L/(mol*cm) km/mol    a.u.
----------------------------------------------------------------------------
  6:     83.45   0.002331   11.78  0.008716  ( 0.020785 -0.012034  0.090217)
  7:    328.94   0.044799  226.40  0.042501  (-0.071029  0.040663  0.189215)
  8:    334.68   0.000041    0.21  0.000038  (-0.000640  0.003083  0.005292)
  9:    485.28   0.040353  203.93  0.025949  (-0.007012  0.003970  0.160885)
 10:    928.17   0.040969  207.04  0.013774  (-0.019453  0.011245  0.115193)
 11:   1000.94   0.000647    3.27  0.000202  (-0.007007 -0.012356  0.000089)
 12:   1341.05   0.018399   92.98  0.004281  ( 0.039698 -0.022877 -0.046712)
 13:   1441.88   0.010159   51.34  0.002199  ( 0.021150 -0.012109 -0.040059)
 14:   1511.80   0.003004   15.18  0.000620  (-0.012097 -0.021746 -0.000890)
 15:   1936.82   0.293818  1484.84  0.047340  (-0.072750  0.041579  0.200796)
 16:   3055.77   0.005607   28.33  0.000573  (-0.016616  0.009732 -0.014203)
 17:   3133.67   0.004813   24.32  0.000479  (-0.010874 -0.019002  0.000005)

* The epsilon (eps) is given for a Dirac delta lineshape.
** The dipole moment derivative (T) already includes vibrational overlap.

The first frequency considered to be a vibration is 6
The total number of vibrations considered is 12


--------------------------
THERMOCHEMISTRY AT 298.15K
--------------------------

Temperature         ...   298.15 K
Pressure            ...     1.00 atm
Total Mass          ...   113.93 AMU
Quasi RRHO          ...     True
Cut-Off Frequency   ...     1.00 cm^-1

Throughout the following assumptions are being made:
  (1) The electronic state is orbitally nondegenerate
  (2) There are no thermally accessible electronically excited states
  (3) Hindered rotations indicated by low frequency modes are not
      treated as such but are treated as vibrations and this may
      cause some error
  (4) All equations used are the standard statistical mechanics
      equations for an ideal gas
  (5) All vibrations are strictly harmonic

freq.      83.45  E(vib)   ...       0.48 
freq.     328.94  E(vib)   ...       0.24 
freq.     334.68  E(vib)   ...       0.24 
freq.     485.28  E(vib)   ...       0.15 
freq.     928.17  E(vib)   ...       0.03 
freq.    1000.94  E(vib)   ...       0.02 
freq.    1341.05  E(vib)   ...       0.01 
freq.    1441.88  E(vib)   ...       0.00 
freq.    1511.80  E(vib)   ...       0.00 
freq.    1936.82  E(vib)   ...       0.00 
freq.    3055.77  E(vib)   ...       0.00 
freq.    3133.67  E(vib)   ...       0.00 

------------
INNER ENERGY
------------

The inner energy is: U= E(el) + E(ZPE) + E(vib) + E(rot) + E(trans)
    E(el)   - is the total energy from the electronic structure calculation
              = E(kin-el) + E(nuc-el) + E(el-el) + E(nuc-nuc)
    E(ZPE)  - the the zero temperature vibrational energy from the frequency calculation
    E(vib)  - the the finite temperature correction to E(ZPE) due to population
              of excited vibrational states
    E(rot)  - is the rotational thermal energy
    E(trans)- is the translational thermal energy

Summary of contributions to the inner energy U:
Electronic energy                ...  -2713.90129453 Eh
Zero point energy                ...      0.03549946 Eh      22.28 kcal/mol
Thermal vibrational correction   ...      0.00187229 Eh       1.17 kcal/mol
Thermal rotational correction    ...      0.00141627 Eh       0.89 kcal/mol
Thermal translational correction ...      0.00141627 Eh       0.89 kcal/mol
-----------------------------------------------------------------------
Total thermal energy                  -2713.86109024 Eh


Summary of corrections to the electronic energy:
(perhaps to be used in another calculation)
Total thermal correction                  0.00470483 Eh       2.95 kcal/mol
Non-thermal (ZPE) correction              0.03549946 Eh      22.28 kcal/mol
-----------------------------------------------------------------------
Total correction                          0.04020429 Eh      25.23 kcal/mol


--------
ENTHALPY
--------

The enthalpy is H = U + kB*T
                kB is Boltzmann's constant
Total thermal energy              ...  -2713.86109024 Eh 
Thermal Enthalpy correction       ...      0.00094421 Eh       0.59 kcal/mol
-----------------------------------------------------------------------
Total Enthalpy                    ...  -2713.86014603 Eh


Note: Only C1 symmetry has been detected, increase convergence thresholds 
      if your molecule has a higher symmetry. Symmetry factor of 1.0 is   
      used for the rotational entropy correction. 
 

Note: Rotational entropy computed according to Herzberg 
Infrared and Raman Spectra, Chapter V,1, Van Nostrand Reinhold, 1945 
Point Group:  C1, Symmetry Number:   1  
Rotational constants in cm-1:     0.884438     0.062806     0.059305 

Vibrational entropy computed according to the QRRHO of S. Grimme
Chem.Eur.J. 2012 18 9955 using a reference frequency of 100.0 cm-1


-------
ENTROPY
-------

The entropy contributions are T*S = T*(S(el)+S(vib)+S(rot)+S(trans))
     S(el)   - electronic entropy
     S(vib)  - vibrational entropy
     S(rot)  - rotational entropy
     S(trans)- translational entropy
The entropies will be listed as multiplied by the temperature to get
units of energy

Electronic entropy                ...      0.00000000 Eh      0.00 kcal/mol
Vibrational entropy               ...      0.00321308 Eh      2.02 kcal/mol
Rotational entropy                ...      0.01220908 Eh      7.66 kcal/mol
Translational entropy             ...      0.01905598 Eh     11.96 kcal/mol
-----------------------------------------------------------------------
Final entropy term                ...      0.03447814 Eh     21.64 kcal/mol

In case the symmetry of your molecule has not been determined correctly
or in case you have a reason to use a different symmetry number we print 
out the resulting rotational entropy values for sn=1,12:

 non-linear molecules -----------------------------------
|  sn= 1 | S(rot)=       0.01220908 Eh      7.66 kcal/mol|
|  sn= 2 | S(rot)=       0.01155462 Eh      7.25 kcal/mol|
|  sn= 3 | S(rot)=       0.01117179 Eh      7.01 kcal/mol|
|  sn= 4 | S(rot)=       0.01090017 Eh      6.84 kcal/mol|
|  sn= 5 | S(rot)=       0.01068948 Eh      6.71 kcal/mol|
|  sn= 6 | S(rot)=       0.01051733 Eh      6.60 kcal/mol|
|  sn= 7 | S(rot)=       0.01037179 Eh      6.51 kcal/mol|
|  sn= 8 | S(rot)=       0.01024571 Eh      6.43 kcal/mol|
|  sn= 9 | S(rot)=       0.01013450 Eh      6.36 kcal/mol|
|  sn=10 | S(rot)=       0.01003502 Eh      6.30 kcal/mol|
|  sn=11 | S(rot)=       0.00994503 Eh      6.24 kcal/mol|
|  sn=12 | S(rot)=       0.00986288 Eh      6.19 kcal/mol|
 linear molecules ---------------------------------------
|  Dinfh | S(rot)=       0.00799318 Eh      5.02 kcal/mol|
|  Cinfv | S(rot)=       0.00864763 Eh      5.43 kcal/mol|
 --------------------------------------------------------


-------------------
GIBBS FREE ENERGY
-------------------

The Gibbs free energy is G = H - T*S

Total enthalpy                    ...  -2713.86014603 Eh 
Total entropy correction          ...     -0.03447814 Eh    -21.64 kcal/mol
-----------------------------------------------------------------------
Final Gibbs free energy         ...  -2713.89462418 Eh

For completeness - the Gibbs free energy minus the electronic energy
G-E(el)                           ...      0.00667035 Eh      4.19 kcal/mol


Maximum memory used throughout the entire PROP-calculation: 30.9 MB

--------------------------------
SUGGESTED CITATIONS FOR THIS RUN
--------------------------------

Below you find a list of papers that are relevant to this ORCA run
We neither can nor want to force you to cite these papers, but we appreciate if you do
You receive ORCA, which is the product of decades of hard work by many enthusiastic individuals, for free
The only thing we kindly ask in return is that you cite our papers,
We deeply appreciate it, if you show your appreciation for ORCA by not just citing the generic ORCA reference.

Please note that relegating all ORCA citations to the supporting information does *not* help us.
SI sections are not indexed - citations you put there will not count into any citation statistics
But we need these citations in order to attract the funding resources that allow us to do what we are doing

Therefore, if you are a happy ORCA user, please consider citing a few of the papers listed below in the main body of your paper

In addition to the list printed below, the program has created the file reactant_optfreq.bibtex that contains the list in bibtex format
You can import this file easily into all common literature databanks and citation aid programs


List of essential papers. We consider these as the minimum necessary citations

  1. Grimme, S.; Hansen, A.; Ehlert, S.; Mewes, J.
     r2SCAN-3c: A 'Swiss army knife' composite electronic-structure method
     J. Chem. Phys. 2021 154 , 064103
     doi.org/10.1063/5.0040021
  2. Neese, F.
     Software update: the ORCA program system, version 6.0
     WIRES Comput. Molec. Sci. 2025 15(1), e70019
     doi.org/10.1002/wcms.7019

List of papers to cite with high priority. The work reported in these papers was absolutely
necessary for this run to complete.
Our perspective: the developers of density functionals and basis sets usually get cited in chemistry papers
Good! But without the algorithms to do something with them, the functionals or basis sets would not do anything.
Hence, in our opinion, the algorithm design and method developments papers are equally worthy of getting cited

  1. Neese, F.
     An improvement of the resolution of the identity approximation for the formation of the Coulomb matrix
     J. Comp. Chem. 2003 24(14), 1740-1747
     doi.org/10.1002/jcc.10318
  2. Bykov, D.; Petrenko, T.; Izsak, R.; Kossmann, S.; Becker, U.; Valeev, E.; Neese, F.
     Efficient implementation of the analytic second derivatives of Hartree-Fock and hybrid DFT energies: a detailed analysis of different approximations
     Molec. Phys. 2015 113 , 1961-1977
     doi.org/10.1080/00268976.2015.1025114
  3. Caldeweyher, E.; Bannwarth, C.; Grimme, S.
     Extension of the D3 dispersion coefficient model
     J. Chem. Phys. 2017 147 , 034112
     doi.org/10.1063/1.4993215
  4. Lehtola, S.; Steigemann, C.; Oliveira, M.; Marques, M.
     Recent developments in Libxc - A comprehensive library of functionals for density functional theory
     Software X 2018 7 , 
     doi.org/10.1016/j.softx.2017.11.002
  5. Caldeweyher, E.; Ehlert, S.; Hansen, A.; Neugebauer, H.; Spicher, S.; Bannwarth, C.; Grimme, S.
     A generally applicable atomic-charge dependent London dispersion correction
     J. Chem. Phys. 2019 150 , 154122
     doi.org/10.1063/1.5090222
  6. Caldeweyher, E.; Mewes, J.; Ehlert, S.; Grimme, S.
     Extension and evaluation of the D4 London-dispersion model for periodic systems
     Phys. Chem. Chem. Phys. 2020 22(16), 8499-8512
     doi.org/10.1039/D0CP00502A
  7. Neese, F.
     The SHARK Integral Generation and Digestion System
     J. Comp. Chem. 2022 44(3), 381
     doi.org/10.1002/jcc.26942
  8. Wittmann, L.; Gordiy, I.; Friede, M.; Helmich-Paris, B.; Grimme, S.; Hansen, A.; Bursch, M.
     Extension of the D3 and D4 London Dispersion Corrections to the full Actinides Series
     Phys. Chem. Chem. Phys. 2024 26(32), 21379-21394
     doi.org/10.1039/D4CP01514B

List of suggested additional citations. These are papers that are important in the 'surrounding' of 
of this run, or papers that preceded the highly important papers. If you like your results we are grateful for a citation.

  1. Neese, F.
     The ORCA program system
     WIRES Comput. Molec. Sci. 2012 2(1), 73-78
     doi.org/10.1002/wcms.81
  2. Neese, F.
     Software update: the ORCA program system, version 4.0
     WIRES Comput. Molec. Sci. 2018 8(1), 1-6
     doi.org/10.1002/wcms.1327
  3. Neese, F.; Wennmohs, F.; Becker, U.; Riplinger, C.
     The ORCA quantum chemistry program package
     J. Chem. Phys. 2020 152(22), 224108
     doi.org/10.1063/5.0004608
  4. Neese, F.
     Software update: The ORCA program system—Version 5.0
     WIRES Comput. Molec. Sci. 2022 12(1), e1606
     doi.org/10.1002/wcms.1606

List of optional additional citations

  1. Neese, F.
     Approximate second-order SCF convergence for spin unrestricted wavefunctions
     Chem. Phys. Lett. 2000 325(1-3), 93-98
     doi.org/10.1016/s0009-2614(00)00662-x

Timings for individual modules:

Sum of individual times          ...      146.084 sec (=   2.435 min)
Startup calculation              ...       18.511 sec (=   0.309 min)  12.7 %
SCF iterations                   ...       66.250 sec (=   1.104 min)  45.4 %
Property integrals               ...       19.221 sec (=   0.320 min)  13.2 %
SCF Response                     ...        4.990 sec (=   0.083 min)   3.4 %
Property calculations            ...        7.166 sec (=   0.119 min)   4.9 %
SCF Gradient evaluation          ...       29.852 sec (=   0.498 min)  20.4 %
Geometry relaxation              ...        0.095 sec (=   0.002 min)   0.1 %
                             ****ORCA TERMINATED NORMALLY****
TOTAL RUN TIME: 0 days 0 hours 2 minutes 36 seconds 806 msec
