
                                 *****************
                                 * O   R   C   A *
                                 *****************

                                            #,                                       
                                            ###                                      
                                            ####                                     
                                            #####                                    
                                            ######                                   
                                           ########,                                 
                                     ,,################,,,,,                         
                               ,,#################################,,                 
                          ,,##########################################,,             
                       ,#########################################, ''#####,          
                    ,#############################################,,   '####,        
                  ,##################################################,,,,####,       
                ,###########''''           ''''###############################       
              ,#####''   ,,,,##########,,,,          '''####'''          '####       
            ,##' ,,,,###########################,,,                        '##       
           ' ,,###''''                  '''############,,,                           
         ,,##''                                '''############,,,,        ,,,,,,###''
      ,#''                                            '''#######################'''  
     '                                                          ''''####''''         
             ,#######,   #######,   ,#######,      ##                                
            ,#'     '#,  ##    ##  ,#'     '#,    #''#        ,####,    ,#,          
            ##       ##  ##   ,#'  ##            #'  '#       #'       ,# #          
            ##       ##  #######   ##           ,######,      #####,      #          
            '#,     ,#'  ##    ##  '#,     ,#' ,#      #,     #,   #      #          
             '#######'   ##     ##  '#######'  #'      '#     '####' #    #          



                #########################################################
                #                        -***-                          #
                #          Department of theory and spectroscopy        #
                #                                                       #
                #                      Frank Neese                      #
                #                                                       #
                #     Directorship, Architecture, Infrastructure        #
                #                    SHARK, DRIVERS                     #
                #        Core code/Algorithms in most modules           #
                #                                                       #
                #        Max Planck Institute fuer Kohlenforschung      #
                #                Kaiser Wilhelm Platz 1                 #
                #                 D-45470 Muelheim/Ruhr                 #
                #                      Germany                          #
                #                                                       #
                #                  All rights reserved                  #
                #                        -***-                          #
                #########################################################


                         Program Version 6.1.0  -  RELEASE   -
                                (GIT: $679e74b$)
                          ($2025-06-10 18:02:51 +0200$)


 With contributions from (in alphabetic order):
[Max-Planck-Institut fuer Kohlenforschung]                               
  Daniel Aravena         : Magnetic Suceptibility                        
  Michael Atanasov       : Ab Initio Ligand Field Theory (pilot matlab implementation)
  Alexander A. Auer      : GIAO ZORA, VPT2 properties, NMR spectrum      
  Ute Becker             : All parallelization in ORCA, NUMFREQ, NUMCALC 
  Giovanni Bistoni       : ED, misc. LED, open-shell LED, HFLD           
  Dmytro Bykov           : pre 5.0 version of the SCF Hessian            
  Marcos Casanova-Páez   : Triplet and SCS-CIS(D). UHF-(DLPNO)-IP/EA/STEOM-CCSD. UHF-CVS-IP/STEOM-CCSD   
  Vijay G. Chilkuri      : MRCI spin determinant printing, contributions to CSF-ICE 
  Pauline Colinet        : FMM embedding                                 
  Dipayan Datta          : RHF DLPNO-CCSD density                        
  Achintya Kumar Dutta   : EOM-CC, STEOM-CC                              
  Nicolas Foglia         : Exact transition moments, OPA infrastructure, MCD improvements    
  Dmitry Ganyushin       : Spin-Orbit,Spin-Spin,Magnetic field MRCI      
  Miquel Garcia-Rates    : C-PCM and meta-GGA Hessian, CCSD/C-PCM, Gaussian charge scheme 
  Tiago L. C. Gouveia    : GS-ROHF, GS-ROCIS                             
  Yang Guo               : DLPNO-NEVPT2, F12-NEVPT2, CIM, IAO-localization        
  Andreas Hansen         : Spin unrestricted coupled pair/coupled cluster methods 
  Ingolf Harden          : AUTO-CI MPn and infrastructure                
  Benjamin Helmich-Paris : MC-RPA, TRAH-(SCF,CASSCF), AVAS, COSX integrals, SCF dyn. polar., MC-PDFT, srDFT 
  Lee Huntington         : MR-EOM, pCC                                   
  Robert Izsak           : Overlap fitted RIJCOSX, COSX-SCS-MP3, EOM     
  Riya Kayal             : Wick's Theorem for AUTO-CI, AUTO-CI UHF-CCSDT 
  Emily Kempfer          : AUTO-CI RHF CISDT and CCSDT, approximate NEVPT4
  Christian Kollmar      : KDIIS, OOCD, Brueckner-CCSD(T), CCSD density, CASPT2, CASPT2-K, improved NEVPT2 
  Axel Koslowski         : Symmetry handling                             
  Simone Kossmann        : meta-GGA functionals, TD-DFT gradient, OOMP2, (MP2 Hessian; deprecated post 5.0) 
  Lucas Lang             : DCDCAS, Hyperfine gauge corrections, ICE-SOC+SSC
  Marvin Lechner         : AUTO-CI (C++ implementation), FIC-MRCC        
  Spencer Leger          : CASSCF response                               
  Dagmar Lenk            : GEPOL surface, SMD, ORCA-2-JSON               
  Dimitrios Liakos       : Extrapolation schemes; Compound Job, Property file
  Dimitrios Manganas     : Further ROCIS development; embedding schemes. LFT, Crystal Embedding 
  Dimitrios Pantazis     : SARC Basis sets                               
  Anastasios Papadopoulos: AUTO-CI, single reference methods and gradients 
  Taras Petrenko         : pre 6.0 DFT Hessian and TD-DFT gradient,  ECA, NRVS 
  Petra Pikulova         : Analytic Raman intensities                    
  Peter Pinski           : DLPNO-MP2, DLPNO-MP2 Gradient                 
  Shashank Vittal Rao    : ES-AILFT, MagRelax                            
  Christoph Reimann      : Effective Core Potentials                     
  Marius Retegan         : Local ZFS, SOC                                
  Christoph Riplinger    : Optimizer, TS searches, QM/MM, DLPNO-CCSD(T), (RO)-DLPNO pert. Triples 
  Michael Roemelt        : Original ROCIS implementation, recursive CI coupling coefficients
  Masaaki Saitow         : Open-shell DLPNO-CCSD energy and density      
  Barbara Sandhoefer     : DKH picture change effects                    
  Yorick L. A. Schmerwitz: GMF and freeze-and-release deltaSCF, NEB S-IDPP initial path                    
  Kantharuban Sivalingam : CASSCF convergence/infrastructure, NEVPT2, NEVPT3, NEVPT4(SD), FIC-MRCI and CEPA variants
  Bernardo de Souza      : ESD, SOC TD-DFT                               
  Georgi L. Stoychev     : AutoAux, RI-MP2 NMR, DLPNO-MP2 response, X2C  
  Van Anh Tran           : RI-MP2 g-tensors                              
  Willem Van den Heuvel  : Paramagnetic NMR                              
  Zikuan Wang            : NOTCH, Electric field optimization            
  Frank Wennmohs         : Technical directorship and infrastructure     
  Hang Xu                : AUTO-CI-Response properties                   
                                                                         
[FACCTs GmbH]                                                            
  Markus Bursch, Nicolas Foglia, Miquel Garcia-Rates, Ingolf Harden, Hagen Neugebauer, Anastasios Papadopoulos, 
  Christoph Riplinger, Bernardo de Souza, Georgi L. Stoychev                                                    
                                                                 
  APM, various basis sets, CI-OPT, improved COSX, DLPNO-Multilevel,           
  DOCKER, DRACO, updates on ESD, Fragmentator, GOAT, IRC, LR-CPCM, L-BFGS, MBIS, meta-GGA TD-DFT gradient, ML-optimized integration grids, 
  MM, NACMEs, nearIR, NEB, NEB-TS, NL-DFT gradient (VV10), 2- and 3-layer-ONIOM, interface openCOSMO-RS, QMMM,   
  Crystal-QMMM, RESP, rigid body optimization, SF, symmetry and pop. for TD-DFT, various functionals, SOLVATOR                                   
                                                                         
[Other institutions]                                                     
  V. Asgeirsson          : NEB                                           
  Christoph Bannwarth    : sTDA-DFT, sTD-DFT, PBEh-3c, B97-3c, D3        
  Giovanni Bistoni       : ETS/NOCV, ADLD/ADEX, COVALED                  
  Martin Brehm           : Molecular dynamics                            
  Ronald Cardenas        : ETS/NOCV                                      
  Martina Colucci        : COVALED                                       
  Sebastian Ehlert       : rSCAN, r2SCAN, r2SCAN-3c, D4, dhf basis sets  
  Marvin Friede          : D4 for Fr, Ra, Ac-Lr                          
  Lars Goerigk           : TD-DFT with DH, B97 family of functionals     
  Stefan Grimme          : VdW corrections, initial TS optimization, DFT functionals, gCP, sTDA/sTD-DF 
  Waldemar Hujo          : DFT-NL                                        
  H. Jonsson             : NEB                                           
  Holger Kruse           : gCP                                           
  Marcel Mueller         : wB97X-3c, vDZP basis set                      
  Hagen Neugebauer       : wr2SCAN, Native XTB                           
  Gianluca Regni         : ADLD/ADEX                                     
  Tobias Risthaus        : pre 6.0 range-separated hybrid DFT and stability analysis
  Lukas Wittmann         : regularized MP2, r2SCAN double-hybrids, wr2SCAN        
                                                                         
We gratefully acknowledge several colleagues who have allowed us to      
interface, adapt or use parts of their codes:                            
  Ed Valeev, F. Pavosevic, A. Kumar             : LibInt (2-el integral package), F12 methods 
  Garnet Chan, S. Sharma, J. Yang, R. Olivares  : DMRG                   
  Ulf Ekstrom                                   : XCFun DFT Library      
  Mihaly Kallay                                 : mrcc  (arbitrary order and MRCC methods)
  Frank Weinhold                                : gennbo (NPA and NBO analysis)           
  Simon Mueller                                 : openCOSMO-RS                            
  Christopher J. Cramer and Donald G. Truhlar   : smd solvation model                     
  S Lehtola, MJT Oliveira, MAL Marques          : LibXC Library                           
  Liviu Ungur et al                             : ANISO software                          


 Your calculation uses the libint2 library for the computation of 2-el integrals
 For citations please refer to: http://libint.valeyev.net

 Your ORCA version has been built with support for libXC version: 7.0.0
 For citations please refer to: https://libxc.gitlab.io

 This ORCA versions uses:
   CBLAS   interface :  Fast vector & matrix operations
   LAPACKE interface :  Fast linear algebra routines
   SCALAPACK package :  Parallel linear algebra routines
   Shared memory     :  Shared parallel matrices
   BLAS/LAPACK       :  OpenBLAS 0.3.29  USE64BITINT DYNAMIC_ARCH NO_AFFINITY SkylakeX SINGLE_THREADED
        Core in use  :  SkylakeX
   Copyright (c) 2011-2014, The OpenBLAS Project


  ***********************************
  * Starting time: Thu Mar 12 13:22:53 2026
  * Host name:     midway3-login4.rcc.local
  * Process ID:    3056067
  * Working dir.:  /home/rzhu16/orca_TS_search/sn2_br_f/DFT_test
  ***********************************

Your calculation utilizes the geometrical counterpoise correction gCP
Please cite in your paper:
H.Kruse, S. Grimme J.Chem.Phys., 136, (2012), 154101 
   

Your calculation utilizes the atom-pairwise dispersion correction
based on EEQ partial charges (D4)


================================================================================

----- Orbital basis set information -----
Your calculation utilizes the basis: def2-mTZVPP
   Stefan Grimme, Andreas Hansen, Sebastian Ehlert, and Jan-Michael Mewes 
   J. Chem. Phys. 154, 064103 (2021). DOI: 10.1063/5.0040021

----- AuxJ basis set information -----
Your calculation utilizes the basis: def2-mTZVPP/J
   Stefan Grimme, Andreas Hansen, Sebastian Ehlert, and Jan-Michael Mewes 
   J. Chem. Phys. 154, 000000 (2021). DOI: 10.1063/5.0040021

================================================================================
                                        WARNINGS
                       Please study these warnings very carefully!
================================================================================



WARNING: SCAN, rSCAN, or r2SCAN functional requested.
  ===> : libXC variant has now been activated.



WARNING: Geometry Optimization
  ===> : Switching off AutoStart
         For restart on a previous wavefunction, please use MOREAD

================================================================================
                                       INPUT FILE
================================================================================
NAME = ts_optfreq.inp
|  1> ! r2SCAN-3c OptTS Freq PAL8 SOSCF TightSCF
|  2> 
|  3> %pal
|  4>    nprocs 8
|  5> end
|  6> 
|  7> %scf
|  8>    MaxIter 150
|  9> end
| 10> 
| 11> %geom
| 12>   Calc_Hess true
| 13>   Recalc_Hess 5
| 14> end
| 15> 
| 16> * xyz -1 1
| 17>   C          -0.13491579283557      0.07788993835694      0.24303820010253
| 18>   H          -0.20834985197402      1.14844771877313      0.08592707525114
| 19>   H           0.61219866181706     -0.35344852328472     -0.42342627830764
| 20>   H          -1.09875413324463     -0.39381334616118      0.08593256011404
| 21>   Br          0.30297483970415     -0.17491303166467      2.15701435974265
| 22>   F           0.52684627653301     -0.30416275601949     -2.23320591690271
| 23> *
| 24> 
| 25>                          ****END OF INPUT****
================================================================================

                       *****************************
                       * Geometry Optimization Run *
                       *****************************

Geometry optimization settings:
Update method            Update   .... Bofill
Choice of coordinates    CoordSys .... (2022) Redundant Internals
Initial Hessian          InHess   .... Almloef's Model
Max. no of cycles        MaxIter  .... 50

Convergence Tolerances:
Energy Change            TolE     ....  5.0000e-06 Eh
Max. Gradient            TolMAXG  ....  3.0000e-04 Eh/bohr
RMS Gradient             TolRMSG  ....  1.0000e-04 Eh/bohr
Max. Displacement        TolMAXD  ....  4.0000e-03 bohr
RMS Displacement         TolRMSD  ....  2.0000e-03 bohr
Strict Convergence                .... False

------------------------------------------------------------------------------
                        ORCA OPTIMIZATION COORDINATE SETUP
------------------------------------------------------------------------------

The optimization will be done in redundant internal coordinates (2022)
Making redundant internal coordinates   ...  (2022 redundants) done
Following TS mode number                ...     0
Evaluating the initial hessian          ...  (Is done on the fly) done
Evaluating the coordinates              ...  done
Calculating the B-matrix                .... done
Calculating the G-matrix                .... done
The number of degrees of freedom        ....   15

    -----------------------------------------------------------------
                    Redundant Internal Coordinates


    -----------------------------------------------------------------
         Definition                    Initial Value    d2E/dq (diagonal element)
    -----------------------------------------------------------------
      1. B(H   1,C   0)                  1.0845         0.000000   
      2. B(H   2,C   0)                  1.0901         0.000000   
      3. B(H   3,C   0)                  1.0845         0.000000   
      4. B(Br  4,C   0)                  1.9796         0.000000   
      5. B(F   5,H   2)                  1.8125         0.000000   
      6. A(H   1,C   0,H   3)          110.3763         0.000000   
      7. A(H   1,C   0,H   2)          110.3907         0.000000   
      8. A(H   1,C   0,Br  4)          106.3258         0.000000   
      9. A(H   2,C   0,Br  4)          112.8895         0.000000   
     10. A(H   3,C   0,Br  4)          106.3258         0.000000   
     11. A(H   2,C   0,H   3)          110.3907         0.000000   
     12. A(C   0,H   2,F   5)          124.5704         0.000000   
     13. D(F   5,H   2,C   0,H   3)     61.1542         0.000000   
     14. D(F   5,H   2,C   0,Br  4)   -179.9995         0.000000   
     15. D(F   5,H   2,C   0,H   1)    -61.1533         0.000000   
    -----------------------------------------------------------------

Number of atoms                         .... 6
Number of degrees of freedom            .... 15


         *************************************************************
         *                GEOMETRY OPTIMIZATION CYCLE   1            *
         *************************************************************
---------------------------------
CARTESIAN COORDINATES (ANGSTROEM)
---------------------------------
  C     -0.134916    0.077890    0.243038
  H     -0.208350    1.148448    0.085927
  H      0.612199   -0.353449   -0.423426
  H     -1.098754   -0.393813    0.085933
  Br     0.302975   -0.174913    2.157014
  F      0.526846   -0.304163   -2.233206

----------------------------
CARTESIAN COORDINATES (A.U.)
----------------------------
  NO LB      ZA    FRAG     MASS         X           Y           Z
   0 C     6.0000    0    12.011   -0.254954    0.147191    0.459276
   1 H     1.0000    0     1.008   -0.393724    2.170252    0.162379
   2 H     1.0000    0     1.008    1.156888   -0.667921   -0.800160
   3 H     1.0000    0     1.008   -2.076344   -0.744199    0.162389
   4 Br   35.0000    0    79.900    0.572539   -0.330538    4.076166
   5 F     9.0000    0    18.998    0.995595   -0.574784   -4.220148

--------------------------------
INTERNAL COORDINATES (ANGSTROEM)
--------------------------------
 C      0   0   0     0.000000000000     0.00000000     0.00000000
 H      1   0   0     1.084513913144     0.00000000     0.00000000
 H      1   2   0     1.090141173346   110.39069309     0.00000000
 H      1   2   3     1.084513954352   110.37629495   237.68401564
 Br     1   2   3     1.979636907968   106.32579277   122.77012929
 F      3   1   2     1.812461435949   124.57038729   298.84672941

---------------------------
INTERNAL COORDINATES (A.U.)
---------------------------
 C      0   0   0     0.000000000000     0.00000000     0.00000000
 H      1   0   0     2.049434284270     0.00000000     0.00000000
 H      1   2   0     2.060068264936   110.39069309     0.00000000
 H      1   2   3     2.049434362141   110.37629495   237.68401564
 Br     1   2   3     3.740971600662   106.32579277   122.77012929
 F      3   1   2     3.425055742237   124.57038729   298.84672941

---------------------
BASIS SET INFORMATION
---------------------
There are 4 groups of distinct atoms

 Group   1 Type C   : 11s6p1d contracted to 5s3p1d pattern {62111/411/1}
 Group   2 Type H   : 4s1p contracted to 2s1p pattern {31/1}
 Group   3 Type Br  : 17s13p7d contracted to 6s5p3d pattern {842111/64111/511}
 Group   4 Type F   : 11s6p2d contracted to 5s3p2d pattern {62111/411/11}

Atom   0C    basis set group =>   1
Atom   1H    basis set group =>   2
Atom   2H    basis set group =>   2
Atom   3H    basis set group =>   2
Atom   4Br   basis set group =>   3
Atom   5F    basis set group =>   4
---------------------------------
AUXILIARY/J BASIS SET INFORMATION
---------------------------------
There are 4 groups of distinct atoms

 Group   1 Type C   : 8s3p3d contracted to 6s3p3d pattern {311111/111/111}
 Group   2 Type H   : 5s2p1d contracted to 3s1p1d pattern {311/2/1}
 Group   3 Type Br  : 19s5p5d3f1g contracted to 8s4p3d2f1g pattern {121111111/2111/311/21/1}
 Group   4 Type F   : 8s3p4d contracted to 6s3p4d pattern {311111/111/1111}

Atom   0C    basis set group =>   1
Atom   1H    basis set group =>   2
Atom   2H    basis set group =>   2
Atom   3H    basis set group =>   2
Atom   4Br   basis set group =>   3
Atom   5F    basis set group =>   4


           ************************************************************
           *        Program running with 8 parallel MPI-processes     *
           *              working on a common directory               *
           ************************************************************
------------------------------------------------------------------------------
                             ORCA STARTUP CALCULATIONS
                           -- RI-GTO INTEGRALS CHOSEN --
------------------------------------------------------------------------------
------------------------------------------------------------------------------
                   ___                                                        
                  /   \      - P O W E R E D   B Y -                         
                 /     \                                                     
                 |  |  |   _    _      __       _____    __    __             
                 |  |  |  | |  | |    /  \     |  _  \  |  |  /  |          
                  \  \/   | |  | |   /    \    | | | |  |  | /  /          
                 / \  \   | |__| |  /  /\  \   | |_| |  |  |/  /          
                |  |  |   |  __  | /  /__\  \  |    /   |      \           
                |  |  |   | |  | | |   __   |  |    \   |  |\   \          
                \     /   | |  | | |  |  |  |  | |\  \  |  | \   \       
                 \___/    |_|  |_| |__|  |__|  |_| \__\ |__|  \__/        
                                                                              
                      - O R C A' S   B I G   F R I E N D -                    
                                      &                                       
                       - I N T E G R A L  F E E D E R -                       
                                                                              
 v1 FN, 2020, v2 2021, v3 2022-2024                                           
------------------------------------------------------------------------------


----------------------
SHARK INTEGRAL PACKAGE
----------------------

Number of atoms                             ...      6
Number of basis functions                   ...     94
Number of shells                            ...     42
Maximum angular momentum                    ...      2
Integral batch strategy                     ... SHARK/LIBINT Hybrid
RI-J (if used) integral strategy            ... SPLIT-RIJ (Revised 2003 algorithm where possible)
Printlevel                                  ...      1
Contraction scheme used                     ... SEGMENTED contraction
Prescreening option                         ... SCHWARTZ
   Thresh                                   ... 2.500e-11
   Tcut                                     ... 2.500e-12
   Tpresel                                  ... 2.500e-12 
Coulomb Range Separation                    ... NOT USED
Exchange Range Separation                   ... NOT USED
Multipole approximations                    ... NOT USED
Finite Nucleus Model                        ... NOT USED
CABS basis                                  ... NOT available
Auxiliary Coulomb fitting basis             ... AVAILABLE
   # of basis functions in Aux-J            ...    156
   # of shells in Aux-J                     ...     58
   Maximum angular momentum in Aux-J        ...      4
Auxiliary J/K fitting basis                 ... NOT available
Auxiliary Correlation fitting basis         ... NOT available
Auxiliary 'external' fitting basis          ... NOT available

Checking pre-screening integrals            ... done (  0.0 sec) Dimension = 42
   => SHARK Basis and OBASIS are compatible. Storing Pre-screening
Shell pair information
Shell pair cut-off parameter TPreSel        ...   2.5e-12
Total number of shell pairs                 ...       903
Shell pairs after pre-screening             ...       827
Total number of primitive shell pairs       ...      4124
Primitive shell pairs kept                  ...      2896
          la=0 lb=0:    225 shell pairs
          la=1 lb=0:    284 shell pairs
          la=1 lb=1:    100 shell pairs
          la=2 lb=0:    120 shell pairs
          la=2 lb=1:     79 shell pairs
          la=2 lb=2:     19 shell pairs

Checking whether 4 symmetric matrices of dimension 94 fit in memory
:Max Core in MB      =   4096.00
 MB in use           =      4.40
 MB left             =   4091.60
 MB needed           =      0.14
 Data fit in memory  = YES
Calculating RI/J V-Matrix + Cholesky decomp.... done (  0.0 sec)
Calculating Nuclear repulsion               ... done (  0.0 sec) ENN=    142.577245253146 Eh

Diagonalization of the overlap matrix:
Smallest eigenvalue                        ... 6.255e-03
Time for diagonalization                   ...    0.001 sec
Threshold for overlap eigenvalues          ... 1.000e-07
Number of eigenvalues below threshold      ... 0
Time for construction of square roots      ...    0.001 sec
Total time needed                          ...    0.002 sec

-------------------
DFT GRID GENERATION
-------------------

General Integration Accuracy     IntAcc      ... 4.388
Radial Grid Type                 RadialGrid  ... OptM3 with GC (2021)
Angular Grid (max. ang.)         AngularGrid ... 4 (Lebedev-302)
Angular grid pruning method      GridPruning ... 4 (adaptive)
Weight generation scheme         WeightScheme... mBecke (2022)
Basis function cutoff            BFCut       ... 1.0000e-11
Integration weight cutoff        WCut        ... 1.0000e-14
Partially contracted basis set               ... off
Rotationally invariant grid construction     ... off
Angular grids for H and He will be reduced by one unit
Core-polarized basis detected: some atoms will have their core
                               angular grid increased.

Total number of grid points                  ...    33363
Total number of batches                      ...      525
Average number of points per batch           ...       63
Average number of grid points per atom       ...     5560
Grids setup in   0.7 sec
Initializing property integral containers    ... done (  0.0 sec)

SHARK setup successfully completed in   0.9 seconds

Maximum memory used throughout the entire STARTUP-calculation: 13.2 MB


           ************************************************************
           *        Program running with 8 parallel MPI-processes     *
           *              working on a common directory               *
           ************************************************************
-------------------------------------------------------------------------------
                                 ORCA GUESS
                   Start orbitals & Density for SCF / CASSCF
-------------------------------------------------------------------------------

------------
SCF SETTINGS
------------
Hamiltonian:
 Density Functional     Method          .... DFT(GTOs)
  Functional kind                       .... Exchange
  Functional name                       .... Re-regularized SCAN exchange by Furness et al
  Functional family                     .... MGGA
  Functional refs                              
    [ 0] J. W. Furness, A. D. Kaplan, J. Ning, J. P. Perdew, and J. Sun.,  J. Phys. Chem. Lett. 11, 8208-8215 (2020), doi: 10.1021/acs.jpclett.0c02405
    [ 1] J. W. Furness, A. D. Kaplan, J. Ning, J. P. Perdew, and J. Sun.,  J. Phys. Chem. Lett. 11, 9248-9248 (2020), doi: 10.1021/acs.jpclett.0c03077
  Functional external parameters        .... 6
    Parameter  0 _c1        =  6.670000e-01 : c1 parameter        
    Parameter  1 _c2        =  8.000000e-01 : c2 parameter        
    Parameter  2 _d         =  1.240000e+00 : d parameter         
    Parameter  3 _k1        =  6.500000e-02 : k1 parameter        
    Parameter  4 _eta       =  1.000000e-03 : eta parameter       
    Parameter  5 _dp2       =  3.610000e-01 : dp2 parameter       
  Functional kind                       .... Correlation
  Functional name                       .... Re-regularized SCAN correlation by Furness et al
  Functional family                     .... MGGA
  Functional refs                              
    [ 0] J. W. Furness, A. D. Kaplan, J. Ning, J. P. Perdew, and J. Sun.,  J. Phys. Chem. Lett. 11, 8208-8215 (2020), doi: 10.1021/acs.jpclett.0c02405
    [ 1] J. W. Furness, A. D. Kaplan, J. Ning, J. P. Perdew, and J. Sun.,  J. Phys. Chem. Lett. 11, 9248-9248 (2020), doi: 10.1021/acs.jpclett.0c03077
  Functional external parameters        .... 1
    Parameter  0 _eta       =  1.000000e-03 : Regularization parameter
 Gradients option       PostSCFGGA      .... off
 RI-approximation to the Coulomb term is turned on
   Number of AuxJ basis functions       .... 156


General Settings:
 Integral files         IntName         .... ts_optfreq
 Hartree-Fock type      HFTyp           .... RHF
 Total Charge           Charge          ....   -1
 Multiplicity           Mult            ....    1
 Number of Electrons    NEL             ....   54
 Basis Dimension        Dim             ....   94
 Nuclear Repulsion      ENuc            ....    142.5772452531 Eh

Convergence Acceleration:
 AO-DIIS                CNVDIIS         .... on
   Start iteration      DIISMaxIt       ....    12
   Startup error        DIISStart       ....  0.200000
   # of expansion vecs  DIISMaxEq       ....     5
   Bias factor          DIISBfac        ....   1.050
   Max. coefficient     DIISMaxC        ....  10.000
 MO-DIIS                CNVKDIIS        .... off
 Trust-Rad. Augm. Hess. CNVTRAH         .... auto
   Auto Start mean grad. ratio tolernc. ....  1.125000
   Auto Start start iteration           ....    50
   Auto Start num. interpolation iter.  ....    10
   Max. Number of Micro iterations      ....    24
   Max. Number of Macro iterations      .... Maxiter - #DIIS iter
   Number of Davidson start vectors     ....     2
   Converg. threshold    (grad. norm)   ....   1.000e-05
   Grad. Scal. Fac. for Micro threshold ....   0.100
   Minimum threshold for Micro iter.    ....   1.000e-02
   NR start threshold (gradient norm)   ....   1.000e-04
   Initial trust radius                 ....   0.400
   Minimum AH scaling param. (alpha)    ....   1.000
   Maximum AH scaling param. (alpha)    .... 1000.000
   Quad. conv. algorithm                .... NR
   White noise on init. David. guess    .... on
   Maximum white noise                  ....   0.010
   Pseudo random numbers                .... off
   Inactive MOs                         .... canonical
   Orbital update algorithm             .... Taylor
   Preconditioner                       .... Diag
   Full preconditioner red. dimension   ....   250
   COSX micro iterations for RIJONX calc.... off
 SOSCF                 CNVSOSCF           .... on
   Start iteration     SOSCFMaxIt         ....   150
   Startup grad/error  SOSCFStart         ....  0.003300
   Hessian update      SOSCFHessUp        .... L-BFGS
   Autom. constraints  SOSCFAutoConstrain .... off
 Level Shifting         CNVShift        .... on
   Level shift para.    LevelShift      ....    0.2500
   Turn off err/grad.   ShiftErr        ....    0.0010
 Zerner damping         CNVZerner       .... off
 Static damping         CNVDamp         .... on
   Fraction old density DampFac         ....    0.7000
   Max. Damping (<1)    DampMax         ....    0.9800
   Min. Damping (>=0)   DampMin         ....    0.0000
   Turn off err/grad.   DampErr         ....    0.1000

SCF Procedure:
 Maximum # iterations   MaxIter         ....   150
 SCF integral mode      SCFMode         .... Direct
   Integral package                     .... SHARK and LIBINT hybrid scheme
 Reset frequency        DirectResetFreq ....    20
 Integral Threshold     Thresh          ....  2.500e-11 Eh
 Primitive CutOff       TCut            ....  2.500e-12 Eh

Convergence Tolerance:
 Convergence Check Mode ConvCheckMode   .... Total+1el-Energy
 Convergence forced     ConvForced      .... 0
 Energy Change          TolE            ....  1.000e-08 Eh
 1-El. energy change                    ....  1.000e-05 Eh
 Orbital Gradient       TolG            ....  1.000e-05
 Orbital Rotation angle TolX            ....  1.000e-05
 DIIS Error             TolErr          ....  5.000e-07

------------------------------
INITIAL GUESS: MODEL POTENTIAL
------------------------------
Loading Hartree-Fock densities                     ... done
Calculating cut-offs                               ... done
Initializing the effective Hamiltonian             ... done
Setting up the integral package (SHARK)            ... done
Starting the Coulomb interaction                   ... done (   0.1 sec)
Making the grid                                    ... done (   0.3 sec)
Mapping shells                                     ... done
Starting the XC term evaluation                    ... done (   0.1 sec)
  promolecular density results
     # of electrons  =     52.998142986
     EX              =   -105.179257964
     EC              =     -2.293601876
     EX+EC           =   -107.472859840
Transforming the Hamiltonian                       ... done (   0.0 sec)
Diagonalizing the Hamiltonian                      ... done (   0.0 sec)
Back transforming the eigenvectors                 ... done (   0.0 sec)
Now organizing SCF variables                       ... done
                      ------------------
                      INITIAL GUESS DONE (   0.5 sec)
                      ------------------
             **** ENERGY FILE WAS UPDATED (ts_optfreq.en.tmp) ****
Finished Guess after   1.0 sec
Maximum memory used throughout the entire GUESS-calculation: 7.0 MB


           ************************************************************
           *        Program running with 8 parallel MPI-processes     *
           *              working on a common directory               *
           ************************************************************

-------------------------------------------------------------------------------------------
                                      ORCA LEAN-SCF
                              memory conserving SCF solver
-------------------------------------------------------------------------------------------

----------------------------------------D-I-I-S--------------------------------------------
Iteration    Energy (Eh)           Delta-E    RMSDP     MaxDP     DIISErr   Damp  Time(sec)
-------------------------------------------------------------------------------------------
               ***  Starting incremental Fock matrix formation  ***
    1    -2713.7168592500074737     0.00e+00  1.42e-02  7.58e-02  3.89e-01  0.700   0.2
Warning: op=0 Small HOMO/LUMO gap (   0.060) - skipping pre-diagonalization
         Will do a full diagonalization
    2    -2713.8104586584186109    -9.36e-02  1.00e-02  4.40e-02  1.15e-01  0.700   0.3
                               ***Turning on AO-DIIS***
    3    -2713.8383109888645777    -2.79e-02  4.44e-03  2.49e-02  2.79e-02  0.700   0.4
    4    -2713.8561214899200422    -1.78e-02  7.68e-03  5.40e-02  1.93e-02  0.000   0.3
    5    -2713.8998275774006288    -4.37e-02  2.71e-03  1.57e-02  1.31e-02  0.000   0.2
    6    -2713.9007750182840937    -9.47e-04  1.25e-03  7.47e-03  3.77e-03  0.000   0.5
                              *** Initializing SOSCF ***
---------------------------------------S-O-S-C-F--------------------------------------
Iteration    Energy (Eh)           Delta-E    RMSDP     MaxDP     MaxGrad    Time(sec)
--------------------------------------------------------------------------------------
    7    -2713.9009507181476692    -1.76e-04  6.83e-04  4.03e-03  1.95e-03     0.6
               *** Restarting incremental Fock matrix formation ***
    8    -2713.9009998626452216    -4.91e-05  1.23e-03  7.56e-03  1.26e-03     0.5
    9    -2713.9010014893378866    -1.63e-06  4.00e-04  1.75e-03  1.76e-03     0.4
   10    -2713.9010205259692157    -1.90e-05  3.58e-04  2.12e-03  9.57e-04     0.6
   11    -2713.9010242018807730    -3.68e-06  1.22e-04  7.86e-04  4.49e-04     0.5
   12    -2713.9010254755571623    -1.27e-06  1.03e-04  6.09e-04  2.87e-04     0.4
   13    -2713.9010258976159093    -4.22e-07  4.38e-05  2.29e-04  9.69e-05     0.2
   14    -2713.9010260197983371    -1.22e-07  1.98e-05  1.59e-04  4.16e-05     0.2
   15    -2713.9010260413333526    -2.15e-08  1.07e-05  6.33e-05  1.33e-05     0.3
   16    -2713.9010260451486829    -3.82e-09  1.58e-06  7.75e-06  2.69e-06     0.4
                 **** Energy Check signals convergence ****

               *****************************************************
               *                     SUCCESS                       *
               *           SCF CONVERGED AFTER  16 CYCLES          *
               *****************************************************

             **** ENERGY FILE WAS UPDATED (ts_optfreq.en.tmp) ****

----------------
TOTAL SCF ENERGY
----------------

Total Energy       :      -2713.90102604490085 Eh          -73849.00133 eV

Components:
Nuclear Repulsion  :        142.57724525314586 Eh            3879.72408 eV
Electronic Energy  :      -2856.47827129804682 Eh          -77728.72541 eV
One Electron Energy:      -4070.53911566857960 Eh         -110765.00052 eV
Two Electron Energy:       1214.06084437053278 Eh           33036.27511 eV

Virial components:
Potential Energy   :      -5423.97585169871491 Eh         -147593.88645 eV
Kinetic Energy     :       2710.07482565381451 Eh           73744.88512 eV
Virial Ratio       :          2.00141184308081

DFT components:
N(Alpha)           :       26.999998404947 electrons
N(Beta)            :       26.999998404947 electrons
N(Total)           :       53.999996809894 electrons
E(X)               :     -106.164088544612 Eh       
E(C)               :       -2.327072687775 Eh       
E(XC)              :     -108.491161232387 Eh       

---------------
SCF CONVERGENCE
---------------

  Last Energy change         ...    3.8153e-09  Tolerance :   1.0000e-08
  Last MAX-Density change    ...    7.7506e-06  Tolerance :   1.0000e-07
  Last RMS-Density change    ...    1.5758e-06  Tolerance :   5.0000e-09
  Last DIIS Error            ...    1.9459e-03  Tolerance :   5.0000e-07
  Last Orbital Gradient      ...    2.6892e-06  Tolerance :   1.0000e-05
  Last Orbital Rotation      ...    1.2182e-05  Tolerance :   1.0000e-05


----------------
ORBITAL ENERGIES
----------------

  NO   OCC          E(Eh)            E(eV) 
   0   2.0000    -482.060576    -13117.5352 
   1   2.0000     -62.132897     -1690.7221 
   2   2.0000     -55.913880     -1521.4940 
   3   2.0000     -55.910445     -1521.4006 
   4   2.0000     -55.910370     -1521.3985 
   5   2.0000     -24.063765      -654.8083 
   6   2.0000      -9.897643      -269.3286 
   7   2.0000      -8.464870      -230.3408 
   8   2.0000      -6.270786      -170.6368 
   9   2.0000      -6.259483      -170.3292 
  10   2.0000      -6.259428      -170.3277 
  11   2.0000      -2.368765       -64.4574 
  12   2.0000      -2.366061       -64.3838 
  13   2.0000      -2.366002       -64.3822 
  14   2.0000      -2.357392       -64.1479 
  15   2.0000      -2.357387       -64.1478 
  16   2.0000      -0.696087       -18.9415 
  17   2.0000      -0.600151       -16.3309 
  18   2.0000      -0.461327       -12.5533 
  19   2.0000      -0.234392        -6.3781 
  20   2.0000      -0.219074        -5.9613 
  21   2.0000      -0.196587        -5.3494 
  22   2.0000      -0.103290        -2.8107 
  23   2.0000      -0.102143        -2.7795 
  24   2.0000       0.018564         0.5052 
  25   2.0000       0.020563         0.5595 
  26   2.0000       0.020797         0.5659 
  27   0.0000       0.139624         3.7994 
  28   0.0000       0.263996         7.1837 
  29   0.0000       0.330939         9.0053 
  30   0.0000       0.338076         9.1995 
  31   0.0000       0.363815         9.8999 
  32   0.0000       0.370918        10.0932 
  33   0.0000       0.381837        10.3903 
  34   0.0000       0.401846        10.9348 
  35   0.0000       0.426855        11.6153 
  36   0.0000       0.452449        12.3118 
  37   0.0000       0.535930        14.5834 
*Only the first 10 virtual orbitals were printed.

                    ********************************
                    * MULLIKEN POPULATION ANALYSIS *
                    ********************************

-----------------------
MULLIKEN ATOMIC CHARGES
-----------------------
   0 C :   -0.358209
   1 H :    0.141593
   2 H :    0.268660
   3 H :    0.141592
   4 Br:   -0.358444
   5 F :   -0.835192
Sum of atomic charges:   -1.0000000

--------------------------------
MULLIKEN REDUCED ORBITAL CHARGES
--------------------------------
  0 C s       :     3.300930  s :     3.300930
      pz      :     0.752821  p :     3.032454
      px      :     1.168652
      py      :     1.110981
      dz2     :     0.008926  d :     0.024825
      dxz     :     0.004393
      dyz     :     0.002966
      dx2y2   :     0.005553
      dxy     :     0.002987

  1 H s       :     0.839654  s :     0.839654
      pz      :     0.003580  p :     0.018753
      px      :     0.003978
      py      :     0.011196

  2 H s       :     0.707675  s :     0.707675
      pz      :     0.012586  p :     0.023665
      px      :     0.006730
      py      :     0.004348

  3 H s       :     0.839656  s :     0.839656
      pz      :     0.003579  p :     0.018753
      px      :     0.009837
      py      :     0.005336

  4 Brs       :     7.952396  s :     7.952396
      pz      :     5.421048  p :    17.364034
      px      :     5.959546
      py      :     5.983439
      dz2     :     2.019617  d :    10.042014
      dxz     :     2.010861
      dyz     :     2.009775
      dx2y2   :     2.001077
      dxy     :     2.000684

  5 F s       :     3.990359  s :     3.990359
      pz      :     1.899852  p :     5.845535
      px      :     1.965917
      py      :     1.979766
      dz2     :    -0.000498  d :    -0.000703
      dxz     :    -0.000100
      dyz     :    -0.000049
      dx2y2   :    -0.000030
      dxy     :    -0.000026



                     *******************************
                     * LOEWDIN POPULATION ANALYSIS *
                     *******************************

----------------------
LOEWDIN ATOMIC CHARGES
----------------------
   0 C :   -0.523808
   1 H :    0.142464
   2 H :    0.204831
   3 H :    0.142464
   4 Br:   -0.107306
   5 F :   -0.858644

-------------------------------
LOEWDIN REDUCED ORBITAL CHARGES
-------------------------------
  0 C s       :     3.106541  s :     3.106541
      pz      :     0.937673  p :     3.360125
      px      :     1.224204
      py      :     1.198248
      dz2     :     0.019723  d :     0.057142
      dxz     :     0.009980
      dyz     :     0.006337
      dx2y2   :     0.013626
      dxy     :     0.007476

  1 H s       :     0.812144  s :     0.812144
      pz      :     0.007342  p :     0.045392
      px      :     0.009391
      py      :     0.028660

  2 H s       :     0.725286  s :     0.725286
      pz      :     0.038341  p :     0.069883
      px      :     0.019942
      py      :     0.011600

  3 H s       :     0.812144  s :     0.812144
      pz      :     0.007342  p :     0.045392
      px      :     0.025396
      py      :     0.012654

  4 Brs       :     7.738246  s :     7.738246
      pz      :     5.410406  p :    17.308733
      px      :     5.938671
      py      :     5.959657
      dz2     :     2.032548  d :    10.060326
      dxz     :     2.014103
      dyz     :     2.011547
      dx2y2   :     2.001260
      dxy     :     2.000868

  5 F s       :     3.976032  s :     3.976032
      pz      :     1.905341  p :     5.864283
      px      :     1.974141
      py      :     1.984800
      dz2     :     0.016104  d :     0.018329
      dxz     :     0.001139
      dyz     :     0.000883
      dx2y2   :     0.000126
      dxy     :     0.000078



                      *****************************
                      * MAYER POPULATION ANALYSIS *
                      *****************************

  NA   - Mulliken gross atomic population
  ZA   - Total nuclear charge
  QA   - Mulliken gross atomic charge
  VA   - Mayer's total valence
  BVA  - Mayer's bonded valence
  FA   - Mayer's free valence

  ATOM       NA         ZA         QA         VA         BVA        FA
  0 C      6.3582     6.0000    -0.3582     3.7813     3.7813    -0.0000
  1 H      0.8584     1.0000     0.1416     0.9598     0.9598    -0.0000
  2 H      0.7313     1.0000     0.2687     0.9485     0.9485     0.0000
  3 H      0.8584     1.0000     0.1416     0.9598     0.9598    -0.0000
  4 Br    35.3584    35.0000    -0.3584     0.8655     0.8655     0.0000
  5 F      9.8352     9.0000    -0.8352     0.2588     0.2588     0.0000

  Mayer bond orders larger than 0.100000
B(  0-C ,  1-H ) :   0.9680 B(  0-C ,  2-H ) :   0.8828 B(  0-C ,  3-H ) :   0.9680 
B(  0-C ,  4-Br) :   0.8081 B(  0-C ,  5-F ) :   0.1545 

-------
TIMINGS
-------

Total SCF time: 0 days 0 hours 0 min 7 sec 

Total time                  ....       7.012 sec
Sum of individual times     ....       6.537 sec  ( 93.2%)

SCF preparation             ....       0.713 sec  ( 10.2%)
Fock matrix formation       ....       4.491 sec  ( 64.0%)
  Startup                   ....       0.042 sec  (  0.9% of F)
  Split-RI-J                ....       0.665 sec  ( 14.8% of F)
  XC integration            ....       3.178 sec  ( 70.8% of F)
    XC Preparation          ....       0.000 sec  (  0.0% of XC)
    Basis function eval.    ....       0.383 sec  ( 12.1% of XC)
    Density eval.           ....       0.298 sec  (  9.4% of XC)
    XC-Functional eval.     ....       0.418 sec  ( 13.2% of XC)
    XC-Potential eval.      ....       0.685 sec  ( 21.5% of XC)
Diagonalization             ....       0.000 sec  (  0.0%)
Density matrix formation    ....       0.237 sec  (  3.4%)
Total Energy calculation    ....       0.029 sec  (  0.4%)
Population analysis         ....       0.009 sec  (  0.1%)
Orbital Transformation      ....       0.079 sec  (  1.1%)
Orbital Orthonormalization  ....       0.000 sec  (  0.0%)
DIIS solution               ....       0.417 sec  (  5.9%)
SOSCF solution              ....       0.562 sec  (  8.0%)
Finished LeanSCF after   7.0 sec

Maximum memory used throughout the entire LEANSCF-calculation: 6.5 MB


           ************************************************************
           *        Program running with 8 parallel MPI-processes     *
           *              working on a common directory               *
           ************************************************************

------------------------------------------------------------------------------
                         ORCA PROPERTY INTEGRAL CALCULATIONS
------------------------------------------------------------------------------

GBWName                                   ... ts_optfreq.gbw
Number of atoms                           ...      6
Number of basis functions                 ...     94
Max core memory                           ...   4096 MB

Dipole integrals                          ... YES
Quadrupole integrals                      ...  NO
Linear momentum integrals                 ...  NO
Angular momentum integrals                ...  NO
Higher moments length integrals           ...  NO
Higher moments velocity integrals         ...  NO
Kinetic energy integrals                  ...  NO
GIAO right hand sides                     ...  NO
GIAO dipole derivative integrals          ...  NO
SOC integrals                             ...  NO
EPR diamagnetic integrals (GIAO)          ...  NO
EPR gauge integrals                       ...  NO
Field gradient integrals                  ...  NO (   0 nuclei)
Spin-dipole/Fermi contact integrals       ...  NO (   0 nuclei)
Contact density integrals                 ...  NO (   0 nuclei)
Nucleus-orbit integrals                   ...  NO (   0 nuclei)
Geometric perturbations                   ...  NO (   6 nuclei)

Choice of electric origin   ... Center of mass
Position of electric origin ... (  0.5290, -0.3054,  2.1991) 
Choice of magnetic origin   ... GIAO
Position of magnetic origin ... (  0.0000,  0.0000,  0.0000) 

Calculating integrals                     ... Electric Dipole (Length)     done (  0.0 sec)

Property integrals calculated in   0.0 sec

Maximum memory used throughout the entire PROPINT-calculation: 7.0 MB


-------------------------------------------------------------------------------
                          DFT DISPERSION CORRECTION                            
                                                                               
                                DFTD4 V3.4.0                                   
-------------------------------------------------------------------------------
The R2SCAN3C composite method is recognized
Using three-body term ABC
Active option DFTDOPT                   ...         5   

-------------------------   ----------------
Dispersion correction           -0.000856588
-------------------------   ----------------

------------------   -----------------
gCP correction             0.004263237
------------------   -----------------

-------------------------   --------------------
FINAL SINGLE POINT ENERGY     -2713.897619395118
-------------------------   --------------------



           ************************************************************
           *        Program running with 8 parallel MPI-processes     *
           *              working on a common directory               *
           ************************************************************
------------------------------------------------------------------------------
                         ORCA SCF GRADIENT CALCULATION
------------------------------------------------------------------------------

Nuc. rep. gradient        (SHARK) ... done (  0.0 sec)
HCore & Overlap gradient  (SHARK) ... done (  0.0 sec)
Split-RIJ-J gradient      (SHARK) ... done (  0.7 sec)
XC gradient                       ... done (  0.4 sec)
Dispersion correction             ... done (  0.1 sec)

-------------------
DISPERSION GRADIENT
-------------------

   1   C   :   -0.000005165    0.000002982   -0.000002061
   2   H   :   -0.000000486    0.000000152    0.000001971
   3   H   :   -0.000000650    0.000000375   -0.000005336
   4   H   :   -0.000000375    0.000000344    0.000001971
   5   Br  :    0.000000696   -0.000000402    0.000040926
   6   F   :    0.000005980   -0.000003452   -0.000037471

Difference to translation invariance:
           :    0.0000000000    0.0000000000   -0.0000000000

Difference to rotation invariance:
           :    0.0000000000    0.0000000000    0.0000000000

Norm of the Dispersion gradient    ...    0.0000566077
RMS gradient                       ...    0.0000133426
MAX gradient                       ...    0.0000409255
gCP correction                   ... done

------------------
CARTESIAN GRADIENT
------------------

   1   C   :    0.005806856   -0.003375046    0.010621934
   2   H   :   -0.000878328   -0.002261720   -0.000248146
   3   H   :   -0.003486772    0.002015402    0.007452873
   4   H   :    0.001517062    0.001892935   -0.000245813
   5   Br  :   -0.002628068    0.001534339   -0.016996155
   6   F   :   -0.000330749    0.000194089   -0.000584693

Difference to translation invariance:
           :   -0.0000000000    0.0000000000    0.0000000003

Difference to rotation invariance:
           :   -0.0000286982    0.0000349804    0.0000166890

Norm of the Cartesian gradient     ...    0.0232424913
RMS gradient                       ...    0.0054783077
MAX gradient                       ...    0.0169961549

-------
TIMINGS
-------

Total SCF gradient time     ....        1.212 sec

Densities                   ....       0.000 sec  (  0.0%)
One electron gradient       ....       0.009 sec  (  0.7%)
RI-J Coulomb gradient       ....       0.704 sec  ( 58.0%)
XC gradient                 ....       0.389 sec  ( 32.1%)

Maximum memory used throughout the entire SCFGRAD-calculation: 26.7 MB


           ************************************************************
           *        Program running with 8 parallel MPI-processes     *
           *              working on a common directory               *
           ************************************************************

------------------------------------------------------------------------------
                         ORCA PROPERTY INTEGRAL CALCULATIONS
------------------------------------------------------------------------------

GBWName                                   ... ts_optfreq.gbw
Number of atoms                           ...      6
Number of basis functions                 ...     94
Max core memory                           ...   4096 MB

Dipole integrals                          ...  NO
Quadrupole integrals                      ...  NO
Linear momentum integrals                 ...  NO
Angular momentum integrals                ...  NO
Higher moments length integrals           ...  NO
Higher moments velocity integrals         ...  NO
Kinetic energy integrals                  ...  NO
GIAO right hand sides                     ...  NO
GIAO dipole derivative integrals          ...  NO
SOC integrals                             ...  NO
EPR diamagnetic integrals (GIAO)          ...  NO
EPR gauge integrals                       ...  NO
Field gradient integrals                  ...  NO (   0 nuclei)
Spin-dipole/Fermi contact integrals       ...  NO (   0 nuclei)
Contact density integrals                 ...  NO (   0 nuclei)
Nucleus-orbit integrals                   ...  NO (   0 nuclei)
Geometric perturbations                   ... YES (   6 nuclei)

Choice of electric origin   ... Center of mass
Position of electric origin ... (  0.5290, -0.3054,  2.1991) 
Choice of magnetic origin   ... GIAO
Position of magnetic origin ... (  0.0000,  0.0000,  0.0000) 

Calculating integrals                     ... Geometrical perturbation right hand sides

-----------------------
GEOMETRIC PERTURBATIONS (6 nuclei)
-----------------------

MaxCore                            ...   4096 MB
Number of batches                  ...      1

BATCH   0: Atoms    0 -    5 ( 18 perturbations)
   => H(core) and overlap derivative integrals     ... done (     0.1 sec)
   => Making and storing internal U-coefficients   ... done (     0.0 sec)
   => RI-J derivative integrals                    ... done (     1.3 sec)
   => RI-J response operators                      ... done (     0.1 sec)
   => XC derivative integrals                      ... done (     5.5 sec)
   => XC response operators                        ... done (     1.1 sec)
   => Completing and storing right hand sides      ... done (     0.0 sec)
   => Total time for right hand sides =   8.6 sec

  geometrical perturbations done (  8.6 sec)

Property integrals calculated in   8.6 sec

Maximum memory used throughout the entire PROPINT-calculation: 16.6 MB


           ************************************************************
           *        Program running with 8 parallel MPI-processes     *
           *              working on a common directory               *
           ************************************************************
------------------------------------------------------------------------------
                            ORCA SCF RESPONSE CALCULATION
------------------------------------------------------------------------------

GBWName                                 ... ts_optfreq.gbw
Number of atoms                         ...      6
Number of basis functions               ...     94
Max core memory                         ...   4096 MB

Electric field perturbation             ...  NO
Quadrupolar field perturbation          ...  NO
Magnetic field perturbation (no GIAO)   ...  NO
Magnetic field perturbation (with GIAO) ...  NO
Linear momentum (velocity) perturbation ...  NO
Spin-orbit coupling perturbation        ...  NO
Choice of electric origin               ... Center of mass
Position of electric origin             ...     0.529033    -0.305422     2.199086
Choice of magnetic origin               ... GIAO
Position of magnetic origin             ...     0.000000     0.000000     0.000000
Nuclear geometric perturbations         ... YES (  18 perturbations)
Nucleus-orbit perturbations             ...  NO (   0 perturbations)
Spin-dipole/Fermi contact perturbations ...  NO (   0 perturbations)

Total number of real perturbations      ...     18
Total number of imaginary perturbations ...      0
Total number of triplet perturbations   ...      0
Total number of SOC perturbations       ...      0

Using XC Grid                  ... (ts_optfreq.grid_cpscf.tmp) 
Recalculating density on grid  ... (ts_optfreq.grho_cpscf0.tmp) done
Calculating the xc-kernel      ... (ts_optfreq.fxc_cpscf0.tmp) done

                                **********************
                                * REAL PERTURBATIONS *
                                **********************



-------------------
SHARK CP-SCF DRIVER
-------------------

Dimension of the orbital basis          ...     94
Dimension of the CPSCF-problem          ...   1809
Number of operators                     ...      1
Max. number of iterations               ...    128
Convergence Tolerance                   ... 1.0e-04
Number of perturbations                 ...     18
Perturbation type                       ... REAL

----------------------------
POPLE LINEAR EQUATION SOLVER
----------------------------

  ITERATION   0:   ||err||_max =   3.3518e-01 (   0.5 sec   0/ 18 done)
  ITERATION   1:   ||err||_max =   3.8087e-02 (   1.1 sec   0/ 18 done)
  ITERATION   2:   ||err||_max =   1.2448e-02 (   0.7 sec   0/ 18 done)
  ITERATION   3:   ||err||_max =   3.6635e-03 (   0.3 sec   0/ 18 done)
  ITERATION   4:   ||err||_max =   8.1199e-04 (   0.6 sec   1/ 18 done)
  ITERATION   5:   ||err||_max =   2.1527e-04 (   0.5 sec  12/ 18 done)
  ITERATION   6:   ||err||_max =   4.0113e-05 (   0.2 sec  18/ 18 done)

CP-SCF equations solved in   4.0 sec
Response densities calculated in   0.0 sec

Maximum memory used throughout the entire SCFRESP-calculation: 9.6 MB


           ************************************************************
           *        Program running with 8 parallel MPI-processes     *
           *              working on a common directory               *
           ************************************************************

------------------------------------------------------------------------------
                              ORCA PROPERTY CALCULATIONS
------------------------------------------------------------------------------

GBWName                                 ... ts_optfreq.gbw
Number of atoms                         ...      6
Number of basis functions               ...     94
Max core memory                         ...   4096 MB

Electric properties:
Dipole moment                           ...  NO
Quadrupole moment                       ...  NO
Static polarizability (Dipole/Dipole)   ...  NO
Static polarizability (Dipole/Quad.)    ...  NO
Static polarizability (Quad./Quad.)     ...  NO
Static polarizability (Velocity)        ...  NO
Static hyperpolarizability              ...  NO

Atomic electric properties:
Dipole moment                           ...  NO
Quadrupole moment                       ...  NO
Static polarizability                   ...  NO

Choice of electric origin               ... Center of mass
Position of electric origin             ...     0.529033    -0.305422     2.199086

General magnetic properties:
Magnetizability                         ...  NO

EPR properties:
g-Tensor (aka g-matrix)                 ...  NO
Zero-Field splitting spin-orbit         ...  NO
Zero-field splitting spin-spin          ...  NO
Hyperfine couplings                     ...  NO (   0 nuclei)
Quadrupole couplings                    ...  NO (   0 nuclei)
Contact density                         ...  NO (   0 nuclei)

NMR properties:
Chemical shifts                         ...  NO (   0 nuclei)
Spin-rotation constants                 ...  NO (   0 nuclei)
Spin-spin couplings                     ...  NO (   0 nuclei,    0 pairs)

Choice of magnetic origin               ... GIAO
Position of magnetic origin             ...     0.000000     0.000000     0.000000

Properties with geometric perturbations:
SCF Hessian                             ... YES
IR spectrum                             ... YES
VCD spectrum                            ...  NO
X-ray spectroscopy properties:
SCF XES/XAS/RIXS spectra                ...  NO

SCF SOC stabilization energy            ...  NO
Diagonal Born-Oppenheimer correction    ...  NO

-----------
SCF HESSIAN
-----------

Occupied/Occupied contributions to the Hessian:
   => Occupied/Occupied contributions              ... done (  0.0 sec)
Perturbed density contributions to the Hessian:
   => Perturbed density contributions              ... done (  0.0 sec)
Explicit contributions to the Hessian:
   => Nuclear repulsion Hessian                    ... done (  0.0 sec)
   => HCore and overlap Hessian                    ... done (  0.4 sec)
   => RI-J Hessian                                 ... done (  1.5 sec)
   => XC-Hessian                                   ... done (  2.7 sec)
   => Van der Waals-Hessian                        ... done (  0.6 sec)
   => GCP-Hessian                                  ... done (  0.0 sec)
   => Explicit contributions done
Dipole derivatives                                 ... done (  0.1 sec)
Mass weighting the Hessian           ... done
Calculating normal modes             ... done
Scaling frequencies                  ... done

-----------------------
VIBRATIONAL FREQUENCIES
-----------------------

Scaling factor for frequencies =  1.000000000  (already applied!)

     0:       0.00 cm**-1
     1:       0.00 cm**-1
     2:       0.00 cm**-1
     3:       0.00 cm**-1
     4:       0.00 cm**-1
     5:       0.00 cm**-1
     6:    -150.68 cm**-1  ***imaginary mode***
     7:      69.58 cm**-1
     8:     203.33 cm**-1
     9:     531.26 cm**-1
    10:     753.68 cm**-1
    11:     951.55 cm**-1
    12:    1238.43 cm**-1
    13:    1431.33 cm**-1
    14:    1448.76 cm**-1
    15:    3046.72 cm**-1
    16:    3190.12 cm**-1
    17:    3225.09 cm**-1


------------
NORMAL MODES
------------

These modes are the Cartesian displacements weighted by the diagonal matrix
M(i,i)=1/sqrt(m[i]) where m[i] is the mass of the displaced atom
Thus, these vectors are normalized but *not* orthogonal

                  0          1          2          3          4          5    
      0       0.000000   0.000000   0.000000   0.000000   0.000000   0.000000
      1       0.000000   0.000000   0.000000   0.000000   0.000000   0.000000
      2       0.000000   0.000000   0.000000   0.000000   0.000000   0.000000
      3       0.000000   0.000000   0.000000   0.000000   0.000000   0.000000
      4       0.000000   0.000000   0.000000   0.000000   0.000000   0.000000
      5       0.000000   0.000000   0.000000   0.000000   0.000000   0.000000
      6       0.000000   0.000000   0.000000   0.000000   0.000000   0.000000
      7       0.000000   0.000000   0.000000   0.000000   0.000000   0.000000
      8       0.000000   0.000000   0.000000   0.000000   0.000000   0.000000
      9       0.000000   0.000000   0.000000   0.000000   0.000000   0.000000
     10       0.000000   0.000000   0.000000   0.000000   0.000000   0.000000
     11       0.000000   0.000000   0.000000   0.000000   0.000000   0.000000
     12       0.000000   0.000000   0.000000   0.000000   0.000000   0.000000
     13       0.000000   0.000000   0.000000   0.000000   0.000000   0.000000
     14       0.000000   0.000000   0.000000   0.000000   0.000000   0.000000
     15       0.000000   0.000000   0.000000   0.000000   0.000000   0.000000
     16       0.000000   0.000000   0.000000   0.000000   0.000000   0.000000
     17       0.000000   0.000000   0.000000   0.000000   0.000000   0.000000
                  6          7          8          9         10         11    
      0      -0.299613  -0.081771   0.144498  -0.181974   0.106260  -0.048494
      1       0.173089  -0.141483  -0.083874   0.105048  -0.061407  -0.083824
      2       0.104878   0.000124  -0.159077  -0.631507  -0.025163  -0.000004
      3      -0.361661   0.454934   0.174395  -0.138331  -0.088497   0.239424
      4       0.197952  -0.138057  -0.094214   0.138497  -0.016735   0.023911
      5       0.259821  -0.202520  -0.234242  -0.399546   0.308554   0.641293
      6      -0.480392  -0.329533   0.222527  -0.030956  -0.308775   0.112566
      7       0.277821  -0.570461  -0.130136   0.017476   0.178538   0.194874
      8      -0.239735  -0.000079  -0.025312  -0.384636  -0.806665   0.000247
      9      -0.351857  -0.347571   0.167120  -0.189379  -0.029917  -0.098894
     10       0.213814   0.325477  -0.102346   0.050546   0.085246   0.219286
     11       0.259384   0.202768  -0.233332  -0.398396   0.307690  -0.642559
     12       0.030389   0.007409  -0.002264   0.029459  -0.008643   0.004236
     13      -0.017554   0.012818   0.001347  -0.017007   0.004995   0.007316
     14      -0.037803   0.000014  -0.161551   0.102674   0.006115   0.000014
     15       0.124961   0.032327  -0.111761   0.010182  -0.008163  -0.000585
     16      -0.072191   0.055862   0.064696  -0.005846   0.004706  -0.001016
     17       0.077854  -0.000147   0.806162   0.030184   0.000293  -0.000003
                 12         13         14         15         16         17    
      0      -0.001845   0.062380   0.034963  -0.016195  -0.079333   0.047957
      1       0.001154  -0.036088   0.060301   0.009488   0.045681   0.083222
      2       0.091441  -0.001021  -0.000040   0.044472   0.014046  -0.000031
      3       0.006815  -0.678796  -0.283858  -0.021305   0.018412   0.053400
      4      -0.080829  -0.077744   0.058753   0.417717  -0.570407  -0.697111
      5      -0.614936  -0.082229   0.305791  -0.046371   0.075755   0.087948
      6      -0.241033   0.134149  -0.400109   0.599057   0.417790   0.012979
      7       0.138777  -0.075619  -0.693761  -0.345769  -0.241199   0.023294
      8      -0.381483   0.152055   0.000308  -0.404606  -0.307025   0.000196
      9       0.073724  -0.272771   0.191894  -0.373810   0.504345  -0.628403
     10       0.034146   0.627212  -0.214209  -0.191144   0.269912  -0.301532
     11      -0.614304  -0.081234  -0.305762  -0.046637   0.075986  -0.087757
     12       0.002552   0.000957   0.000512   0.000113   0.000166  -0.000077
     13      -0.001480  -0.000559   0.000886  -0.000066  -0.000095  -0.000133
     14       0.006359   0.000230   0.000001  -0.000267  -0.000093   0.000000
     15      -0.001052  -0.000091   0.001849  -0.001059  -0.000446  -0.000176
     16       0.000607   0.000026   0.003209   0.000606   0.000261  -0.000306
     17       0.000907   0.000284   0.000005  -0.000592  -0.000250  -0.000001


-----------
IR SPECTRUM
-----------

 Mode   freq       eps      Int      T**2         TX        TY        TZ
       cm**-1   L/(mol*cm) km/mol    a.u.
----------------------------------------------------------------------------
  7:     69.58   0.000550    2.78  0.002466  (-0.025012 -0.042894  0.000188)
  8:    203.33   0.018204   92.00  0.027939  ( 0.023893 -0.013822 -0.164855)
  9:    531.26   0.041941  211.95  0.024636  (-0.003009  0.001703 -0.156920)
 10:    753.68   0.013346   67.44  0.005526  ( 0.005765 -0.003299 -0.074039)
 11:    951.55   0.000322    1.63  0.000106  ( 0.005167  0.008877  0.000036)
 12:   1238.43   0.002893   14.62  0.000729  ( 0.018622 -0.010768  0.016321)
 13:   1431.33   0.003703   18.72  0.000807  (-0.015361  0.008974  0.022157)
 14:   1448.76   0.002617   13.22  0.000564  (-0.011876 -0.020557  0.000047)
 15:   3046.72   0.024511  123.87  0.002511  ( 0.018024 -0.010392 -0.045582)
 16:   3190.12   0.017353   87.69  0.001697  ( 0.002384 -0.001427 -0.041107)
 17:   3225.09   0.001163    5.88  0.000113  ( 0.005214  0.009237  0.000001)

* The epsilon (eps) is given for a Dirac delta lineshape.
** The dipole moment derivative (T) already includes vibrational overlap.

The first frequency considered to be a vibration is 7
The total number of vibrations considered is 11


--------------------------
THERMOCHEMISTRY AT 298.15K
--------------------------

Temperature         ...   298.15 K
Pressure            ...     1.00 atm
Total Mass          ...   113.93 AMU
Quasi RRHO          ...     True
Cut-Off Frequency   ...     1.00 cm^-1

Throughout the following assumptions are being made:
  (1) The electronic state is orbitally nondegenerate
  (2) There are no thermally accessible electronically excited states
  (3) Hindered rotations indicated by low frequency modes are not
      treated as such but are treated as vibrations and this may
      cause some error
  (4) All equations used are the standard statistical mechanics
      equations for an ideal gas
  (5) All vibrations are strictly harmonic

freq.      69.58  E(vib)   ...       0.50 
freq.     203.33  E(vib)   ...       0.35 
freq.     531.26  E(vib)   ...       0.13 
freq.     753.68  E(vib)   ...       0.06 
freq.     951.55  E(vib)   ...       0.03 
freq.    1238.43  E(vib)   ...       0.01 
freq.    1431.33  E(vib)   ...       0.00 
freq.    1448.76  E(vib)   ...       0.00 
freq.    3046.72  E(vib)   ...       0.00 
freq.    3190.12  E(vib)   ...       0.00 
freq.    3225.09  E(vib)   ...       0.00 

------------
INNER ENERGY
------------

The inner energy is: U= E(el) + E(ZPE) + E(vib) + E(rot) + E(trans)
    E(el)   - is the total energy from the electronic structure calculation
              = E(kin-el) + E(nuc-el) + E(el-el) + E(nuc-nuc)
    E(ZPE)  - the the zero temperature vibrational energy from the frequency calculation
    E(vib)  - the the finite temperature correction to E(ZPE) due to population
              of excited vibrational states
    E(rot)  - is the rotational thermal energy
    E(trans)- is the translational thermal energy

Summary of contributions to the inner energy U:
Electronic energy                ...  -2713.89761940 Eh
Zero point energy                ...      0.03665540 Eh      23.00 kcal/mol
Thermal vibrational correction   ...      0.00171635 Eh       1.08 kcal/mol
Thermal rotational correction    ...      0.00141627 Eh       0.89 kcal/mol
Thermal translational correction ...      0.00141627 Eh       0.89 kcal/mol
-----------------------------------------------------------------------
Total thermal energy                  -2713.85641510 Eh


Summary of corrections to the electronic energy:
(perhaps to be used in another calculation)
Total thermal correction                  0.00454889 Eh       2.85 kcal/mol
Non-thermal (ZPE) correction              0.03665540 Eh      23.00 kcal/mol
-----------------------------------------------------------------------
Total correction                          0.04120429 Eh      25.86 kcal/mol


--------
ENTHALPY
--------

The enthalpy is H = U + kB*T
                kB is Boltzmann's constant
Total thermal energy              ...  -2713.85641510 Eh 
Thermal Enthalpy correction       ...      0.00094421 Eh       0.59 kcal/mol
-----------------------------------------------------------------------
Total Enthalpy                    ...  -2713.85547089 Eh


Note: Rotational entropy computed according to Herzberg 
Infrared and Raman Spectra, Chapter V,1, Van Nostrand Reinhold, 1945 
Point Group:  Cs, Symmetry Number:   1  
Rotational constants in cm-1:     2.064357     0.053518     0.052686 

Vibrational entropy computed according to the QRRHO of S. Grimme
Chem.Eur.J. 2012 18 9955 using a reference frequency of 100.0 cm-1


-------
ENTROPY
-------

The entropy contributions are T*S = T*(S(el)+S(vib)+S(rot)+S(trans))
     S(el)   - electronic entropy
     S(vib)  - vibrational entropy
     S(rot)  - rotational entropy
     S(trans)- translational entropy
The entropies will be listed as multiplied by the temperature to get
units of energy

Electronic entropy                ...      0.00000000 Eh      0.00 kcal/mol
Vibrational entropy               ...      0.00309484 Eh      1.94 kcal/mol
Rotational entropy                ...      0.01194034 Eh      7.49 kcal/mol
Translational entropy             ...      0.01905598 Eh     11.96 kcal/mol
-----------------------------------------------------------------------
Final entropy term                ...      0.03409116 Eh     21.39 kcal/mol

In case the symmetry of your molecule has not been determined correctly
or in case you have a reason to use a different symmetry number we print 
out the resulting rotational entropy values for sn=1,12:

 non-linear molecules -----------------------------------
|  sn= 1 | S(rot)=       0.01194034 Eh      7.49 kcal/mol|
|  sn= 2 | S(rot)=       0.01128588 Eh      7.08 kcal/mol|
|  sn= 3 | S(rot)=       0.01090305 Eh      6.84 kcal/mol|
|  sn= 4 | S(rot)=       0.01063143 Eh      6.67 kcal/mol|
|  sn= 5 | S(rot)=       0.01042074 Eh      6.54 kcal/mol|
|  sn= 6 | S(rot)=       0.01024859 Eh      6.43 kcal/mol|
|  sn= 7 | S(rot)=       0.01010305 Eh      6.34 kcal/mol|
|  sn= 8 | S(rot)=       0.00997697 Eh      6.26 kcal/mol|
|  sn= 9 | S(rot)=       0.00986576 Eh      6.19 kcal/mol|
|  sn=10 | S(rot)=       0.00976628 Eh      6.13 kcal/mol|
|  sn=11 | S(rot)=       0.00967629 Eh      6.07 kcal/mol|
|  sn=12 | S(rot)=       0.00959414 Eh      6.02 kcal/mol|
 linear molecules ---------------------------------------
|  Dinfh | S(rot)=       0.00810491 Eh      5.09 kcal/mol|
|  Cinfv | S(rot)=       0.00875936 Eh      5.50 kcal/mol|
 --------------------------------------------------------


-------------------
GIBBS FREE ENERGY
-------------------

The Gibbs free energy is G = H - T*S

Total enthalpy                    ...  -2713.85547089 Eh 
Total entropy correction          ...     -0.03409116 Eh    -21.39 kcal/mol
-----------------------------------------------------------------------
Final Gibbs free energy         ...  -2713.88956205 Eh

For completeness - the Gibbs free energy minus the electronic energy
G-E(el)                           ...      0.00805734 Eh      5.06 kcal/mol


Maximum memory used throughout the entire PROP-calculation: 30.9 MB
Actual Hessian File stored as ts_optfreq.001.hess
------------------------------------------------------------------------------
                         ORCA GEOMETRY RELAXATION STEP
------------------------------------------------------------------------------

Reading the OPT-File                    .... done
Getting information on internals        .... done
Copying old internal coords+grads       .... done
Making the new internal coordinates     .... (2022 redundants) done
Validating the new internal coordinates .... (2022 redundants) done
Calculating the B-matrix                .... done
Calculating the G,G- and P matrices     .... done
Transforming gradient to internals      .... done
Projecting the internal gradient        .... done
Number of atoms                         ....   6
Number of internal coordinates          ....  15
Current Energy                          .... -2713.897619395 Eh
Current gradient norm                   ....     0.023242491 Eh/bohr
Maximum allowed component of the step   ....  0.300
Current trust radius                    ....  0.300
Evaluating the initial hessian          ....  (read) 
(Reading Exact Hessian)...  
InHessName: ts_optfreq.hess	The file <ts_optfreq.hess> is opened as a .hess file
done
done
Projecting the Hessian                  .... done
Diagonalizing the Hessian               .... done
Dimension of the hessian                ....  15
Lowest eigenvalues of the Hessian:
 -0.014423661  0.002594512  0.028822278  0.057545066  0.074081682
Hessian has   1 negative eigenvalues
Taking P-RFO step
Searching for lambda that maximizes along the lowest mode
TS mode is mode number   0 with eigenvalue  -0.01442366 and components:
   1.   -0.01224576
   2.   -0.07343191
   3.   -0.01229859
   4.    0.09982027
   5.    0.48583771
   6.    0.02282415
   7.   -0.01058429
   8.   -0.01342451
   9.    0.02559932
  10.   -0.01334723
  11.   -0.01033128
  12.   -0.86396905
  13.    0.00758085
  14.    0.00036787
  15.   -0.00711693

Lambda that maximizes along the TS mode:       0.00000016
Searching for lambda that minimizes along all other modes
In cycle   1: lambdaN =  -0.00287072   step =   0.00287072
In cycle   2: lambdaN =  -0.00287760   step =   0.00000688
In cycle   3: lambdaN =  -0.00287760   step =   0.00000000
Lambda that minimizes along all other modes:  -0.00287760
The final length of the internal step   ....       0.1897
Converting the step to Cartesian space:
 Initial RMS(Int)=    0.0489782266
Transforming coordinates:
 Iter   0:  RMS(Cart)=    0.0416504388 RMS(Int)=    1.6227776235
done
Storing new coordinates                 .... done

                                .--------------------.
          ----------------------|Geometry convergence|-------------------------
          Item                value                   Tolerance       Converged
          ---------------------------------------------------------------------
          RMS gradient        0.0050794654            0.0001000000      NO
          MAX gradient        0.0172098364            0.0003000000      NO
          RMS step            0.0489782266            0.0020000000      NO
          MAX step            0.1422109186            0.0040000000      NO
          -------------------------------------------------------------------------
          ........................................................
          Max(Bonds)      0.0753      Max(Angles)    2.37
          Max(Dihed)        1.50      Max(Improp)    0.00
          ---------------------------------------------------------------------

The optimization has not yet converged - more geometry cycles are needed


    ---------------------------------------------------------------------------
                         Redundant Internal Coordinates
                            (Angstroem and degrees)

        Definition                    Value    dE/dq     Step     New-Value  comp.(TS mode)
    ----------------------------------------------------------------------------
     1. B(H   1,C   0)                1.0845 -0.002137  0.0020    1.0866   
[...]
Rotational spectrum 
--------------------
 
Rotational constants in cm-1:             2.199942             0.051904             0.051213 
Rotational constants in MHz :         65952.609123          1556.048848          1535.320302 

Dipole components along the rotational axes: 
x,y,z [a.u.] :     3.732898     0.434342     0.000229 
x,y,z [Debye]:     9.488272     1.104010     0.000582 

 

Dipole moment calculation done in   0.1 sec 

-----------
SCF HESSIAN
-----------

Occupied/Occupied contributions to the Hessian:
   => Occupied/Occupied contributions              ... done (  0.0 sec)
Perturbed density contributions to the Hessian:
   => Perturbed density contributions              ... done (  0.0 sec)
Explicit contributions to the Hessian:
   => Nuclear repulsion Hessian                    ... done (  0.0 sec)
   => HCore and overlap Hessian                    ... done (  0.4 sec)
   => RI-J Hessian                                 ... done (  0.7 sec)
   => XC-Hessian                                   ... done (  3.9 sec)
   => Van der Waals-Hessian                        ... done (  0.4 sec)
   => GCP-Hessian                                  ... done (  0.0 sec)
   => Explicit contributions done
Dipole derivatives                                 ... done (  0.0 sec)
Mass weighting the Hessian           ... done
Calculating normal modes             ... done
Scaling frequencies                  ... done

-----------------------
VIBRATIONAL FREQUENCIES
-----------------------

Scaling factor for frequencies =  1.000000000  (already applied!)

     0:       0.00 cm**-1
     1:       0.00 cm**-1
     2:       0.00 cm**-1
     3:       0.00 cm**-1
     4:       0.00 cm**-1
     5:       0.00 cm**-1
     6:    -149.20 cm**-1  ***imaginary mode***
     7:     200.05 cm**-1
     8:     215.05 cm**-1
     9:     417.52 cm**-1
    10:     676.22 cm**-1
    11:     931.94 cm**-1
    12:    1195.15 cm**-1
    13:    1423.12 cm**-1
    14:    1447.78 cm**-1
    15:    2955.43 cm**-1
    16:    3156.67 cm**-1
    17:    3221.23 cm**-1


------------
NORMAL MODES
------------

These modes are the Cartesian displacements weighted by the diagonal matrix
M(i,i)=1/sqrt(m[i]) where m[i] is the mass of the displaced atom
Thus, these vectors are normalized but *not* orthogonal

                  0          1          2          3          4          5    
      0       0.000000   0.000000   0.000000   0.000000   0.000000   0.000000
      1       0.000000   0.000000   0.000000   0.000000   0.000000   0.000000
      2       0.000000   0.000000   0.000000   0.000000   0.000000   0.000000
      3       0.000000   0.000000   0.000000   0.000000   0.000000   0.000000
      4       0.000000   0.000000   0.000000   0.000000   0.000000   0.000000
      5       0.000000   0.000000   0.000000   0.000000   0.000000   0.000000
      6       0.000000   0.000000   0.000000   0.000000   0.000000   0.000000
      7       0.000000   0.000000   0.000000   0.000000   0.000000   0.000000
      8       0.000000   0.000000   0.000000   0.000000   0.000000   0.000000
      9       0.000000   0.000000   0.000000   0.000000   0.000000   0.000000
     10       0.000000   0.000000   0.000000   0.000000   0.000000   0.000000
     11       0.000000   0.000000   0.000000   0.000000   0.000000   0.000000
     12       0.000000   0.000000   0.000000   0.000000   0.000000   0.000000
     13       0.000000   0.000000   0.000000   0.000000   0.000000   0.000000
     14       0.000000   0.000000   0.000000   0.000000   0.000000   0.000000
     15       0.000000   0.000000   0.000000   0.000000   0.000000   0.000000
     16       0.000000   0.000000   0.000000   0.000000   0.000000   0.000000
     17       0.000000   0.000000   0.000000   0.000000   0.000000   0.000000
                  6          7          8          9         10         11    
      0       0.283735  -0.089006   0.121764  -0.208294  -0.107132  -0.041531
      1      -0.163094  -0.155827  -0.081951   0.120703   0.061381  -0.071933
      2      -0.129942  -0.000041  -0.080901  -0.641944   0.028211  -0.000191
      3       0.345612   0.464371   0.178232  -0.154031   0.057322   0.202452
      4      -0.182617  -0.145208  -0.092544   0.146783   0.029275   0.008359
      5      -0.263725  -0.176216  -0.197145  -0.389861  -0.260061   0.658856
      6       0.488971  -0.326421   0.205260  -0.039727   0.300069   0.103761
      7      -0.275855  -0.566033  -0.159482   0.021925  -0.174011   0.180517
      8       0.283941  -0.001511   0.096208  -0.343774   0.848624  -0.000442
      9       0.336843  -0.357894   0.130597  -0.205021   0.001933  -0.093408
     10      -0.216048   0.328792  -0.073676   0.062020  -0.061684   0.179646
     11      -0.265941   0.177604  -0.177447  -0.387758  -0.259808  -0.658435
     12      -0.027229   0.007686  -0.001041   0.030998   0.008621   0.003854
     13       0.015661   0.013582   0.001574  -0.017990  -0.004942   0.006679
     14       0.036137   0.001002  -0.185204   0.092774  -0.006818   0.000021
     15      -0.127023   0.035618  -0.099881   0.022479   0.012409  -0.001244
     16       0.073034   0.061689   0.062474  -0.012892  -0.007070  -0.002167
     17      -0.056791  -0.004182   0.844830   0.075172  -0.006605   0.000034
                 12         13         14         15         16         17    
      0      -0.000331   0.066167  -0.036922  -0.033940   0.073056   0.048656
      1       0.000138  -0.038450  -0.063598   0.019546  -0.042459   0.083849
      2      -0.088175  -0.008259   0.000154   0.042740  -0.006716   0.000062
      3       0.037036  -0.683214   0.295680  -0.013829  -0.019058   0.047839
      4       0.060595  -0.067016  -0.050027   0.291613   0.652277  -0.696930
      5       0.642389  -0.026796  -0.274315  -0.016921  -0.061801   0.062714
      6       0.191630   0.137470   0.406978   0.689437  -0.274321   0.011948
      7      -0.109109  -0.075663   0.708580  -0.397162   0.157913   0.022909
      8       0.326820   0.150044  -0.001253  -0.438786   0.198273   0.000677
      9      -0.035180  -0.285873  -0.189685  -0.259315  -0.569813  -0.630730
     10      -0.062428   0.626576   0.226248  -0.134096  -0.308362  -0.309948
     11       0.643338  -0.025053   0.272959  -0.017312  -0.062398  -0.064133
     12      -0.002784   0.000625  -0.000392   0.000190  -0.000153  -0.000070
     13       0.001608  -0.000362  -0.000678  -0.000109   0.000088  -0.000119
     14      -0.006684   0.000096   0.000007  -0.000256   0.000045  -0.000000
     15       0.001651  -0.000336  -0.002227  -0.001427   0.000255  -0.000175
     16      -0.000965   0.000157  -0.003888   0.000817  -0.000151  -0.000302
     17      -0.001700  -0.000390   0.000013  -0.000845   0.000125   0.000001


-----------
IR SPECTRUM
-----------

 Mode   freq       eps      Int      T**2         TX        TY        TZ
       cm**-1   L/(mol*cm) km/mol    a.u.
----------------------------------------------------------------------------
  7:    200.05   0.000554    2.80  0.000865  (-0.014813 -0.025342  0.001764)
  8:    215.05   0.014263   72.08  0.020697  ( 0.020196 -0.012260 -0.141913)
  9:    417.52   0.054359  274.71  0.040630  (-0.005529  0.003176 -0.201468)
 10:    676.22   0.017969   90.81  0.008292  (-0.009055  0.005315  0.090456)
 11:    931.94   0.000265    1.34  0.000089  ( 0.004718  0.008157  0.000009)
 12:   1195.15   0.003491   17.64  0.000912  (-0.015906  0.009336 -0.023904)
 13:   1423.12   0.002632   13.30  0.000577  (-0.015256  0.008938  0.016267)
 14:   1447.78   0.002420   12.23  0.000522  ( 0.011478  0.019746  0.000055)
 15:   2955.43   0.033419  168.88  0.003529  ( 0.016587 -0.009652 -0.056217)
 16:   3156.67   0.007630   38.56  0.000754  ( 0.001738 -0.001044  0.027389)
 17:   3221.23   0.001079    5.45  0.000105  ( 0.005025  0.008904  0.000067)

* The epsilon (eps) is given for a Dirac delta lineshape.
** The dipole moment derivative (T) already includes vibrational overlap.

The first frequency considered to be a vibration is 7
The total number of vibrations considered is 11


--------------------------
THERMOCHEMISTRY AT 298.15K
--------------------------

Temperature         ...   298.15 K
Pressure            ...     1.00 atm
Total Mass          ...   113.93 AMU
Quasi RRHO          ...     True
Cut-Off Frequency   ...     1.00 cm^-1

Throughout the following assumptions are being made:
  (1) The electronic state is orbitally nondegenerate
  (2) There are no thermally accessible electronically excited states
  (3) Hindered rotations indicated by low frequency modes are not
      treated as such but are treated as vibrations and this may
      cause some error
  (4) All equations used are the standard statistical mechanics
      equations for an ideal gas
  (5) All vibrations are strictly harmonic

freq.     200.05  E(vib)   ...       0.35 
freq.     215.05  E(vib)   ...       0.34 
freq.     417.52  E(vib)   ...       0.18 
freq.     676.22  E(vib)   ...       0.08 
freq.     931.94  E(vib)   ...       0.03 
freq.    1195.15  E(vib)   ...       0.01 
freq.    1423.12  E(vib)   ...       0.00 
freq.    1447.78  E(vib)   ...       0.00 
freq.    2955.43  E(vib)   ...       0.00 
freq.    3156.67  E(vib)   ...       0.00 
freq.    3221.23  E(vib)   ...       0.00 

------------
INNER ENERGY
------------

The inner energy is: U= E(el) + E(ZPE) + E(vib) + E(rot) + E(trans)
    E(el)   - is the total energy from the electronic structure calculation
              = E(kin-el) + E(nuc-el) + E(el-el) + E(nuc-nuc)
    E(ZPE)  - the the zero temperature vibrational energy from the frequency calculation
    E(vib)  - the the finite temperature correction to E(ZPE) due to population
              of excited vibrational states
    E(rot)  - is the rotational thermal energy
    E(trans)- is the translational thermal energy

Summary of contributions to the inner energy U:
Electronic energy                ...  -2713.89935088 Eh
Zero point energy                ...      0.03608654 Eh      22.64 kcal/mol
Thermal vibrational correction   ...      0.00159133 Eh       1.00 kcal/mol
Thermal rotational correction    ...      0.00141627 Eh       0.89 kcal/mol
Thermal translational correction ...      0.00141627 Eh       0.89 kcal/mol
-----------------------------------------------------------------------
Total thermal energy                  -2713.85884046 Eh


Summary of corrections to the electronic energy:
(perhaps to be used in another calculation)
Total thermal correction                  0.00442388 Eh       2.78 kcal/mol
Non-thermal (ZPE) correction              0.03608654 Eh      22.64 kcal/mol
-----------------------------------------------------------------------
Total correction                          0.04051042 Eh      25.42 kcal/mol


--------
ENTHALPY
--------

The enthalpy is H = U + kB*T
                kB is Boltzmann's constant
Total thermal energy              ...  -2713.85884046 Eh 
Thermal Enthalpy correction       ...      0.00094421 Eh       0.59 kcal/mol
-----------------------------------------------------------------------
Total Enthalpy                    ...  -2713.85789625 Eh


Note: Only C1 symmetry has been detected, increase convergence thresholds 
      if your molecule has a higher symmetry. Symmetry factor of 1.0 is   
      used for the rotational entropy correction. 
 

Note: Rotational entropy computed according to Herzberg 
Infrared and Raman Spectra, Chapter V,1, Van Nostrand Reinhold, 1945 
Point Group:  C1, Symmetry Number:   1  
Rotational constants in cm-1:     2.199944     0.051904     0.051213 

Vibrational entropy computed according to the QRRHO of S. Grimme
Chem.Eur.J. 2012 18 9955 using a reference frequency of 100.0 cm-1


-------
ENTROPY
-------

The entropy contributions are T*S = T*(S(el)+S(vib)+S(rot)+S(trans))
     S(el)   - electronic entropy
     S(vib)  - vibrational entropy
     S(rot)  - rotational entropy
     S(trans)- translational entropy
The entropies will be listed as multiplied by the temperature to get
units of energy

Electronic entropy                ...      0.00000000 Eh      0.00 kcal/mol
Vibrational entropy               ...      0.00264817 Eh      1.66 kcal/mol
Rotational entropy                ...      0.01193815 Eh      7.49 kcal/mol
Translational entropy             ...      0.01905598 Eh     11.96 kcal/mol
-----------------------------------------------------------------------
Final entropy term                ...      0.03364230 Eh     21.11 kcal/mol

In case the symmetry of your molecule has not been determined correctly
or in case you have a reason to use a different symmetry number we print 
out the resulting rotational entropy values for sn=1,12:

 non-linear molecules -----------------------------------
|  sn= 1 | S(rot)=       0.01193815 Eh      7.49 kcal/mol|
|  sn= 2 | S(rot)=       0.01128370 Eh      7.08 kcal/mol|
|  sn= 3 | S(rot)=       0.01090086 Eh      6.84 kcal/mol|
|  sn= 4 | S(rot)=       0.01062924 Eh      6.67 kcal/mol|
|  sn= 5 | S(rot)=       0.01041855 Eh      6.54 kcal/mol|
|  sn= 6 | S(rot)=       0.01024641 Eh      6.43 kcal/mol|
|  sn= 7 | S(rot)=       0.01010086 Eh      6.34 kcal/mol|
|  sn= 8 | S(rot)=       0.00997478 Eh      6.26 kcal/mol|
|  sn= 9 | S(rot)=       0.00986357 Eh      6.19 kcal/mol|
|  sn=10 | S(rot)=       0.00976410 Eh      6.13 kcal/mol|
|  sn=11 | S(rot)=       0.00967411 Eh      6.07 kcal/mol|
|  sn=12 | S(rot)=       0.00959195 Eh      6.02 kcal/mol|
 linear molecules ---------------------------------------
|  Dinfh | S(rot)=       0.00813169 Eh      5.10 kcal/mol|
|  Cinfv | S(rot)=       0.00878615 Eh      5.51 kcal/mol|
 --------------------------------------------------------


-------------------
GIBBS FREE ENERGY
-------------------

The Gibbs free energy is G = H - T*S

Total enthalpy                    ...  -2713.85789625 Eh 
Total entropy correction          ...     -0.03364230 Eh    -21.11 kcal/mol
-----------------------------------------------------------------------
Final Gibbs free energy         ...  -2713.89153855 Eh

For completeness - the Gibbs free energy minus the electronic energy
G-E(el)                           ...      0.00781233 Eh      4.90 kcal/mol


Maximum memory used throughout the entire PROP-calculation: 30.9 MB

--------------------------------
SUGGESTED CITATIONS FOR THIS RUN
--------------------------------

Below you find a list of papers that are relevant to this ORCA run
We neither can nor want to force you to cite these papers, but we appreciate if you do
You receive ORCA, which is the product of decades of hard work by many enthusiastic individuals, for free
The only thing we kindly ask in return is that you cite our papers,
We deeply appreciate it, if you show your appreciation for ORCA by not just citing the generic ORCA reference.

Please note that relegating all ORCA citations to the supporting information does *not* help us.
SI sections are not indexed - citations you put there will not count into any citation statistics
But we need these citations in order to attract the funding resources that allow us to do what we are doing

Therefore, if you are a happy ORCA user, please consider citing a few of the papers listed below in the main body of your paper

In addition to the list printed below, the program has created the file ts_optfreq.bibtex that contains the list in bibtex format
You can import this file easily into all common literature databanks and citation aid programs


List of essential papers. We consider these as the minimum necessary citations

  1. Grimme, S.; Hansen, A.; Ehlert, S.; Mewes, J.
     r2SCAN-3c: A 'Swiss army knife' composite electronic-structure method
     J. Chem. Phys. 2021 154 , 064103
     doi.org/10.1063/5.0040021
  2. Neese, F.
     Software update: the ORCA program system, version 6.0
     WIRES Comput. Molec. Sci. 2025 15(1), e70019
     doi.org/10.1002/wcms.7019

List of papers to cite with high priority. The work reported in these papers was absolutely
necessary for this run to complete.
Our perspective: the developers of density functionals and basis sets usually get cited in chemistry papers
Good! But without the algorithms to do something with them, the functionals or basis sets would not do anything.
Hence, in our opinion, the algorithm design and method developments papers are equally worthy of getting cited

  1. Neese, F.
     An improvement of the resolution of the identity approximation for the formation of the Coulomb matrix
     J. Comp. Chem. 2003 24(14), 1740-1747
     doi.org/10.1002/jcc.10318
  2. Bykov, D.; Petrenko, T.; Izsak, R.; Kossmann, S.; Becker, U.; Valeev, E.; Neese, F.
     Efficient implementation of the analytic second derivatives of Hartree-Fock and hybrid DFT energies: a detailed analysis of different approximations
     Molec. Phys. 2015 113 , 1961-1977
     doi.org/10.1080/00268976.2015.1025114
  3. Caldeweyher, E.; Bannwarth, C.; Grimme, S.
     Extension of the D3 dispersion coefficient model
     J. Chem. Phys. 2017 147 , 034112
     doi.org/10.1063/1.4993215
  4. Lehtola, S.; Steigemann, C.; Oliveira, M.; Marques, M.
     Recent developments in Libxc - A comprehensive library of functionals for density functional theory
     Software X 2018 7 , 
     doi.org/10.1016/j.softx.2017.11.002
  5. Caldeweyher, E.; Ehlert, S.; Hansen, A.; Neugebauer, H.; Spicher, S.; Bannwarth, C.; Grimme, S.
     A generally applicable atomic-charge dependent London dispersion correction
     J. Chem. Phys. 2019 150 , 154122
     doi.org/10.1063/1.5090222
  6. Caldeweyher, E.; Mewes, J.; Ehlert, S.; Grimme, S.
     Extension and evaluation of the D4 London-dispersion model for periodic systems
     Phys. Chem. Chem. Phys. 2020 22(16), 8499-8512
     doi.org/10.1039/D0CP00502A
  7. Neese, F.
     The SHARK Integral Generation and Digestion System
     J. Comp. Chem. 2022 44(3), 381
     doi.org/10.1002/jcc.26942
  8. Wittmann, L.; Gordiy, I.; Friede, M.; Helmich-Paris, B.; Grimme, S.; Hansen, A.; Bursch, M.
     Extension of the D3 and D4 London Dispersion Corrections to the full Actinides Series
     Phys. Chem. Chem. Phys. 2024 26(32), 21379-21394
     doi.org/10.1039/D4CP01514B

List of suggested additional citations. These are papers that are important in the 'surrounding' of 
of this run, or papers that preceded the highly important papers. If you like your results we are grateful for a citation.

  1. Neese, F.
     The ORCA program system
     WIRES Comput. Molec. Sci. 2012 2(1), 73-78
     doi.org/10.1002/wcms.81
  2. Neese, F.
     Software update: the ORCA program system, version 4.0
     WIRES Comput. Molec. Sci. 2018 8(1), 1-6
     doi.org/10.1002/wcms.1327
  3. Neese, F.; Wennmohs, F.; Becker, U.; Riplinger, C.
     The ORCA quantum chemistry program package
     J. Chem. Phys. 2020 152(22), 224108
     doi.org/10.1063/5.0004608
  4. Neese, F.
     Software update: The ORCA program system—Version 5.0
     WIRES Comput. Molec. Sci. 2022 12(1), e1606
     doi.org/10.1002/wcms.1606

List of optional additional citations

  1. Neese, F.
     Approximate second-order SCF convergence for spin unrestricted wavefunctions
     Chem. Phys. Lett. 2000 325(1-3), 93-98
     doi.org/10.1016/s0009-2614(00)00662-x

Timings for individual modules:

Sum of individual times          ...       84.097 sec (=   1.402 min)
Startup calculation              ...       10.212 sec (=   0.170 min)  12.1 %
SCF iterations                   ...       34.845 sec (=   0.581 min)  41.4 %
Property integrals               ...       12.275 sec (=   0.205 min)  14.6 %
SCF Response                     ...        5.707 sec (=   0.095 min)   6.8 %
Property calculations            ...        6.450 sec (=   0.108 min)   7.7 %
SCF Gradient evaluation          ...       14.583 sec (=   0.243 min)  17.3 %
Geometry relaxation              ...        0.025 sec (=   0.000 min)   0.0 %
                             ****ORCA TERMINATED NORMALLY****
TOTAL RUN TIME: 0 days 0 hours 1 minutes 50 seconds 420 msec
