
                                 *****************
                                 * O   R   C   A *
                                 *****************

                                            #,                                       
                                            ###                                      
                                            ####                                     
                                            #####                                    
                                            ######                                   
                                           ########,                                 
                                     ,,################,,,,,                         
                               ,,#################################,,                 
                          ,,##########################################,,             
                       ,#########################################, ''#####,          
                    ,#############################################,,   '####,        
                  ,##################################################,,,,####,       
                ,###########''''           ''''###############################       
              ,#####''   ,,,,##########,,,,          '''####'''          '####       
            ,##' ,,,,###########################,,,                        '##       
           ' ,,###''''                  '''############,,,                           
         ,,##''                                '''############,,,,        ,,,,,,###''
      ,#''                                            '''#######################'''  
     '                                                          ''''####''''         
             ,#######,   #######,   ,#######,      ##                                
            ,#'     '#,  ##    ##  ,#'     '#,    #''#        ,####,    ,#,          
            ##       ##  ##   ,#'  ##            #'  '#       #'       ,# #          
            ##       ##  #######   ##           ,######,      #####,      #          
            '#,     ,#'  ##    ##  '#,     ,#' ,#      #,     #,   #      #          
             '#######'   ##     ##  '#######'  #'      '#     '####' #    #          



                #########################################################
                #                        -***-                          #
                #          Department of theory and spectroscopy        #
                #                                                       #
                #                      Frank Neese                      #
                #                                                       #
                #     Directorship, Architecture, Infrastructure        #
                #                    SHARK, DRIVERS                     #
                #        Core code/Algorithms in most modules           #
                #                                                       #
                #        Max Planck Institute fuer Kohlenforschung      #
                #                Kaiser Wilhelm Platz 1                 #
                #                 D-45470 Muelheim/Ruhr                 #
                #                      Germany                          #
                #                                                       #
                #                  All rights reserved                  #
                #                        -***-                          #
                #########################################################


                         Program Version 6.1.0  -  RELEASE   -
                                (GIT: $679e74b$)
                          ($2025-06-10 18:02:51 +0200$)


 With contributions from (in alphabetic order):
[Max-Planck-Institut fuer Kohlenforschung]                               
  Daniel Aravena         : Magnetic Suceptibility                        
  Michael Atanasov       : Ab Initio Ligand Field Theory (pilot matlab implementation)
  Alexander A. Auer      : GIAO ZORA, VPT2 properties, NMR spectrum      
  Ute Becker             : All parallelization in ORCA, NUMFREQ, NUMCALC 
  Giovanni Bistoni       : ED, misc. LED, open-shell LED, HFLD           
  Dmytro Bykov           : pre 5.0 version of the SCF Hessian            
  Marcos Casanova-Páez   : Triplet and SCS-CIS(D). UHF-(DLPNO)-IP/EA/STEOM-CCSD. UHF-CVS-IP/STEOM-CCSD   
  Vijay G. Chilkuri      : MRCI spin determinant printing, contributions to CSF-ICE 
  Pauline Colinet        : FMM embedding                                 
  Dipayan Datta          : RHF DLPNO-CCSD density                        
  Achintya Kumar Dutta   : EOM-CC, STEOM-CC                              
  Nicolas Foglia         : Exact transition moments, OPA infrastructure, MCD improvements    
  Dmitry Ganyushin       : Spin-Orbit,Spin-Spin,Magnetic field MRCI      
  Miquel Garcia-Rates    : C-PCM and meta-GGA Hessian, CCSD/C-PCM, Gaussian charge scheme 
  Tiago L. C. Gouveia    : GS-ROHF, GS-ROCIS                             
  Yang Guo               : DLPNO-NEVPT2, F12-NEVPT2, CIM, IAO-localization        
  Andreas Hansen         : Spin unrestricted coupled pair/coupled cluster methods 
  Ingolf Harden          : AUTO-CI MPn and infrastructure                
  Benjamin Helmich-Paris : MC-RPA, TRAH-(SCF,CASSCF), AVAS, COSX integrals, SCF dyn. polar., MC-PDFT, srDFT 
  Lee Huntington         : MR-EOM, pCC                                   
  Robert Izsak           : Overlap fitted RIJCOSX, COSX-SCS-MP3, EOM     
  Riya Kayal             : Wick's Theorem for AUTO-CI, AUTO-CI UHF-CCSDT 
  Emily Kempfer          : AUTO-CI RHF CISDT and CCSDT, approximate NEVPT4
  Christian Kollmar      : KDIIS, OOCD, Brueckner-CCSD(T), CCSD density, CASPT2, CASPT2-K, improved NEVPT2 
  Axel Koslowski         : Symmetry handling                             
  Simone Kossmann        : meta-GGA functionals, TD-DFT gradient, OOMP2, (MP2 Hessian; deprecated post 5.0) 
  Lucas Lang             : DCDCAS, Hyperfine gauge corrections, ICE-SOC+SSC
  Marvin Lechner         : AUTO-CI (C++ implementation), FIC-MRCC        
  Spencer Leger          : CASSCF response                               
  Dagmar Lenk            : GEPOL surface, SMD, ORCA-2-JSON               
  Dimitrios Liakos       : Extrapolation schemes; Compound Job, Property file
  Dimitrios Manganas     : Further ROCIS development; embedding schemes. LFT, Crystal Embedding 
  Dimitrios Pantazis     : SARC Basis sets                               
  Anastasios Papadopoulos: AUTO-CI, single reference methods and gradients 
  Taras Petrenko         : pre 6.0 DFT Hessian and TD-DFT gradient,  ECA, NRVS 
  Petra Pikulova         : Analytic Raman intensities                    
  Peter Pinski           : DLPNO-MP2, DLPNO-MP2 Gradient                 
  Shashank Vittal Rao    : ES-AILFT, MagRelax                            
  Christoph Reimann      : Effective Core Potentials                     
  Marius Retegan         : Local ZFS, SOC                                
  Christoph Riplinger    : Optimizer, TS searches, QM/MM, DLPNO-CCSD(T), (RO)-DLPNO pert. Triples 
  Michael Roemelt        : Original ROCIS implementation, recursive CI coupling coefficients
  Masaaki Saitow         : Open-shell DLPNO-CCSD energy and density      
  Barbara Sandhoefer     : DKH picture change effects                    
  Yorick L. A. Schmerwitz: GMF and freeze-and-release deltaSCF, NEB S-IDPP initial path                    
  Kantharuban Sivalingam : CASSCF convergence/infrastructure, NEVPT2, NEVPT3, NEVPT4(SD), FIC-MRCI and CEPA variants
  Bernardo de Souza      : ESD, SOC TD-DFT                               
  Georgi L. Stoychev     : AutoAux, RI-MP2 NMR, DLPNO-MP2 response, X2C  
  Van Anh Tran           : RI-MP2 g-tensors                              
  Willem Van den Heuvel  : Paramagnetic NMR                              
  Zikuan Wang            : NOTCH, Electric field optimization            
  Frank Wennmohs         : Technical directorship and infrastructure     
  Hang Xu                : AUTO-CI-Response properties                   
                                                                         
[FACCTs GmbH]                                                            
  Markus Bursch, Nicolas Foglia, Miquel Garcia-Rates, Ingolf Harden, Hagen Neugebauer, Anastasios Papadopoulos, 
  Christoph Riplinger, Bernardo de Souza, Georgi L. Stoychev                                                    
                                                                 
  APM, various basis sets, CI-OPT, improved COSX, DLPNO-Multilevel,           
  DOCKER, DRACO, updates on ESD, Fragmentator, GOAT, IRC, LR-CPCM, L-BFGS, MBIS, meta-GGA TD-DFT gradient, ML-optimized integration grids, 
  MM, NACMEs, nearIR, NEB, NEB-TS, NL-DFT gradient (VV10), 2- and 3-layer-ONIOM, interface openCOSMO-RS, QMMM,   
  Crystal-QMMM, RESP, rigid body optimization, SF, symmetry and pop. for TD-DFT, various functionals, SOLVATOR                                   
                                                                         
[Other institutions]                                                     
  V. Asgeirsson          : NEB                                           
  Christoph Bannwarth    : sTDA-DFT, sTD-DFT, PBEh-3c, B97-3c, D3        
  Giovanni Bistoni       : ETS/NOCV, ADLD/ADEX, COVALED                  
  Martin Brehm           : Molecular dynamics                            
  Ronald Cardenas        : ETS/NOCV                                      
  Martina Colucci        : COVALED                                       
  Sebastian Ehlert       : rSCAN, r2SCAN, r2SCAN-3c, D4, dhf basis sets  
  Marvin Friede          : D4 for Fr, Ra, Ac-Lr                          
  Lars Goerigk           : TD-DFT with DH, B97 family of functionals     
  Stefan Grimme          : VdW corrections, initial TS optimization, DFT functionals, gCP, sTDA/sTD-DF 
  Waldemar Hujo          : DFT-NL                                        
  H. Jonsson             : NEB                                           
  Holger Kruse           : gCP                                           
  Marcel Mueller         : wB97X-3c, vDZP basis set                      
  Hagen Neugebauer       : wr2SCAN, Native XTB                           
  Gianluca Regni         : ADLD/ADEX                                     
  Tobias Risthaus        : pre 6.0 range-separated hybrid DFT and stability analysis
  Lukas Wittmann         : regularized MP2, r2SCAN double-hybrids, wr2SCAN        
                                                                         
We gratefully acknowledge several colleagues who have allowed us to      
interface, adapt or use parts of their codes:                            
  Ed Valeev, F. Pavosevic, A. Kumar             : LibInt (2-el integral package), F12 methods 
  Garnet Chan, S. Sharma, J. Yang, R. Olivares  : DMRG                   
  Ulf Ekstrom                                   : XCFun DFT Library      
  Mihaly Kallay                                 : mrcc  (arbitrary order and MRCC methods)
  Frank Weinhold                                : gennbo (NPA and NBO analysis)           
  Simon Mueller                                 : openCOSMO-RS                            
  Christopher J. Cramer and Donald G. Truhlar   : smd solvation model                     
  S Lehtola, MJT Oliveira, MAL Marques          : LibXC Library                           
  Liviu Ungur et al                             : ANISO software                          


 Your calculation uses the libint2 library for the computation of 2-el integrals
 For citations please refer to: http://libint.valeyev.net

 Your ORCA version has been built with support for libXC version: 7.0.0
 For citations please refer to: https://libxc.gitlab.io

 This ORCA versions uses:
   CBLAS   interface :  Fast vector & matrix operations
   LAPACKE interface :  Fast linear algebra routines
   SCALAPACK package :  Parallel linear algebra routines
   Shared memory     :  Shared parallel matrices
   BLAS/LAPACK       :  OpenBLAS 0.3.29  USE64BITINT DYNAMIC_ARCH NO_AFFINITY SkylakeX SINGLE_THREADED
        Core in use  :  SkylakeX
   Copyright (c) 2011-2014, The OpenBLAS Project


  ***********************************
  * Starting time: Mon Mar 16 14:14:01 2026
  * Host name:     midway3-login4.rcc.local
  * Process ID:    45544
  * Working dir.:  /home/rzhu16/evans-polanyi-principle-validation/runs/sn2_f_cl/geo_opt_reactant_product
  ***********************************

Your calculation utilizes the semiempirical GFN2-xTB method
Please cite in your paper:
Bannwarth, C.; Ehlert S.; Grimme, S. J. Chem. Theory Comput. 2019, 15, 1652.
   

================================================================================

================================================================================
                                        WARNINGS
                       Please study these warnings very carefully!
================================================================================


WARNING: Analytical Hessian for XTB is limited in the analysis of the data.
       : If you want to obtain extensive IR and deltaG analysis, please use ! XTB NumFreq. 


WARNING: Geometry Optimization
  ===> : Switching off AutoStart
         For restart on a previous wavefunction, please use MOREAD

WARNING: Found dipole moment calculation with XTB calculation
  ===> : Switching off dipole moment calculation


WARNING: Found frequency calculation in combination with XTB calculation
  ===> : Need to redirect dipole moment calculation to properties.out


================================================================================
                                       INPUT FILE
================================================================================
NAME = product_optfreq.inp
|  1> ! XTB2 Opt Freq PAL8
|  2> 
|  3> %geom
|  4>   MaxIter 500
|  5> end
|  6> 
|  7> * xyz -1 1
|  8>   C      -0.102486     -0.059213     -0.020067
|  9>   H      -0.090392      1.003200      0.111683
| 10>   H       0.823754     -0.579755      0.111642
| 11>   H      -1.015385     -0.586420      0.119625
| 12>   F      -0.246402     -0.142265      2.006742
| 13>   Cl     -0.127538     -0.073619     -2.089688
| 14> *
| 15> 
| 16>                          ****END OF INPUT****
================================================================================

                       *****************************
                       * Geometry Optimization Run *
                       *****************************

Geometry optimization settings:
Update method            Update   .... BFGS
Choice of coordinates    CoordSys .... (2022) Redundant Internals
Initial Hessian          InHess   .... Almloef's Model
Max. no of cycles        MaxIter  .... 500

Convergence Tolerances:
Energy Change            TolE     ....  5.0000e-06 Eh
Max. Gradient            TolMAXG  ....  3.0000e-04 Eh/bohr
RMS Gradient             TolRMSG  ....  1.0000e-04 Eh/bohr
Max. Displacement        TolMAXD  ....  4.0000e-03 bohr
RMS Displacement         TolRMSD  ....  2.0000e-03 bohr
Strict Convergence                .... False

------------------------------------------------------------------------------
                        ORCA OPTIMIZATION COORDINATE SETUP
------------------------------------------------------------------------------

The optimization will be done in redundant internal coordinates (2022)
Making redundant internal coordinates   ...  (2022 redundants) done
Evaluating the initial hessian          ...  (Almloef) done
Evaluating the coordinates              ...  done
Calculating the B-matrix                .... done
Calculating the G-matrix                .... done
The number of degrees of freedom        ....   21

    -----------------------------------------------------------------
                    Redundant Internal Coordinates


    -----------------------------------------------------------------
         Definition                    Initial Value    Approx d2E/dq
    -----------------------------------------------------------------
      1. B(H   1,C   0)                  1.0706         0.386673   
      2. B(H   2,C   0)                  1.0706         0.386669   
      3. B(H   3,C   0)                  1.0634         0.397047   
      4. B(F   4,H   3)                  2.0856         0.010000   
      5. B(F   4,C   0)                  2.0336         0.048880   
      6. B(F   4,H   1)                  2.2198         0.010000   
      7. B(F   4,H   2)                  2.2199         0.010000   
      8. B(Cl  5,H   1)                  2.4509         0.010000   
      9. B(Cl  5,H   3)                  2.4356         0.010000   
     10. B(Cl  5,H   2)                  2.4509         0.010000   
     11. B(Cl  5,C   0)                  2.0698         0.115377   
     12. A(H   1,C   0,H   3)          119.0453         0.298703   
     13. A(H   2,C   0,H   3)          119.0443         0.298703   
     14. A(H   1,C   0,Cl  5)           97.4749         0.282875   
     15. A(H   2,C   0,Cl  5)           97.4752         0.282874   
     16. A(H   3,C   0,Cl  5)           96.7483         0.284040   
     17. A(H   1,C   0,F   4)           85.3354         0.237841   
     18. A(H   2,C   0,F   4)           85.3401         0.237841   
     19. A(H   3,C   0,F   4)           77.7650         0.238736   
     20. A(F   4,C   0,Cl  5)          174.5133         0.227434   
     21. A(H   1,C   0,H   2)          117.2302         0.297450   
    -----------------------------------------------------------------

Number of atoms                         .... 6
Number of degrees of freedom            .... 21


         *************************************************************
         *                GEOMETRY OPTIMIZATION CYCLE   1            *
         *************************************************************
---------------------------------
CARTESIAN COORDINATES (ANGSTROEM)
---------------------------------
  C    -0.102486   -0.059213   -0.020067
  H    -0.090392    1.003200    0.111683
  H     0.823754   -0.579755    0.111642
  H    -1.015385   -0.586420    0.119625
  F    -0.246402   -0.142265    2.006742
  Cl   -0.127538   -0.073619   -2.089688

----------------------------
CARTESIAN COORDINATES (A.U.)
----------------------------
  NO LB    ZA    FRAG    MASS        X           Y           Z
   0 C   6.0000    0    12.011   -0.193670   -0.111896   -0.037921
   1 H   1.0000    0     1.008   -0.170816    1.895773    0.211050
   2 H   1.0000    0     1.008    1.556669   -1.095578    0.210973
   3 H   1.0000    0     1.008   -1.918800   -1.108173    0.226058
   4 F   9.0000    0    18.998   -0.465632   -0.268842    3.792193
   5 Cl 17.0000    0    35.453   -0.241012   -0.139120   -3.948938

      -----------------------------------------------------------      
     |                   =====================                   |     
     |                           x T B                           |     
     |                   =====================                   |     
     |                         S. Grimme                         |     
     |          Mulliken Center for Theoretical Chemistry        |     
     |                    University of Bonn                     |     
      -----------------------------------------------------------      

   * xtb version 6.7.1 (edcfbbe) compiled by 'albert@albert-system' on 2024-07-22

   xtb is free software: you can redistribute it and/or modify it under
   the terms of the GNU Lesser General Public License as published by
   the Free Software Foundation, either version 3 of the License, or
   (at your option) any later version.
   
   xtb is distributed in the hope that it will be useful,
   but WITHOUT ANY WARRANTY; without even the implied warranty of
   MERCHANTABILITY or FITNESS FOR A PARTICULAR PURPOSE.  See the
   GNU Lesser General Public License for more details.
   
   Cite this work as:
   * C. Bannwarth, E. Caldeweyher, S. Ehlert, A. Hansen, P. Pracht,
     J. Seibert, S. Spicher, S. Grimme, WIREs Comput. Mol. Sci., 2020, 11,
     e01493. DOI: 10.1002/wcms.1493
   
   for GFN2-xTB:
   * C. Bannwarth, S. Ehlert and S. Grimme., J. Chem. Theory Comput., 2019,
     15, 1652-1671. DOI: 10.1021/acs.jctc.8b01176
   for GFN1-xTB:
   * S. Grimme, C. Bannwarth, P. Shushkov, J. Chem. Theory Comput., 2017,
     13, 1989-2009. DOI: 10.1021/acs.jctc.7b00118
   for GFN0-xTB:
   * P. Pracht, E. Caldeweyher, S. Ehlert, S. Grimme, ChemRxiv, 2019, preprint.
     DOI: 10.26434/chemrxiv.8326202.v1
   for GFN-FF:
   * S. Spicher and S. Grimme, Angew. Chem. Int. Ed., 2020, 59, 15665-15673.
     DOI: 10.1002/anie.202004239
   
   for ALPB and GBSA implicit solvation:
   * S. Ehlert, M. Stahn, S. Spicher, S. Grimme, J. Chem. Theory Comput.,
     2021, 17, 4250-4261. DOI: 10.1021/acs.jctc.1c00471
   
   for ddCOSMO and CPCM-X implicit solvation:
   * M. Stahn, S. Ehlert, S. Grimme, J. Phys. Chem. A,
     2023, XX, XXXX-XXXX. DOI: 10.1021/acs.jpca.3c04382
   
   for DFT-D4:
   * E. Caldeweyher, C. Bannwarth and S. Grimme, J. Chem. Phys., 2017,
     147, 034112. DOI: 10.1063/1.4993215
   * E. Caldeweyher, S. Ehlert, A. Hansen, H. Neugebauer, S. Spicher,
     C. Bannwarth and S. Grimme, J. Chem. Phys., 2019, 150, 154122.
     DOI: 10.1063/1.5090222
   * E. Caldeweyher, J.-M. Mewes, S. Ehlert and S. Grimme, Phys. Chem. Chem. Phys.
     2020, 22, 8499-8512. DOI: 10.1039/D0CP00502A
   
   for sTDA-xTB:
   * S. Grimme and C. Bannwarth, J. Chem. Phys., 2016, 145, 054103.
     DOI: 10.1063/1.4959605
   
   in the mass-spec context:
   * V. Asgeirsson, C. Bauer and S. Grimme, Chem. Sci., 2017, 8, 4879.
     DOI: 10.1039/c7sc00601b
   * J. Koopman and S. Grimme, ACS Omega 2019, 4, 12, 15120-15133.
     DOI: 10.1021/acsomega.9b02011
   
   for metadynamics refer to:
   * S. Grimme, J. Chem. Theory Comput., 2019, 155, 2847-2862
     DOI: 10.1021/acs.jctc.9b00143
   
   for SPH calculations refer to:
   * S. Spicher and S. Grimme, J. Chem. Theory Comput., 2021, 17, 1701-1714
     DOI: 10.1021/acs.jctc.0c01306
   
   for ONIOM refer to:
   * C. Plett, A. Katbashev, S. Ehlert, S. Grimme, M. Bursch,
     Phys. Chem. Chem. Phys., 2023, 25, 17860-17868. DOI: 10.1039/D3CP02178E
   
   for DIPRO refer to:
   * J. Kohn, N. Gildemeister, S. Grimme, D. Fazzi, A. Hansen,
     J. Chem. Phys., 2023, just accepted.
   
   for PTB refer to:
   * S. Grimme, M. Mueller, A. Hansen, J. Chem. Phys., 2023, 158, 124111.
     DOI: 10.1063/5.0137838
   
   with help from (in alphabetical order)
   P. Atkinson, C. Bannwarth, F. Bohle, G. Brandenburg, E. Caldeweyher
   M. Checinski, S. Dohm, S. Ehlert, S. Ehrlich, I. Gerasimov, C. Hölzer
   A. Katbashev, J. Kohn, J. Koopman, C. Lavigne, S. Lehtola, F. März, M. Müller,
   F. Musil, H. Neugebauer, J. Pisarek, C. Plett, P. Pracht, F. Pultar,
   J. Seibert, P. Shushkov, S. Spicher, M. Stahn, M. Steiner, T. Strunk,
   J. Stückrath, T. Rose, and J. Unsleber
   
 * started run on 2026/03/16 at 14:14:02.672     
   ID    Z sym.   atoms
    1    6 C      1
    2    1 H      2-4
    3    9 F      5
    4   17 Cl     6

           -------------------------------------------------
          |                Calculation Setup                |
           -------------------------------------------------

          program call               : /software/orca-6.1.0-el8-x86_64/bin/otool_xtb product_optfreq_XTB.xyz --grad -c -1 -u 0 -P 8 --namespace product_optfreq --input product_optfreq_XTB.input.tmp --acc 0.200000
          hostname                   : midway3-login4.rcc.local
          calculation namespace      : product_optfreq
          coordinate file            : product_optfreq_XTB.xyz
          omp threads                :                     8


molecular fragmentation (1/2 indicates fragments):
111121
# atoms in fragment 1/2:     5     1
 fragment masses (1/2) :       50.49       19.00
CMA distance (Bohr)    :   6.567
constraining FC (au)   :  0.0500

           -------------------------------------------------
          |                 G F N 2 - x T B                 |
           -------------------------------------------------

        Reference                      10.1021/acs.jctc.8b01176
      * Hamiltonian:
        H0-scaling (s, p, d)           1.850000    2.230000    2.230000
        zeta-weighting                 0.500000
      * Dispersion:
        s8                             2.700000
        a1                             0.520000
        a2                             5.000000
        s9                             5.000000
      * Repulsion:
        kExp                           1.500000    1.000000
        rExp                           1.000000
      * Coulomb:
        alpha                          2.000000
        third order                    shell-resolved
        anisotropic                    true
        a3                             3.000000
        a5                             4.000000
        cn-shift                       1.200000
        cn-exp                         4.000000
        max-rad                        5.000000


          ...................................................
          :                      SETUP                      :
          :.................................................:
          :  # basis functions                  21          :
          :  # atomic orbitals                  20          :
          :  # shells                           10          :
          :  # electrons                        22          :
          :  max. iterations                   250          :
          :  Hamiltonian                  GFN2-xTB          :
          :  restarted?                      false          :
          :  GBSA solvation                  false          :
          :  PC potential                    false          :
          :  electronic temp.          300.0000000     K    :
          :  accuracy                    0.2000000          :
          :  -> integral cutoff          0.3198970E+02      :
          :  -> integral neglect         0.2000000E-08      :
          :  -> SCF convergence          0.2000000E-06 Eh   :
          :  -> wf. convergence          0.2000000E-04 e    :
          :  Broyden damping             0.4000000          :
          :  net charge                         -1          :
          :  unpaired electrons                  0          :
          ...................................................

 iter      E             dE          RMSdq      gap      omega  full diag
   1    -13.1160202 -0.131160E+02  0.667E+00    4.84       0.0  T
   2    -13.1943473 -0.783271E-01  0.268E+00    2.60       1.0  T
   3    -13.2070054 -0.126581E-01  0.182E+00    3.71       1.0  T
   4    -13.2099222 -0.291674E-02  0.398E-01    3.22       1.0  T
   5    -13.2103526 -0.430397E-03  0.188E-01    3.30       1.0  T
   6    -13.2103732 -0.206149E-04  0.145E-01    3.29       1.0  T
   7    -13.2104338 -0.605969E-04  0.652E-02    3.29       1.0  T
   8    -13.2104443 -0.105063E-04  0.124E-02    3.28       3.3  T
   9    -13.2104450 -0.713829E-06  0.187E-03    3.29      21.8  T
  10    -13.2104450 -0.491338E-08  0.818E-04    3.29      49.9  T
  11    -13.2104450 -0.946372E-09  0.527E-04    3.29      77.4  T
  12    -13.2104450 -0.435907E-09  0.290E-04    3.29     140.6  T
  13    -13.2104450 -0.261823E-09  0.257E-05    3.29    1589.2  T
  14    -13.2104450 -0.165556E-11  0.101E-05    3.29    4026.9  T

   *** convergence criteria satisfied after 14 iterations ***

         #    Occupation            Energy/Eh            Energy/eV
      -------------------------------------------------------------
         1        2.0000           -0.8658938             -23.5622
       ...           ...                  ...                  ...
         5        2.0000           -0.3243112              -8.8250
         6        2.0000           -0.2819117              -7.6712
         7        2.0000           -0.2372722              -6.4565
         8        2.0000           -0.2372024              -6.4546
         9        2.0000           -0.1725970              -4.6966
        10        2.0000           -0.1683042              -4.5798
        11        2.0000           -0.1680109              -4.5718 (HOMO)
        12                         -0.0472238              -1.2850 (LUMO)
        13                          0.2324576               6.3255
        14                          0.2324650               6.3257
        15                          0.2332485               6.3470
        16                          0.2333225               6.3490
       ...                                ...                  ...
        20                          0.4566256              12.4254
      -------------------------------------------------------------
                  HL-Gap            0.1207871 Eh            3.2868 eV
             Fermi-level           -0.1076173 Eh           -2.9284 eV

 SCC (total)                   0 d,  0 h,  0 min,  0.162 sec
 SCC setup                      ...        0 min,  0.000 sec (  0.148%)
 Dispersion                     ...        0 min,  0.000 sec (  0.039%)
 classical contributions        ...        0 min,  0.000 sec (  0.023%)
 integral evaluation            ...        0 min,  0.158 sec ( 97.388%)
 iterations                     ...        0 min,  0.003 sec (  1.653%)
 molecular gradient             ...        0 min,  0.001 sec (  0.565%)
 printout                       ...        0 min,  0.000 sec (  0.166%)

         :::::::::::::::::::::::::::::::::::::::::::::::::::::
         ::                     SUMMARY                     ::
         :::::::::::::::::::::::::::::::::::::::::::::::::::::
         :: total energy             -13.150403464785 Eh    ::
         :: gradient norm              0.014516907635 Eh/a0 ::
         :: HOMO-LUMO gap              3.286784086244 eV    ::
         ::.................................................::
         :: SCC energy               -13.210445085706 Eh    ::
         :: -> isotropic ES            0.188600821516 Eh    ::
         :: -> anisotropic ES         -0.000274681783 Eh    ::
         :: -> anisotropic XC          0.002544407887 Eh    ::
         :: -> dispersion             -0.002062099149 Eh    ::
         :: repulsion energy           0.060041620921 Eh    ::
         :: add. restraining           0.000000000000 Eh    ::
         :: total charge              -1.000000000000 e     ::
         :::::::::::::::::::::::::::::::::::::::::::::::::::::


Property printout bound to 'properties.out'

           -------------------------------------------------
          | TOTAL ENERGY              -13.150403464785 Eh   |
          | GRADIENT NORM               0.014516907635 Eh/α |
          | HOMO-LUMO GAP               3.286784086244 eV   |
           -------------------------------------------------

------------------------------------------------------------------------
 * finished run on 2026/03/16 at 14:14:02.864     
------------------------------------------------------------------------
 total:
 * wall-time:     0 d,  0 h,  0 min,  0.191 sec
 *  cpu-time:     0 d,  0 h,  0 min,  0.373 sec
 * ratio c/w:     1.949 speedup
 SCF:
 * wall-time:     0 d,  0 h,  0 min,  0.163 sec
 *  cpu-time:     0 d,  0 h,  0 min,  0.268 sec
 * ratio c/w:     1.647 speedup


-------------------------   --------------------
FINAL SINGLE POINT ENERGY       -13.150403464780
-------------------------   --------------------


-------------
DIPOLE MOMENT
-------------
                                X             Y             Z
Total Dipole Moment    :      0.39700       0.22900      -0.21500
                        -----------------------------------------
Magnitude (a.u.)       :      0.50624
Magnitude (Debye)      :      1.28675


------------------
CARTESIAN GRADIENT
------------------

   1   C   :   -0.000483956   -0.000279863   -0.010865284
   2   H   :    0.001199460    0.000022999   -0.000427642
   3   H   :    0.000620197    0.001026227   -0.000429456
   4   H   :    0.003264831    0.001884688    0.002648536
   5   F   :   -0.003432183   -0.001980011    0.006683594
   6   Cl  :   -0.001168350   -0.000674040    0.002390252

Difference to translation invariance:
           :    0.0000000000   -0.0000000000   -0.0000000000

Difference to rotation invariance:
           :   -0.0000000007    0.0000000013   -0.0000000000

Norm of the Cartesian gradient     ...    0.0145169076
RMS gradient                       ...    0.0034216679
MAX gradient                       ...    0.0108652838
------------------------------------------------------------------------------
                         ORCA GEOMETRY RELAXATION STEP
------------------------------------------------------------------------------

Reading the OPT-File                    .... done
Getting information on internals        .... done
Copying old internal coords+grads       .... done
Making the new internal coordinates     .... (2022 redundants) done
Validating the new internal coordinates .... (2022 redundants) done
Calculating the B-matrix                .... done
Calculating the G,G- and P matrices     .... done
Transforming gradient to internals      .... done
Projecting the internal gradient        .... done
Number of atoms                         ....   6
Number of internal coordinates          ....  21
Current Energy                          ....   -13.150403465 Eh
Current gradient norm                   ....     0.014516908 Eh/bohr
Maximum allowed component of the step   ....  0.300
Current trust radius                    ....  0.300
Evaluating the initial hessian          ....  (Almloef) done
Projecting the Hessian                  .... done
Forming the augmented Hessian           .... done
Diagonalizing the augmented Hessian     .... done
Last element of RFO vector              ....  0.985379016
Lowest eigenvalues of augmented Hessian:
 -0.001049506  0.021675331  0.036726051  0.060444140  0.067474564
Length of the computed step             ....  0.172904663
The final length of the internal step   ....  0.172904663
Converting the step to Cartesian space:
 Initial RMS(Int)=    0.0377308907
Transforming coordinates:
 Iter   0:  RMS(Cart)=    0.0232981167 RMS(Int)=    0.0375994514
done
Storing new coordinates                 .... done

                                .--------------------.
          ----------------------|Geometry convergence|-------------------------
          Item                value                   Tolerance       Converged
          ---------------------------------------------------------------------
          RMS gradient        0.0019186224            0.0001000000      NO
          MAX gradient        0.0047300323            0.0003000000      NO
          RMS step            0.0377308907            0.0020000000      NO
          MAX step            0.0972209917            0.0040000000      NO
          -------------------------------------------------------------------------
          ........................................................
          Max(Bonds)      0.0514      Max(Angles)    1.43
          Max(Dihed)        0.00      Max(Improp)    0.00
          ---------------------------------------------------------------------

The optimization has not yet converged - more geometry cycles are needed


    ---------------------------------------------------------------------------
                         Redundant Internal Coordinates
                            (Angstroem and degrees)

        Definition                    Value    dE/dq     Step     New-Value
    ----------------------------------------------------------------------------
     1. B(H   1,C   0)                1.0706 -0.001223  0.0005    1.0712   
     2. B(H   2,C   0)                1.0706 -0.001224  0.0005    1.0712   
     3. B(H   3,C   0)                1.0634 -0.002071  0.0045    1.0680   
     4. B(F   4,H   3)                2.0856 -0.002242 -0.0179    2.0677   
     5. B(F   4,C   0)                2.0336  0.004730 -0.0514    1.9822   
     6. B(F   4,H   1)                2.2198  0.002393 -0.0493    2.1705   
     7. B(F   4,H   2)                2.2199  0.002395 -0.0494    2.1706   
     8. B(Cl  5,H   1)                2.4509  0.000423  0.0033    2.4542   
     9. B(Cl  5,H   3)                2.4356 -0.001190  0.0071    2.4428   
    10. B(Cl  5,H   2)                2.4509  0.000423  0.0033    2.4542   
    11. B(Cl  5,C   0)                2.0698 -0.002061  0.0096    2.0794   
    12. A(H   1,C   0,H   3)          119.05  0.000085   -0.01    119.04   
    13. A(H   2,C   0,H   3)          119.04  0.000083   -0.01    119.04   
    14. A(H   1,C   0,Cl  5)           97.47  0.001741   -0.36     97.11   
    15. A(H   2,C   0,Cl  5)           97.48  0.001741   -0.36     97.11   
    16. A(H   3,C   0,Cl  5)           96.75  0.001048   -0.25     96.50   
    17. A(H   1,C   0,F   4)           85.34 -0.000680   -0.26     85.07   
    18. A(H   2,C   0,F   4)           85.34 -0.000678   -0.26     85.08   
    19. A(H   3,C   0,F   4)           77.76 -0.002984    1.43     79.20   
    20. A(F   4,C   0,Cl  5)          174.51 -0.001936    1.18    175.69   
    21. A(H   1,C   0,H   2)          117.23 -0.002093    0.42    117.65   
    ----------------------------------------------------------------------------

Geometry step timings:
Preparation and reading OPT file:      0.000 s ( 1.461 %)
Internal coordinates            :      0.000 s ( 1.986 %)
B/P matrices and projection     :      0.000 s ( 6.857 %)
Hessian update/contruction      :      0.001 s (49.756 %)
Making the step                 :      0.000 s ( 8.018 %)
Converting the step to Cartesian:      0.000 s ( 2.810 %)
Storing new data                :      0.000 s ( 4.796 %)
Checking convergence            :      0.000 s ( 4.459 %)
Final printing                  :      0.001 s (19.670 %)
Total time                      :      0.003 s

Time for energy+gradient        :      0.202 s
Time for complete geometry iter :      0.207 s

         *************************************************************
         *                GEOMETRY OPTIMIZATION CYCLE   2            *
         *************************************************************
---------------------------------
CARTESIAN COORDINATES (ANGSTROEM)
---------------------------------
  C    -0.107417   -0.062058   -0.007365
  H    -0.098905    1.001159    0.122394
  H     0.817728   -0.586101    0.122359
  H    -1.025693   -0.592367    0.119384
  F    -0.226754   -0.130930    1.969902
  Cl   -0.117409   -0.067775   -2.086737

----------------------------
CARTESIAN COORDINATES (A.U.)
----------------------------
  NO LB    ZA    FRAG    MASS        X           Y           Z
   0 C   6.0000    0    12.011   -0.202988   -0.117272   -0.013918
   1 H   1.0000    0     1.008   -0.186904    1.891917    0.231290
   2 H   1.0000    0     1.008    1.545283   -1.107571    0.231225
   3 H   1.0000    0     1.008   -1.938278   -1.119411    0.225603
   4 F   9.0000    0    18.998   -0.428503   -0.247422    3.722575
   5 Cl 17.0000    0    35.453   -0.221870   -0.128077   -3.943361

      -----------------------------------------------------------      
     |                   =====================                   |     
     |                           x T B                           |     
     |                   =====================                   |     
     |                         S. Grimme                         |     
     |          Mulliken Center for Theoretical Chemistry        |     
     |                    University of Bonn                     |     
      -----------------------------------------------------------      

   * xtb version 6.7.1 (edcfbbe) compiled by 'albert@albert-system' on 2024-07-22

   xtb is free software: you can redistribute it and/or modify it under
   the terms of the GNU Lesser General Public License as published by
   the Free Software Foundation, either version 3 of the License, or
   (at your option) any later version.
   
   xtb is distributed in the hope that it will be useful,
   but WITHOUT ANY WARRANTY; without even the implied warranty of
   MERCHANTABILITY or FITNESS FOR A PARTICULAR PURPOSE.  See the
   GNU Lesser General Public License for more details.
   
   Cite this work as:
   * C. Bannwarth, E. Caldeweyher, S. Ehlert, A. Hansen, P. Pracht,
     J. Seibert, S. Spicher, S. Grimme, WIREs Comput. Mol. Sci., 2020, 11,
     e01493. DOI: 10.1002/wcms.1493
   
   for GFN2-xTB:
   * C. Bannwarth, S. Ehlert and S. Grimme., J. Chem. Theory Comput., 2019,
     15, 1652-1671. DOI: 10.1021/acs.jctc.8b01176
   for GFN1-xTB:
   * S. Grimme, C. Bannwarth, P. Shushkov, J. Chem. Theory Comput., 2017,
     13, 1989-2009. DOI: 10.1021/acs.jctc.7b00118
   for GFN0-xTB:
   * P. Pracht, E. Caldeweyher, S. Ehlert, S. Grimme, ChemRxiv, 2019, preprint.
     DOI: 10.26434/chemrxiv.8326202.v1
   for GFN-FF:
   * S. Spicher and S. Grimme, Angew. Chem. Int. Ed., 2020, 59, 15665-15673.
     DOI: 10.1002/anie.202004239
   
   for ALPB and GBSA implicit solvation:
   * S. Ehlert, M. Stahn, S. Spicher, S. Grimme, J. Chem. Theory Comput.,
     2021, 17, 4250-4261. DOI: 10.1021/acs.jctc.1c00471
   
   for ddCOSMO and CPCM-X implicit solvation:
   * M. Stahn, S. Ehlert, S. Grimme, J. Phys. Chem. A,
     2023, XX, XXXX-XXXX. DOI: 10.1021/acs.jpca.3c04382
   
   for DFT-D4:
   * E. Caldeweyher, C. Bannwarth and S. Grimme, J. Chem. Phys., 2017,
     147, 034112. DOI: 10.1063/1.4993215
   * E. Caldeweyher, S. Ehlert, A. Hansen, H. Neugebauer, S. Spicher,
     C. Bannwarth and S. Grimme, J. Chem. Phys., 2019, 150, 154122.
     DOI: 10.1063/1.5090222
   * E. Caldeweyher, J.-M. Mewes, S. Ehlert and S. Grimme, Phys. Chem. Chem. Phys.
     2020, 22, 8499-8512. DOI: 10.1039/D0CP00502A
   
   for sTDA-xTB:
   * S. Grimme and C. Bannwarth, J. Chem. Phys., 2016, 145, 054103.
     DOI: 10.1063/1.4959605
   
   in the mass-spec context:
   * V. Asgeirsson, C. Bauer and S. Grimme, Chem. Sci., 2017, 8, 4879.
     DOI: 10.1039/c7sc00601b
   * J. Koopman and S. Grimme, ACS Omega 2019, 4, 12, 15120-15133.
     DOI: 10.1021/acsomega.9b02011
   
   for metadynamics refer to:
   * S. Grimme, J. Chem. Theory Comput., 2019, 155, 2847-2862
     DOI: 10.1021/acs.jctc.9b00143
   
   for SPH calculations refer to:
   * S. Spicher and S. Grimme, J. Chem. Theory Comput., 2021, 17, 1701-1714
     DOI: 10.1021/acs.jctc.0c01306
   
   for ONIOM refer to:
   * C. Plett, A. Katbashev, S. Ehlert, S. Grimme, M. Bursch,
     Phys. Chem. Chem. Phys., 2023, 25, 17860-17868. DOI: 10.1039/D3CP02178E
   
   for DIPRO refer to:
   * J. Kohn, N. Gildemeister, S. Grimme, D. Fazzi, A. Hansen,
     J. Chem. Phys., 2023, just accepted.
   
   for PTB refer to:
   * S. Grimme, M. Mueller, A. Hansen, J. Chem. Phys., 2023, 158, 124111.
     DOI: 10.1063/5.0137838
   
   with help from (in alphabetical order)
   P. Atkinson, C. Bannwarth, F. Bohle, G. Brandenburg, E. Caldeweyher
   M. Checinski, S. Dohm, S. Ehlert, S. Ehrlich, I. Gerasimov, C. Hölzer
   A. Katbashev, J. Kohn, J. Koopman, C. Lavigne, S. Lehtola, F. März, M. Müller,
   F. Musil, H. Neugebauer, J. Pisarek, C. Plett, P. Pracht, F. Pultar,
   J. Seibert, P. Shushkov, S. Spicher, M. Stahn, M. Steiner, T. Strunk,
   J. Stückrath, T. Rose, and J. Unsleber
   
 * started run on 2026/03/16 at 14:14:02.879     
   ID    Z sym.   atoms
    1    6 C      1
    2    1 H      2-4
    3    9 F      5
    4   17 Cl     6

           -------------------------------------------------
          |                Calculation Setup                |
           -------------------------------------------------

          program call               : /software/orca-6.1.0-el8-x86_64/bin/otool_xtb product_optfreq_XTB.xyz --grad -c -1 -u 0 -P 8 --namespace product_optfreq --input product_optfreq_XTB.input.tmp --acc 0.200000
          hostname                   : midway3-login4.rcc.local
          calculation namespace      : product_optfreq
          coordinate file            : product_optfreq_XTB.xyz
          omp threads                :                     8


molecular fragmentation (1/2 indicates fragments):
111121
# atoms in fragment 1/2:     5     1
 fragment masses (1/2) :       50.49       19.00
CMA distance (Bohr)    :   6.486
constraining FC (au)   :  0.0500

           -------------------------------------------------
          |                 G F N 2 - x T B                 |
           -------------------------------------------------

        Reference                      10.1021/acs.jctc.8b01176
      * Hamiltonian:
        H0-scaling (s, p, d)           1.850000    2.230000    2.230000
        zeta-weighting                 0.500000
      * Dispersion:
        s8                             2.700000
        a1                             0.520000
        a2                             5.000000
        s9                             5.000000
      * Repulsion:
        kExp                           1.500000    1.000000
        rExp                           1.000000
      * Coulomb:
        alpha                          2.000000
        third order                    shell-resolved
        anisotropic                    true
        a3                             3.000000
        a5                             4.000000
        cn-shift                       1.200000
        cn-exp                         4.000000
        max-rad                        5.000000

q/qsh data taken from xtbrestart
CAMM data taken from xtbrestart

          ...................................................
          :                      SETUP                      :
          :.................................................:
          :  # basis functions                  21          :
          :  # atomic orbitals                  20          :
          :  # shells                           10          :
          :  # electrons                        22          :
          :  max. iterations                   250          :
          :  Hamiltonian                  GFN2-xTB          :
          :  restarted?                       true          :
          :  GBSA solvation                  false          :
          :  PC potential                    false          :
          :  electronic temp.          300.0000000     K    :
          :  accuracy                    0.2000000          :
          :  -> integral cutoff          0.3198970E+02      :
          :  -> integral neglect         0.2000000E-08      :
          :  -> SCF convergence          0.2000000E-06 Eh   :
          :  -> wf. convergence          0.2000000E-04 e    :
          :  Broyden damping             0.4000000          :
          :  net charge                         -1          :
          :  unpaired electrons                  0          :
          ...................................................

 iter      E             dE          RMSdq      gap      omega  full diag
   1    -13.2101174 -0.132101E+02  0.299E-01    3.46       0.0  T
   2    -13.2104661 -0.348716E-03  0.884E-02    3.64       1.0  T
   3    -13.2104773 -0.111134E-04  0.397E-02    3.61       1.0  T
   4    -13.2104803 -0.308612E-05  0.248E-02    3.63       1.6  T
   5    -13.2104807 -0.345023E-06  0.229E-03    3.63      17.9  T
   6    -13.2104807 -0.286314E-08  0.876E-04    3.63      46.6  T
   7    -13.2104807 -0.124681E-08  0.639E-04    3.63      63.9  T
   8    -13.2104807 -0.993849E-09  0.309E-04    3.63     132.3  T
   9    -13.2104807 -0.213863E-09  0.470E-05    3.63     869.5  T
  10    -13.2104807 -0.311218E-11  0.312E-05    3.63    1308.6  T

   *** convergence criteria satisfied after 10 iterations ***

         #    Occupation            Energy/Eh            Energy/eV
      -------------------------------------------------------------
         1        2.0000           -0.8615797             -23.4448
       ...           ...                  ...                  ...
         5        2.0000           -0.3233246              -8.7981
         6        2.0000           -0.2794354              -7.6038
         7        2.0000           -0.2337410              -6.3604
         8        2.0000           -0.2336824              -6.3588
         9        2.0000           -0.1791513              -4.8750
        10        2.0000           -0.1760452              -4.7904
        11        2.0000           -0.1756950              -4.7809 (HOMO)
        12                         -0.0424327              -1.1547 (LUMO)
        13                          0.2379879               6.4760
        14                          0.2379894               6.4760
        15                          0.2387762               6.4974
        16                          0.2388337               6.4990
       ...                                ...                  ...
        20                          0.4502207              12.2511
      -------------------------------------------------------------
                  HL-Gap            0.1332622 Eh            3.6262 eV
             Fermi-level           -0.1090638 Eh           -2.9678 eV

 SCC (total)                   0 d,  0 h,  0 min,  0.118 sec
 SCC setup                      ...        0 min,  0.000 sec (  0.266%)
 Dispersion                     ...        0 min,  0.000 sec (  0.118%)
 classical contributions        ...        0 min,  0.000 sec (  0.053%)
 integral evaluation            ...        0 min,  0.115 sec ( 97.583%)
 iterations                     ...        0 min,  0.002 sec (  1.376%)
 molecular gradient             ...        0 min,  0.001 sec (  0.455%)
 printout                       ...        0 min,  0.000 sec (  0.126%)

         :::::::::::::::::::::::::::::::::::::::::::::::::::::
         ::                     SUMMARY                     ::
         :::::::::::::::::::::::::::::::::::::::::::::::::::::
         :: total energy             -13.151315840571 Eh    ::
         :: gradient norm              0.016601210032 Eh/a0 ::
         :: HOMO-LUMO gap              3.626249370425 eV    ::
         ::.................................................::
         :: SCC energy               -13.210480773556 Eh    ::
         :: -> isotropic ES            0.185158260336 Eh    ::
         :: -> anisotropic ES         -0.000399049208 Eh    ::
         :: -> anisotropic XC          0.002402645013 Eh    ::
         :: -> dispersion             -0.002068179736 Eh    ::
         :: repulsion energy           0.059164932985 Eh    ::
         :: add. restraining           0.000000000000 Eh    ::
         :: total charge              -1.000000000000 e     ::
         :::::::::::::::::::::::::::::::::::::::::::::::::::::


Property printout bound to 'properties.out'

           -------------------------------------------------
          | TOTAL ENERGY              -13.151315840571 Eh   |
          | GRADIENT NORM               0.016601210032 Eh/α |
          | HOMO-LUMO GAP               3.626249370425 eV   |
           -------------------------------------------------

------------------------------------------------------------------------
 * finished run on 2026/03/16 at 14:14:03.080     
------------------------------------------------------------------------
 total:
 * wall-time:     0 d,  0 h,  0 min,  0.200 sec
 *  cpu-time:     0 d,  0 h,  0 min,  0.415 sec
 * ratio c/w:     2.073 speedup
 SCF:
 * wall-time:     0 d,  0 h,  0 min,  0.119 sec
 *  cpu-time:     0 d,  0 h,  0 min,  0.323 sec
 * ratio c/w:     2.724 speedup


-------------------------   --------------------
FINAL SINGLE POINT ENERGY       -13.151315840570
-------------------------   --------------------


-------------
DIPOLE MOMENT
-------------
                                X             Y             Z
Total Dipole Moment    :      0.35700       0.20600      -0.02600
                        -----------------------------------------
Magnitude (a.u.)       :      0.41299
Magnitude (Debye)      :      1.04974


------------------
CARTESIAN GRADIENT
------------------

   1   C   :    0.001312211    0.000756956   -0.014382807
   2   H   :    0.000924398    0.000376115    0.001236358
   3   H   :    0.000788252    0.000611886    0.001234471
   4   H   :    0.000878818    0.000506953    0.004443617
   5   F   :   -0.002918365   -0.001683467    0.003524665
   6   Cl  :   -0.000985314   -0.000568443    0.003943695

Difference to translation invariance:
           :    0.0000000000   -0.0000000000    0.0000000000

Difference to rotation invariance:
           :    0.0000000540   -0.0000000936   -0.0000000000

Norm of the Cartesian gradient     ...    0.0166012100
RMS gradient                       ...    0.0039129427
MAX gradient                       ...    0.0143828069
------------------------------------------------------------------------------
                         ORCA GEOMETRY RELAXATION STEP
------------------------------------------------------------------------------

Reading the OPT-File                    .... done
Getting information on internals        .... done
Copying old internal coords+grads       .... done
Making the new internal coordinates     .... (2022 redundants) done
Validating the new internal coordinates .... (2022 redundants) done
Calculating the B-matrix                .... done
Calculating the G,G- and P matrices     .... done
Transforming gradient to internals      .... done
Projecting the internal gradient        .... done
Number of atoms                         ....   6
Number of internal coordinates          ....  21
Current Energy                          ....   -13.151315841 Eh
Current gradient norm                   ....     0.016601210 Eh/bohr
Maximum allowed component of the step   ....  0.300
Current trust radius                    ....  0.300
Updating the Hessian (BFGS)             .... done
Forming the augmented Hessian           .... done
Diagonalizing the augmented Hessian     .... done
Last element of RFO vector              ....  0.899669534
Lowest eigenvalues of augmented Hessian:
 -0.002901164  0.009940983  0.038060331  0.055980935  0.060444141
Length of the computed step             ....  0.485257695
Warning: the length of the step is outside the trust region - taking restricted step instead
The input lambda is                     ....     0.006558
   iter:   5  x=    0.000328  g=  413.032663 f(x)=     0.939707
   iter:  10  x=   -0.009625  g=   10.195499 f(x)=     0.000999
The output lambda is                    ....    -0.009626 (13 iterations)
The final length of the internal step   ....  0.300000000
Converting the step to Cartesian space:
 Initial RMS(Int)=    0.0654653671
Transforming coordinates:
 Iter   0:  RMS(Cart)=    0.0452955748 RMS(Int)=    0.0650281590
done
Storing new coordinates                 .... done
The predicted energy change is          ....    -0.001395750
Previously predicted energy change      ....    -0.000540441
Actually observed energy change         ....    -0.000912376
Ratio of predicted to observed change   ....     1.688206370
New trust radius                        ....     0.200000000

                                .--------------------.
          ----------------------|Geometry convergence|-------------------------
          Item                value                   Tolerance       Converged
          ---------------------------------------------------------------------
          Energy change      -0.0009123758            0.0000050000      NO
          RMS gradient        0.0019516649            0.0001000000      NO
          MAX gradient        0.0040727444            0.0003000000      NO
          RMS step            0.0654653671            0.0020000000      NO
          MAX step            0.1673888437            0.0040000000      NO
          -------------------------------------------------------------------------
          ........................................................
          Max(Bonds)      0.0886      Max(Angles)    4.41
          Max(Dihed)        0.00      Max(Improp)    0.00
          ---------------------------------------------------------------------

The optimization has not yet converged - more geometry cycles are needed


    ---------------------------------------------------------------------------
                         Redundant Internal Coordinates
                            (Angstroem and degrees)

        Definition                    Value    dE/dq     Step     New-Value
    ----------------------------------------------------------------------------
     1. B(H   1,C   0)                1.0711 -0.000136 -0.0000    1.0711   
     2. B(H   2,C   0)                1.0711 -0.000136 -0.0000    1.0711   
     3. B(H   3,C   0)                1.0680  0.000799  0.0055    1.0734   
     4. B(F   4,H   3)                2.0678 -0.002772  0.0031    2.0709   
     5. B(F   4,C   0)                1.9821  0.004073 -0.0886    1.8935   
     6. B(F   4,H   1)                2.1705  0.001185 -0.0776    2.0929   
     7. B(F   4,H   2)                2.1706  0.001188 -0.0777    2.0929   
     8. B(Cl  5,H   1)                2.4542  0.000321  0.0097    2.4639   
     9. B(Cl  5,H   3)                2.4428 -0.000647  0.0176    2.4604   
    10. B(Cl  5,H   2)                2.4542  0.000322  0.0097    2.4639   
    11. B(Cl  5,C   0)                2.0794 -0.003935  0.0388    2.1183   
    12. A(H   1,C   0,H   3)          119.04 -0.000214    0.25    119.29   
    13. A(H   2,C   0,H   3)          119.03 -0.000215    0.26    119.29   
    14. A(H   1,C   0,Cl  5)           97.12  0.002316   -1.62     95.50   
    15. A(H   2,C   0,Cl  5)           97.12  0.002317   -1.62     95.50   
    16. A(H   3,C   0,Cl  5)           96.50  0.001448   -1.30     95.20   
    17. A(H   1,C   0,F   4)           85.07 -0.001252   -0.02     85.06   
    18. A(H   2,C   0,F   4)           85.08 -0.001250   -0.02     85.06   
    19. A(H   3,C   0,F   4)           79.20 -0.003447    4.41     83.61   
    20. A(F   4,C   0,Cl  5)          175.70 -0.001999    3.11    178.81   
    21. A(H   1,C   0,H   2)          117.65 -0.002047    1.40    119.05   
    ----------------------------------------------------------------------------

Geometry step timings:
Preparation and reading OPT file:      0.000 s ( 2.076 %)
Internal coordinates            :      0.000 s ( 3.814 %)
B/P matrices and projection     :      0.000 s (11.271 %)
Hessian update/contruction      :      0.001 s (30.424 %)
Making the step                 :      0.000 s (14.237 %)
Converting the step to Cartesian:      0.000 s ( 1.610 %)
Storing new data                :      0.000 s ( 6.737 %)
Checking convergence            :      0.000 s ( 6.737 %)
Final printing                  :      0.001 s (23.093 %)
Total time                      :      0.002 s

Time for energy+gradient        :      0.274 s
Time for complete geometry iter :      0.279 s

         *************************************************************
         *                GEOMETRY OPTIMIZATION CYCLE   3            *
         *************************************************************
---------------------------------
CARTESIAN COORDINATES (ANGSTROEM)
---------------------------------
  C    -0.120634   -0.069683    0.027143
  H    -0.121063    0.995511    0.138603
  H     0.801754   -0.602450    0.138585
  H    -1.047722   -0.605074    0.107478
  F    -0.179299   -0.103555    1.919104
  Cl   -0.091485   -0.052821   -2.090976

----------------------------
CARTESIAN COORDINATES (A.U.)
----------------------------
  NO LB    ZA    FRAG    MASS        X           Y           Z
   0 C   6.0000    0    12.011   -0.227966   -0.131682    0.051293
   1 H   1.0000    0     1.008   -0.228775    1.881242    0.261921
   2 H   1.0000    0     1.008    1.515095   -1.138466    0.261888
   3 H   1.0000    0     1.008   -1.979908   -1.143424    0.203105
   4 F   9.0000    0    18.998   -0.338825   -0.195690    3.626580
   5 Cl 17.0000    0    35.453   -0.172881   -0.099816   -3.951372

      -----------------------------------------------------------      
     |                   =====================                   |     
     |                           x T B                           |     
     |                   =====================                   |     
     |                         S. Grimme                         |     
     |          Mulliken Center for Theoretical Chemistry        |     
     |                    University of Bonn                     |     
      -----------------------------------------------------------      

   * xtb version 6.7.1 (edcfbbe) compiled by 'albert@albert-system' on 2024-07-22

   xtb is free software: you can redistribute it and/or modify it under
   the terms of the GNU Lesser General Public License as published by
   the Free Software Foundation, either version 3 of the License, or
   (at your option) any later version.
   
   xtb is distributed in the hope that it will be useful,
   but WITHOUT ANY WARRANTY; without even the implied warranty of
   MERCHANTABILITY or FITNESS FOR A PARTICULAR PURPOSE.  See the
   GNU Lesser General Public License for more details.
   
   Cite this work as:
   * C. Bannwarth, E. Caldeweyher, S. Ehlert, A. Hansen, P. Pracht,
     J. Seibert, S. Spicher, S. Grimme, WIREs Comput. Mol. Sci., 2020, 11,
     e01493. DOI: 10.1002/wcms.1493
   
   for GFN2-xTB:
   * C. Bannwarth, S. Ehlert and S. Grimme., J. Chem. Theory Comput., 2019,
     15, 1652-1671. DOI: 10.1021/acs.jctc.8b01176
   for GFN1-xTB:
   * S. Grimme, C. Bannwarth, P. Shushkov, J. Chem. Theory Comput., 2017,
     13, 1989-2009. DOI: 10.1021/acs.jctc.7b00118
   for GFN0-xTB:
   * P. Pracht, E. Caldeweyher, S. Ehlert, S. Grimme, ChemRxiv, 2019, preprint.
     DOI: 10.26434/chemrxiv.8326202.v1
   for GFN-FF:
   * S. Spicher and S. Grimme, Angew. Chem. Int. Ed., 2020, 59, 15665-15673.
     DOI: 10.1002/anie.202004239
   
   for ALPB and GBSA implicit solvation:
   * S. Ehlert, M. Stahn, S. Spicher, S. Grimme, J. Chem. Theory Comput.,
     2021, 17, 4250-4261. DOI: 10.1021/acs.jctc.1c00471
   
   for ddCOSMO and CPCM-X implicit solvation:
   * M. Stahn, S. Ehlert, S. Grimme, J. Phys. Chem. A,
     2023, XX, XXXX-XXXX. DOI: 10.1021/acs.jpca.3c04382
   
   for DFT-D4:
   * E. Caldeweyher, C. Bannwarth and S. Grimme, J. Chem. Phys., 2017,
     147, 034112. DOI: 10.1063/1.4993215
   * E. Caldeweyher, S. Ehlert, A. Hansen, H. Neugebauer, S. Spicher,
     C. Bannwarth and S. Grimme, J. Chem. Phys., 2019, 150, 154122.
     DOI: 10.1063/1.5090222
   * E. Caldeweyher, J.-M. Mewes, S. Ehlert and S. Grimme, Phys. Chem. Chem. Phys.
     2020, 22, 8499-8512. DOI: 10.1039/D0CP00502A
   
   for sTDA-xTB:
   * S. Grimme and C. Bannwarth, J. Chem. Phys., 2016, 145, 054103.
     DOI: 10.1063/1.4959605
   
   in the mass-spec context:
   * V. Asgeirsson, C. Bauer and S. Grimme, Chem. Sci., 2017, 8, 4879.
     DOI: 10.1039/c7sc00601b
   * J. Koopman and S. Grimme, ACS Omega 2019, 4, 12, 15120-15133.
     DOI: 10.1021/acsomega.9b02011
   
   for metadynamics refer to:
   * S. Grimme, J. Chem. Theory Comput., 2019, 155, 2847-2862
     DOI: 10.1021/acs.jctc.9b00143
   
   for SPH calculations refer to:
   * S. Spicher and S. Grimme, J. Chem. Theory Comput., 2021, 17, 1701-1714
     DOI: 10.1021/acs.jctc.0c01306
   
   for ONIOM refer to:
   * C. Plett, A. Katbashev, S. Ehlert, S. Grimme, M. Bursch,
     Phys. Chem. Chem. Phys., 2023, 25, 17860-17868. DOI: 10.1039/D3CP02178E
   
   for DIPRO refer to:
   * J. Kohn, N. Gildemeister, S. Grimme, D. Fazzi, A. Hansen,
     J. Chem. Phys., 2023, just accepted.
   
   for PTB refer to:
   * S. Grimme, M. Mueller, A. Hansen, J. Chem. Phys., 2023, 158, 124111.
     DOI: 10.1063/5.0137838
   
   with help from (in alphabetical order)
   P. Atkinson, C. Bannwarth, F. Bohle, G. Brandenburg, E. Caldeweyher
   M. Checinski, S. Dohm, S. Ehlert, S. Ehrlich, I. Gerasimov, C. Hölzer
   A. Katbashev, J. Kohn, J. Koopman, C. Lavigne, S. Lehtola, F. März, M. Müller,
   F. Musil, H. Neugebauer, J. Pisarek, C. Plett, P. Pracht, F. Pultar,
   J. Seibert, P. Shushkov, S. Spicher, M. Stahn, M. Steiner, T. Strunk,
   J. Stückrath, T. Rose, and J. Unsleber
   
 * started run on 2026/03/16 at 14:14:03.159     
   ID    Z sym.   atoms
    1    6 C      1
    2    1 H      2-4
    3    9 F      5
    4   17 Cl     6

           -------------------------------------------------
          |                Calculation Setup                |
           -------------------------------------------------

          program call               : /software/orca-6.1.0-el8-x86_64/bin/otool_xtb product_optfreq_XTB.xyz --grad -c -1 -u 0 -P 8 --namespace product_optfreq --input product_optfreq_XTB.input.tmp --acc 0.200000
          hostname                   : midway3-login4.rcc.local
          calculation namespace      : product_optfreq
          coordinate file            : product_optfreq_XTB.xyz
          omp threads                :                     8


molecular fragmentation (1/2 indicates fragments):
111121
# atoms in fragment 1/2:     5     1
 fragment masses (1/2) :       50.49       19.00
CMA distance (Bohr)    :   6.377
constraining FC (au)   :  0.0500

           -------------------------------------------------
          |                 G F N 2 - x T B                 |
           -------------------------------------------------

        Reference                      10.1021/acs.jctc.8b01176
      * Hamiltonian:
        H0-scaling (s, p, d)           1.850000    2.230000    2.230000
        zeta-weighting                 0.500000
      * Dispersion:
        s8                             2.700000
        a1                             0.520000
        a2                             5.000000
        s9                             5.000000
      * Repulsion:
        kExp                           1.500000    1.000000
        rExp                           1.000000
      * Coulomb:
        alpha                          2.000000
        third order                    shell-resolved
        anisotropic                    true
        a3                             3.000000
        a5                             4.000000
        cn-shift                       1.200000
        cn-exp                         4.000000
        max-rad                        5.000000

q/qsh data taken from xtbrestart
CAMM data taken from xtbrestart

          ...................................................
          :                      SETUP                      :
          :.................................................:
          :  # basis functions                  21          :
          :  # atomic orbitals                  20          :
          :  # shells                           10          :
          :  # electrons                        22          :
          :  max. iterations                   250          :
          :  Hamiltonian                  GFN2-xTB          :
          :  restarted?                       true          :
          :  GBSA solvation                  false          :
          :  PC potential                    false          :
          :  electronic temp.          300.0000000     K    :
          :  accuracy                    0.2000000          :
          :  -> integral cutoff          0.3198970E+02      :
          :  -> integral neglect         0.2000000E-08      :
          :  -> SCF convergence          0.2000000E-06 Eh   :
          :  -> wf. convergence          0.2000000E-04 e    :
          :  Broyden damping             0.4000000          :
          :  net charge                         -1          :
          :  unpaired electrons                  0          :
          ...................................................

 iter      E             dE          RMSdq      gap      omega  full diag
   1    -13.2093147 -0.132093E+02  0.680E-01    3.89       0.0  T
   2    -13.2111502 -0.183554E-02  0.226E-01    4.27       1.0  T
   3    -13.2112326 -0.823917E-04  0.948E-02    4.21       1.0  T
   4    -13.2112500 -0.174069E-04  0.639E-02    4.24       1.0  T
   5    -13.2112529 -0.287772E-05  0.188E-02    4.24       2.2  T
   6    -13.2112536 -0.730008E-06  0.962E-03    4.24       4.2  T
   7    -13.2112538 -0.231949E-06  0.533E-03    4.24       7.7  T
   8    -13.2112539 -0.732625E-07  0.716E-04    4.24      57.0  T
   9    -13.2112539 -0.676312E-10  0.286E-04    4.24     142.6  T
  10    -13.2112539 -0.269415E-09  0.119E-04    4.24     343.8  T
  11    -13.2112539 -0.441958E-11  0.894E-05    4.24     456.5  T

   *** convergence criteria satisfied after 11 iterations ***

         #    Occupation            Energy/Eh            Energy/eV
      -------------------------------------------------------------
         1        2.0000           -0.8517313             -23.1768
       ...           ...                  ...                  ...
         5        2.0000           -0.3234918              -8.8027
         6        2.0000           -0.2759671              -7.5094
         7        2.0000           -0.2263386              -6.1590
         8        2.0000           -0.2263336              -6.1589
         9        2.0000           -0.1943714              -5.2891
        10        2.0000           -0.1943272              -5.2879
        11        2.0000           -0.1927216              -5.2442 (HOMO)
        12                         -0.0368912              -1.0039 (LUMO)
        13                          0.2509218               6.8279
        14                          0.2509327               6.8282
        15                          0.2516031               6.8465
        16                          0.2516206               6.8469
       ...                                ...                  ...
        20                          0.4420985              12.0301
      -------------------------------------------------------------
                  HL-Gap            0.1558304 Eh            4.2404 eV
             Fermi-level           -0.1148064 Eh           -3.1240 eV

 SCC (total)                   0 d,  0 h,  0 min,  0.166 sec
 SCC setup                      ...        0 min,  0.000 sec (  0.158%)
 Dispersion                     ...        0 min,  0.000 sec (  0.040%)
 classical contributions        ...        0 min,  0.000 sec (  0.028%)
 integral evaluation            ...        0 min,  0.161 sec ( 96.538%)
 iterations                     ...        0 min,  0.004 sec (  2.188%)
 molecular gradient             ...        0 min,  0.001 sec (  0.900%)
 printout                       ...        0 min,  0.000 sec (  0.133%)

         :::::::::::::::::::::::::::::::::::::::::::::::::::::
         ::                     SUMMARY                     ::
         :::::::::::::::::::::::::::::::::::::::::::::::::::::
         :: total energy             -13.152956524521 Eh    ::
         :: gradient norm              0.022751858742 Eh/a0 ::
         :: HOMO-LUMO gap              4.240360225363 eV    ::
         ::.................................................::
         :: SCC energy               -13.211253964707 Eh    ::
         :: -> isotropic ES            0.177774705857 Eh    ::
         :: -> anisotropic ES         -0.000374721330 Eh    ::
         :: -> anisotropic XC          0.002386203727 Eh    ::
         :: -> dispersion             -0.002068981056 Eh    ::
         :: repulsion energy           0.058297440186 Eh    ::
         :: add. restraining           0.000000000000 Eh    ::
         :: total charge              -1.000000000000 e     ::
         :::::::::::::::::::::::::::::::::::::::::::::::::::::


Property printout bound to 'properties.out'

           -------------------------------------------------
          | TOTAL ENERGY              -13.152956524521 Eh   |
          | GRADIENT NORM               0.022751858742 Eh/α |
          | HOMO-LUMO GAP               4.240360225363 eV   |
           -------------------------------------------------

------------------------------------------------------------------------
 * finished run on 2026/03/16 at 14:14:03.357     
------------------------------------------------------------------------
 total:
 * wall-time:     0 d,  0 h,  0 min,  0.197 sec
 *  cpu-time:     0 d,  0 h,  0 min,  0.366 sec
 * ratio c/w:     1.857 speedup
 SCF:
 * wall-time:     0 d,  0 h,  0 min,  0.167 sec
 *  cpu-time:     0 d,  0 h,  0 min,  0.295 sec
 * ratio c/w:     1.770 speedup


-------------------------   --------------------
FINAL SINGLE POINT ENERGY       -13.152956524520
-------------------------   --------------------


-------------
DIPOLE MOMENT
-------------
                                X             Y             Z
Total Dipole Moment    :      0.25900       0.15000       0.37800
                        -----------------------------------------
Magnitude (a.u.)       :      0.48215
Magnitude (Debye)      :      1.22552


------------------
CARTESIAN GRADIENT
------------------

   1   C   :    0.002687862    0.001551226   -0.019911685
   2   H   :    0.000122364    0.000425060    0.004426223
   3   H   :    0.000429312   -0.000106473    0.004425360
   4   H   :   -0.002006079   -0.001158542    0.005465225
   5   F   :   -0.000824154   -0.000475126   -0.000361641
   6   Cl  :   -0.000409306   -0.000236145    0.005956518

Difference to translation invariance:
           :    0.0000000000    0.0000000000   -0.0000000000

Difference to rotation invariance:
           :    0.0000000994   -0.0000001723   -0.0000000000

Norm of the Cartesian gradient     ...    0.0227518587
RMS gradient                       ...    0.0053626645
MAX gradient                       ...    0.0199116849
------------------------------------------------------------------------------
                         ORCA GEOMETRY RELAXATION STEP
------------------------------------------------------------------------------

Reading the OPT-File                    .... done
Getting information on internals        .... done
Copying old internal coords+grads       .... done
Making the new internal coordinates     .... (2022 redundants) done
Validating the new internal coordinates .... (2022 redundants) done
Calculating the B-matrix                .... done
Calculating the G,G- and P matrices     .... done
Transforming gradient to internals      .... done
Projecting the internal gradient        .... done
Number of atoms                         ....   6
Number of internal coordinates          ....  21
Current Energy                          ....   -13.152956525 Eh
Current gradient norm                   ....     0.022751859 Eh/bohr
Maximum allowed component of the step   ....  0.300
Current trust radius                    ....  0.200
Updating the Hessian (BFGS)             .... done
Forming the augmented Hessian           .... done
Diagonalizing the augmented Hessian     .... done
Last element of RFO vector              ....  0.869939066
Lowest eigenvalues of augmented Hessian:
 -0.003586695  0.008293674  0.038896825  0.044157195  0.060444140
Length of the computed step             ....  0.566889390
Warning: the length of the step is outside the trust region - taking restricted step instead
The input lambda is                     ....     0.004490
   iter:   5  x=   -0.001972  g=  406.056270 f(x)=     0.989632
   iter:  10  x=   -0.021569  g=    3.339348 f(x)=     0.006083
The output lambda is                    ....    -0.021786 (14 iterations)
The final length of the internal step   ....  0.200000000
Converting the step to Cartesian space:
 Initial RMS(Int)=    0.0436435780
Transforming coordinates:
 Iter   0:  RMS(Cart)=    0.0315340551 RMS(Int)=    0.0424771576
 Iter   5:  RMS(Cart)=    0.0007842996 RMS(Int)=    0.0006662759
 Iter  10:  RMS(Cart)=    0.0000580066 RMS(Int)=    0.0000492631
 Iter  15:  RMS(Cart)=    0.0000042944 RMS(Int)=    0.0000036471
 Iter  20:  RMS(Cart)=    0.0000003180 RMS(Int)=    0.0000002700
done
Storing new coordinates                 .... done
The predicted energy change is          ....    -0.001220008
Previously predicted energy change      ....    -0.001395750
Actually observed energy change         ....    -0.001640684
Ratio of predicted to observed change   ....     1.175485804
New trust radius                        ....     0.300000000

                                .--------------------.
          ----------------------|Geometry convergence|-------------------------
          Item                value                   Tolerance       Converged
          ---------------------------------------------------------------------
          Energy change      -0.0016406840            0.0000050000      NO
          RMS gradient        0.0025536491            0.0001000000      NO
          MAX gradient        0.0066109275            0.0003000000      NO
          RMS step            0.0436435780            0.0020000000      NO
          MAX step            0.1055237034            0.0040000000      NO
          -------------------------------------------------------------------------
          ........................................................
          Max(Bonds)      0.0558      Max(Angles)    4.08
          Max(Dihed)        0.00      Max(Improp)    0.00
          ---------------------------------------------------------------------

The optimization has not yet converged - more geometry cycles are needed


    ---------------------------------------------------------------------------
                         Redundant Internal Coordinates
                            (Angstroem and degrees)

        Definition                    Value    dE/dq     Step     New-Value
    ----------------------------------------------------------------------------
     1. B(H   1,C   0)                1.0710  0.001305 -0.0005    1.0706   
     2. B(H   2,C   0)                1.0710  0.001305 -0.0005    1.0706   
     3. B(H   3,C   0)                1.0736  0.003441  0.0021    1.0757   
     4. B(F   4,H   3)                2.0707 -0.002075  0.0237    2.0943   
     5. B(F   4,C   0)                1.8932  0.003574 -0.0558    1.8373   
     6. B(F   4,H   1)                2.0932 -0.001234 -0.0328    2.0604   
     7. B(F   4,H   2)                2.0932 -0.001233 -0.0328    2.0604   
     8. B(Cl  5,H   1)                2.4639  0.000219  0.0052    2.4691   
     9. B(Cl  5,H   3)                2.4602  0.000280  0.0134    2.4736   
    10. B(Cl  5,H   2)                2.4639  0.000219  0.0052    2.4691   
    11. B(Cl  5,C   0)                2.1184 -0.006611  0.0433    2.1617   
    12. A(H   1,C   0,H   3)          119.20 -0.000805    0.42    119.62   
    13. A(H   2,C   0,H   3)          119.20 -0.000805    0.42    119.62   
    14. A(H   1,C   0,Cl  5)           95.52  0.003178   -2.12     93.39   
    15. A(H   2,C   0,Cl  5)           95.52  0.003178   -2.12     93.39   
    16. A(H   3,C   0,Cl  5)           95.20  0.002566   -1.68     93.52   
    17. A(H   1,C   0,F   4)           85.05 -0.002673    0.90     85.96   
    18. A(H   2,C   0,F   4)           85.05 -0.002673    0.90     85.96   
    19. A(H   3,C   0,F   4)           83.66 -0.003566    4.08     87.74   
    20. A(F   4,C   0,Cl  5)          178.86 -0.001001    2.40    181.26   
    21. A(H   1,C   0,H   2)          118.96 -0.001267    1.39    120.36   
    ----------------------------------------------------------------------------

Geometry step timings:
Preparation and reading OPT file:      0.000 s ( 2.146 %)
Internal coordinates            :      0.000 s ( 3.074 %)
B/P matrices and projection     :      0.000 s (11.195 %)
Hessian update/contruction      :      0.000 s (22.564 %)
[...]
                  HL-Gap            0.3684365 Eh           10.0257 eV
             Fermi-level            0.0009645 Eh            0.0262 eV

 SCC (total)                   0 d,  0 h,  0 min,  0.122 sec
 SCC setup                      ...        0 min,  0.001 sec (  0.414%)
 Dispersion                     ...        0 min,  0.000 sec (  0.188%)
 classical contributions        ...        0 min,  0.000 sec (  0.323%)
 integral evaluation            ...        0 min,  0.117 sec ( 96.131%)
 iterations                     ...        0 min,  0.003 sec (  2.324%)
 molecular gradient             ...        0 min,  0.001 sec (  0.432%)
 printout                       ...        0 min,  0.000 sec (  0.169%)

         :::::::::::::::::::::::::::::::::::::::::::::::::::::
         ::                     SUMMARY                     ::
         :::::::::::::::::::::::::::::::::::::::::::::::::::::
         :: total energy             -13.191986998772 Eh    ::
         :: gradient norm              0.000240606042 Eh/a0 ::
         :: HOMO-LUMO gap             10.025668116794 eV    ::
         ::.................................................::
         :: SCC energy               -13.251505761349 Eh    ::
         :: -> isotropic ES            0.165399044562 Eh    ::
         :: -> anisotropic ES         -0.000794161511 Eh    ::
         :: -> anisotropic XC         -0.001561992504 Eh    ::
         :: -> dispersion             -0.001856087629 Eh    ::
         :: repulsion energy           0.059518762577 Eh    ::
         :: add. restraining           0.000000000000 Eh    ::
         :: total charge              -1.000000000000 e     ::
         :::::::::::::::::::::::::::::::::::::::::::::::::::::

           ------------------------------------------------- 
          |                Numerical Hessian                |
           ------------------------------------------------- 
step length          :   0.00500
SCC accuracy         :   0.30000
Hessian scale factor :   1.00000
frozen atoms in %    :   0.00000    0
RMS gradient         :   0.00024
estimated CPU  time      0.00 min
estimated wall time      0.00 min

writing file <hessian>.

 projected vibrational frequencies (cm⁻¹)
eigval :       -0.00    -0.00    -0.00     0.00     0.00     0.00
eigval :       78.36    78.54   108.83   996.49  1090.84  1091.07
eigval :     1377.20  1452.40  1452.44  3049.14  3053.94  3054.33

Property printout bound to 'properties.out'
Refinement of some symmetry elements was terminated before convergence was reached.
Some symmetry elements may remain unidentified.
Molecule has the following symmetry elements: (C3) 3*(sigma) 
It seems to be the C3v point group

           -------------------------------------------------
          | TOTAL ENERGY              -13.191986998772 Eh   |
          | TOTAL ENTHALPY            -13.147366022032 Eh   |
          | TOTAL FREE ENERGY         -13.181326473005 Eh   |
          | GRADIENT NORM               0.000240591681 Eh/α |
          | HOMO-LUMO GAP              10.025667866964 eV   |
           -------------------------------------------------

------------------------------------------------------------------------
 * finished run on 2026/03/16 at 14:14:07.563     
------------------------------------------------------------------------
 total:
 * wall-time:     0 d,  0 h,  0 min,  0.299 sec
 *  cpu-time:     0 d,  0 h,  0 min,  0.582 sec
 * ratio c/w:     1.946 speedup
 SCF:
 * wall-time:     0 d,  0 h,  0 min,  0.122 sec
 *  cpu-time:     0 d,  0 h,  0 min,  0.361 sec
 * ratio c/w:     2.951 speedup
 analytical hessian:
 * wall-time:     0 d,  0 h,  0 min,  0.082 sec
 *  cpu-time:     0 d,  0 h,  0 min,  0.138 sec
 * ratio c/w:     1.687 speedup


-------------------------   --------------------
FINAL SINGLE POINT ENERGY       -13.191986998770
-------------------------   --------------------


-------------
DIPOLE MOMENT
-------------
                                X             Y             Z
Total Dipole Moment    :      0.10800       0.06200       3.76400
                        -----------------------------------------
Magnitude (a.u.)       :      3.76606
Magnitude (Debye)      :      9.57256


-----------------------
VIBRATIONAL FREQUENCIES
-----------------------

Scaling factor for frequencies =  1.000000000  (already applied!)

     0:       0.00 cm**-1
     1:       0.00 cm**-1
     2:       0.00 cm**-1
     3:       0.00 cm**-1
     4:       0.00 cm**-1
     5:       0.00 cm**-1
     6:      78.35 cm**-1
     7:      78.53 cm**-1
     8:     108.83 cm**-1
     9:     996.48 cm**-1
    10:    1090.81 cm**-1
    11:    1091.05 cm**-1
    12:    1377.16 cm**-1
    13:    1452.36 cm**-1
    14:    1452.40 cm**-1
    15:    3049.05 cm**-1
    16:    3053.85 cm**-1
    17:    3054.24 cm**-1


------------
NORMAL MODES
------------

These modes are the Cartesian displacements weighted by the diagonal matrix
M(i,i)=1/sqrt(m[i]) where m[i] is the mass of the displaced atom
Thus, these vectors are normalized but *not* orthogonal

                  0          1          2          3          4          5    
      0       0.000000   0.000000   0.000000   0.000000   0.000000   0.000000
      1       0.000000   0.000000   0.000000   0.000000   0.000000   0.000000
      2       0.000000   0.000000   0.000000   0.000000   0.000000   0.000000
      3       0.000000   0.000000   0.000000   0.000000   0.000000   0.000000
      4       0.000000   0.000000   0.000000   0.000000   0.000000   0.000000
      5       0.000000   0.000000   0.000000   0.000000   0.000000   0.000000
      6       0.000000   0.000000   0.000000   0.000000   0.000000   0.000000
      7       0.000000   0.000000   0.000000   0.000000   0.000000   0.000000
      8       0.000000   0.000000   0.000000   0.000000   0.000000   0.000000
      9       0.000000   0.000000   0.000000   0.000000   0.000000   0.000000
     10       0.000000   0.000000   0.000000   0.000000   0.000000   0.000000
     11       0.000000   0.000000   0.000000   0.000000   0.000000   0.000000
     12       0.000000   0.000000   0.000000   0.000000   0.000000   0.000000
     13       0.000000   0.000000   0.000000   0.000000   0.000000   0.000000
     14       0.000000   0.000000   0.000000   0.000000   0.000000   0.000000
     15       0.000000   0.000000   0.000000   0.000000   0.000000   0.000000
     16       0.000000   0.000000   0.000000   0.000000   0.000000   0.000000
     17       0.000000   0.000000   0.000000   0.000000   0.000000   0.000000
                  6          7          8          9         10         11    
      0       0.293778  -0.145286   0.013284   0.018057  -0.118747   0.068559
      1       0.145152   0.294023   0.006811   0.010312  -0.068494  -0.118825
      2       0.012254   0.000535  -0.413987  -0.548883  -0.004947   0.000029
      3       0.398579  -0.212896   0.012902   0.014495   0.211418  -0.151257
      4       0.201619   0.408394   0.005147   0.017594   0.066537   0.115717
      5       0.190435   0.351784  -0.410818  -0.416777   0.383558   0.647745
      6       0.402641  -0.196912   0.011926   0.022661   0.163261  -0.024470
      7       0.192210   0.416785   0.006798   0.003991   0.149663   0.188863
      8       0.234327  -0.324710  -0.409293  -0.417065   0.384068  -0.647265
      9       0.427671  -0.197900   0.013670   0.006134   0.153726  -0.129600
     10       0.213296   0.404523   0.006747   0.003863   0.088576   0.224566
     11      -0.372922  -0.024399  -0.407712  -0.420888  -0.744318  -0.000293
     12      -0.161171   0.079728   0.014346  -0.013760   0.046563  -0.026873
     13      -0.079629  -0.161311   0.008753  -0.007906   0.026861   0.046580
     14      -0.007298  -0.000696  -0.410579   0.414907   0.001872  -0.000027
     15      -0.048102   0.023776  -0.013283   0.000025   0.000254  -0.000145
     16      -0.023767  -0.048133  -0.007530   0.000020   0.000146   0.000251
     17      -0.001715   0.000116   0.395178  -0.000705   0.000010  -0.000001
                 12         13         14         15         16         17    
      0       0.003835   0.006028   0.064293  -0.005448  -0.044084  -0.077742
      1       0.002162  -0.064305   0.006038  -0.003000   0.077995  -0.043945
      2      -0.115979  -0.000933   0.002280   0.038551  -0.000005  -0.005672
      3      -0.017975  -0.058242  -0.737060   0.003725  -0.029587  -0.035085
      4       0.191043  -0.119795   0.011398   0.572255  -0.673024   0.348302
      5       0.540250  -0.320951   0.004945  -0.168275   0.217156  -0.115051
      6       0.156889   0.358309  -0.133191   0.499128   0.590922   0.295052
      7      -0.110713   0.482187  -0.427236  -0.283694  -0.306123  -0.210140
      8       0.540761   0.204981   0.246318  -0.168875  -0.214502  -0.119004
      9      -0.192771  -0.386148  -0.045088  -0.435293  -0.028070   0.680328
     10      -0.110729   0.553346   0.330090  -0.251368   0.035669   0.393360
     11       0.528193   0.129653  -0.283589  -0.178510  -0.002545   0.305379
     12       0.000421   0.000712   0.007455  -0.000137  -0.000473  -0.000829
     13       0.000237  -0.007466   0.000689  -0.000076   0.000838  -0.000469
     14      -0.011648  -0.000127   0.000257   0.002721  -0.000002  -0.000188
     15       0.000007   0.000024   0.000248  -0.000002   0.000027   0.000047
     16       0.000005  -0.000250   0.000023  -0.000001  -0.000048   0.000027
     17      -0.000219  -0.000005   0.000009   0.000142  -0.000000  -0.000006


The first frequency considered to be a vibration is 6
The total number of vibrations considered is 12


--------------------------
THERMOCHEMISTRY AT 298.15K
--------------------------

Temperature         ...   298.15 K
Pressure            ...     1.00 atm
Total Mass          ...    69.49 AMU
Quasi RRHO          ...     True
Cut-Off Frequency   ...     1.00 cm^-1

Throughout the following assumptions are being made:
  (1) The electronic state is orbitally nondegenerate
  (2) There are no thermally accessible electronically excited states
  (3) Hindered rotations indicated by low frequency modes are not
      treated as such but are treated as vibrations and this may
      cause some error
  (4) All equations used are the standard statistical mechanics
      equations for an ideal gas
  (5) All vibrations are strictly harmonic

freq.      78.35  E(vib)   ...       0.49 
freq.      78.53  E(vib)   ...       0.49 
freq.     108.83  E(vib)   ...       0.45 
freq.     996.48  E(vib)   ...       0.02 
freq.    1090.81  E(vib)   ...       0.02 
freq.    1091.05  E(vib)   ...       0.02 
freq.    1377.16  E(vib)   ...       0.01 
freq.    1452.36  E(vib)   ...       0.00 
freq.    1452.40  E(vib)   ...       0.00 
freq.    3049.05  E(vib)   ...       0.00 
freq.    3053.85  E(vib)   ...       0.00 
freq.    3054.24  E(vib)   ...       0.00 

------------
INNER ENERGY
------------

The inner energy is: U= E(el) + E(ZPE) + E(vib) + E(rot) + E(trans)
    E(el)   - is the total energy from the electronic structure calculation
              = E(kin-el) + E(nuc-el) + E(el-el) + E(nuc-nuc)
    E(ZPE)  - the the zero temperature vibrational energy from the frequency calculation
    E(vib)  - the the finite temperature correction to E(ZPE) due to population
              of excited vibrational states
    E(rot)  - is the rotational thermal energy
    E(trans)- is the translational thermal energy

Summary of contributions to the inner energy U:
Electronic energy                ...    -13.19198700 Eh
Zero point energy                ...      0.03846260 Eh      24.14 kcal/mol
Thermal vibrational correction   ...      0.00238057 Eh       1.49 kcal/mol
Thermal rotational correction    ...      0.00141627 Eh       0.89 kcal/mol
Thermal translational correction ...      0.00141627 Eh       0.89 kcal/mol
-----------------------------------------------------------------------
Total thermal energy                    -13.14831129 Eh


Summary of corrections to the electronic energy:
(perhaps to be used in another calculation)
Total thermal correction                  0.00521311 Eh       3.27 kcal/mol
Non-thermal (ZPE) correction              0.03846260 Eh      24.14 kcal/mol
-----------------------------------------------------------------------
Total correction                          0.04367571 Eh      27.41 kcal/mol


--------
ENTHALPY
--------

The enthalpy is H = U + kB*T
                kB is Boltzmann's constant
Total thermal energy              ...    -13.14831129 Eh 
Thermal Enthalpy correction       ...      0.00094421 Eh       0.59 kcal/mol
-----------------------------------------------------------------------
Total Enthalpy                    ...    -13.14736708 Eh


WARNING (ORCA/SYM): The number of Z matrix atoms does not agree with
the number of centers in the basis set. The point group will therefore
be determined without considering basis set information.


Note: Rotational entropy computed according to Herzberg 
Infrared and Raman Spectra, Chapter V,1, Van Nostrand Reinhold, 1945 
Point Group:  Cs, Symmetry Number:   1  
Rotational constants in cm-1:     5.269397     0.062362     0.062362 

Vibrational entropy computed according to the QRRHO of S. Grimme
Chem.Eur.J. 2012 18 9955 using a reference frequency of 100.0 cm-1


-------
ENTROPY
-------

The entropy contributions are T*S = T*(S(el)+S(vib)+S(rot)+S(trans))
     S(el)   - electronic entropy
     S(vib)  - vibrational entropy
     S(rot)  - rotational entropy
     S(trans)- translational entropy
The entropies will be listed as multiplied by the temperature to get
units of energy

Electronic entropy                ...      0.00000000 Eh      0.00 kcal/mol
Vibrational entropy               ...      0.00474907 Eh      2.98 kcal/mol
Rotational entropy                ...      0.01134614 Eh      7.12 kcal/mol
Translational entropy             ...      0.01835566 Eh     11.52 kcal/mol
-----------------------------------------------------------------------
Final entropy term                ...      0.03445086 Eh     21.62 kcal/mol

In case the symmetry of your molecule has not been determined correctly
or in case you have a reason to use a different symmetry number we print 
out the resulting rotational entropy values for sn=1,12:

 non-linear molecules -----------------------------------
|  sn= 1 | S(rot)=       0.01134614 Eh      7.12 kcal/mol|
|  sn= 2 | S(rot)=       0.01069169 Eh      6.71 kcal/mol|
|  sn= 3 | S(rot)=       0.01030885 Eh      6.47 kcal/mol|
|  sn= 4 | S(rot)=       0.01003723 Eh      6.30 kcal/mol|
|  sn= 5 | S(rot)=       0.00982654 Eh      6.17 kcal/mol|
|  sn= 6 | S(rot)=       0.00965440 Eh      6.06 kcal/mol|
|  sn= 7 | S(rot)=       0.00950885 Eh      5.97 kcal/mol|
|  sn= 8 | S(rot)=       0.00938277 Eh      5.89 kcal/mol|
|  sn= 9 | S(rot)=       0.00927156 Eh      5.82 kcal/mol|
|  sn=10 | S(rot)=       0.00917208 Eh      5.76 kcal/mol|
|  sn=11 | S(rot)=       0.00908209 Eh      5.70 kcal/mol|
|  sn=12 | S(rot)=       0.00899994 Eh      5.65 kcal/mol|
 linear molecules ---------------------------------------
|  Dinfh | S(rot)=       0.00794571 Eh      4.99 kcal/mol|
|  Cinfv | S(rot)=       0.00860017 Eh      5.40 kcal/mol|
 --------------------------------------------------------


-------------------
GIBBS FREE ENERGY
-------------------

The Gibbs free energy is G = H - T*S

Total enthalpy                    ...    -13.14736708 Eh 
Total entropy correction          ...     -0.03445086 Eh    -21.62 kcal/mol
-----------------------------------------------------------------------
Final Gibbs free energy         ...    -13.18181794 Eh

For completeness - the Gibbs free energy minus the electronic energy
G-E(el)                           ...      0.01016906 Eh      6.38 kcal/mol


--------------------------------
SUGGESTED CITATIONS FOR THIS RUN
--------------------------------

Below you find a list of papers that are relevant to this ORCA run
We neither can nor want to force you to cite these papers, but we appreciate if you do
You receive ORCA, which is the product of decades of hard work by many enthusiastic individuals, for free
The only thing we kindly ask in return is that you cite our papers,
We deeply appreciate it, if you show your appreciation for ORCA by not just citing the generic ORCA reference.

Please note that relegating all ORCA citations to the supporting information does *not* help us.
SI sections are not indexed - citations you put there will not count into any citation statistics
But we need these citations in order to attract the funding resources that allow us to do what we are doing

Therefore, if you are a happy ORCA user, please consider citing a few of the papers listed below in the main body of your paper

In addition to the list printed below, the program has created the file product_optfreq.bibtex that contains the list in bibtex format
You can import this file easily into all common literature databanks and citation aid programs


List of essential papers. We consider these as the minimum necessary citations

  1. Bannwarth, C.; Ehlert, S.; Grimme, S.
     GFN2-xTB—An Accurate and Broadly Parametrized Self-Consistent Tight-Binding Quantum Chemical Method with Multipole Electrostatics and Density-Dependent Dispersion Contributions
     J. Chem. Theory Comput. 2019 15(3), 1652-1671
     doi.org/10.1021/acs.jctc.8b01176
  2. Neese, F.
     Software update: the ORCA program system, version 6.0
     WIRES Comput. Molec. Sci. 2025 15(1), e70019
     doi.org/10.1002/wcms.7019

List of papers to cite with high priority. The work reported in these papers was absolutely
necessary for this run to complete.
Our perspective: the developers of density functionals and basis sets usually get cited in chemistry papers
Good! But without the algorithms to do something with them, the functionals or basis sets would not do anything.
Hence, in our opinion, the algorithm design and method developments papers are equally worthy of getting cited

  1. Bykov, D.; Petrenko, T.; Izsak, R.; Kossmann, S.; Becker, U.; Valeev, E.; Neese, F.
     Efficient implementation of the analytic second derivatives of Hartree-Fock and hybrid DFT energies: a detailed analysis of different approximations
     Molec. Phys. 2015 113 , 1961-1977
     doi.org/10.1080/00268976.2015.1025114
  2. Bannwarth, C.; Caldeweyher, E.; Ehlert, S.; Hansen, A.; Pracht, P.; Seibert, J.; Spicher, S.; Grimme, S.
     Extended tight-binding quantum chemistry methods
     WIRES Comput. Molec. Sci. 2020 11(2), e1493
     doi.org/10.1002/wcms.1493

List of suggested additional citations. These are papers that are important in the 'surrounding' of 
of this run, or papers that preceded the highly important papers. If you like your results we are grateful for a citation.

  1. Neese, F.
     The ORCA program system
     WIRES Comput. Molec. Sci. 2012 2(1), 73-78
     doi.org/10.1002/wcms.81
  2. Neese, F.
     Software update: the ORCA program system, version 4.0
     WIRES Comput. Molec. Sci. 2018 8(1), 1-6
     doi.org/10.1002/wcms.1327
  3. Neese, F.; Wennmohs, F.; Becker, U.; Riplinger, C.
     The ORCA quantum chemistry program package
     J. Chem. Phys. 2020 152(22), 224108
     doi.org/10.1063/5.0004608
  4. Neese, F.
     Software update: The ORCA program system—Version 5.0
     WIRES Comput. Molec. Sci. 2022 12(1), e1606
     doi.org/10.1002/wcms.1606

List of optional additional citations

  1. Neese, F.
     Approximate second-order SCF convergence for spin unrestricted wavefunctions
     Chem. Phys. Lett. 2000 325(1-3), 93-98
     doi.org/10.1016/s0009-2614(00)00662-x

Timings for individual modules:

Sum of individual times          ...        4.830 sec (=   0.081 min)
Geometry relaxation              ...        0.198 sec (=   0.003 min)   4.1 %
XTB module                       ...        4.632 sec (=   0.077 min)  95.9 %
                             ****ORCA TERMINATED NORMALLY****
TOTAL RUN TIME: 0 days 0 hours 0 minutes 5 seconds 696 msec
