
                                 *****************
                                 * O   R   C   A *
                                 *****************

                                            #,                                       
                                            ###                                      
                                            ####                                     
                                            #####                                    
                                            ######                                   
                                           ########,                                 
                                     ,,################,,,,,                         
                               ,,#################################,,                 
                          ,,##########################################,,             
                       ,#########################################, ''#####,          
                    ,#############################################,,   '####,        
                  ,##################################################,,,,####,       
                ,###########''''           ''''###############################       
              ,#####''   ,,,,##########,,,,          '''####'''          '####       
            ,##' ,,,,###########################,,,                        '##       
           ' ,,###''''                  '''############,,,                           
         ,,##''                                '''############,,,,        ,,,,,,###''
      ,#''                                            '''#######################'''  
     '                                                          ''''####''''         
             ,#######,   #######,   ,#######,      ##                                
            ,#'     '#,  ##    ##  ,#'     '#,    #''#        ,####,    ,#,          
            ##       ##  ##   ,#'  ##            #'  '#       #'       ,# #          
            ##       ##  #######   ##           ,######,      #####,      #          
            '#,     ,#'  ##    ##  '#,     ,#' ,#      #,     #,   #      #          
             '#######'   ##     ##  '#######'  #'      '#     '####' #    #          



                #########################################################
                #                        -***-                          #
                #          Department of theory and spectroscopy        #
                #                                                       #
                #                      Frank Neese                      #
                #                                                       #
                #     Directorship, Architecture, Infrastructure        #
                #                    SHARK, DRIVERS                     #
                #        Core code/Algorithms in most modules           #
                #                                                       #
                #        Max Planck Institute fuer Kohlenforschung      #
                #                Kaiser Wilhelm Platz 1                 #
                #                 D-45470 Muelheim/Ruhr                 #
                #                      Germany                          #
                #                                                       #
                #                  All rights reserved                  #
                #                        -***-                          #
                #########################################################


                         Program Version 6.1.0  -  RELEASE   -
                                (GIT: $679e74b$)
                          ($2025-06-10 18:02:51 +0200$)


 With contributions from (in alphabetic order):
[Max-Planck-Institut fuer Kohlenforschung]                               
  Daniel Aravena         : Magnetic Suceptibility                        
  Michael Atanasov       : Ab Initio Ligand Field Theory (pilot matlab implementation)
  Alexander A. Auer      : GIAO ZORA, VPT2 properties, NMR spectrum      
  Ute Becker             : All parallelization in ORCA, NUMFREQ, NUMCALC 
  Giovanni Bistoni       : ED, misc. LED, open-shell LED, HFLD           
  Dmytro Bykov           : pre 5.0 version of the SCF Hessian            
  Marcos Casanova-Páez   : Triplet and SCS-CIS(D). UHF-(DLPNO)-IP/EA/STEOM-CCSD. UHF-CVS-IP/STEOM-CCSD   
  Vijay G. Chilkuri      : MRCI spin determinant printing, contributions to CSF-ICE 
  Pauline Colinet        : FMM embedding                                 
  Dipayan Datta          : RHF DLPNO-CCSD density                        
  Achintya Kumar Dutta   : EOM-CC, STEOM-CC                              
  Nicolas Foglia         : Exact transition moments, OPA infrastructure, MCD improvements    
  Dmitry Ganyushin       : Spin-Orbit,Spin-Spin,Magnetic field MRCI      
  Miquel Garcia-Rates    : C-PCM and meta-GGA Hessian, CCSD/C-PCM, Gaussian charge scheme 
  Tiago L. C. Gouveia    : GS-ROHF, GS-ROCIS                             
  Yang Guo               : DLPNO-NEVPT2, F12-NEVPT2, CIM, IAO-localization        
  Andreas Hansen         : Spin unrestricted coupled pair/coupled cluster methods 
  Ingolf Harden          : AUTO-CI MPn and infrastructure                
  Benjamin Helmich-Paris : MC-RPA, TRAH-(SCF,CASSCF), AVAS, COSX integrals, SCF dyn. polar., MC-PDFT, srDFT 
  Lee Huntington         : MR-EOM, pCC                                   
  Robert Izsak           : Overlap fitted RIJCOSX, COSX-SCS-MP3, EOM     
  Riya Kayal             : Wick's Theorem for AUTO-CI, AUTO-CI UHF-CCSDT 
  Emily Kempfer          : AUTO-CI RHF CISDT and CCSDT, approximate NEVPT4
  Christian Kollmar      : KDIIS, OOCD, Brueckner-CCSD(T), CCSD density, CASPT2, CASPT2-K, improved NEVPT2 
  Axel Koslowski         : Symmetry handling                             
  Simone Kossmann        : meta-GGA functionals, TD-DFT gradient, OOMP2, (MP2 Hessian; deprecated post 5.0) 
  Lucas Lang             : DCDCAS, Hyperfine gauge corrections, ICE-SOC+SSC
  Marvin Lechner         : AUTO-CI (C++ implementation), FIC-MRCC        
  Spencer Leger          : CASSCF response                               
  Dagmar Lenk            : GEPOL surface, SMD, ORCA-2-JSON               
  Dimitrios Liakos       : Extrapolation schemes; Compound Job, Property file
  Dimitrios Manganas     : Further ROCIS development; embedding schemes. LFT, Crystal Embedding 
  Dimitrios Pantazis     : SARC Basis sets                               
  Anastasios Papadopoulos: AUTO-CI, single reference methods and gradients 
  Taras Petrenko         : pre 6.0 DFT Hessian and TD-DFT gradient,  ECA, NRVS 
  Petra Pikulova         : Analytic Raman intensities                    
  Peter Pinski           : DLPNO-MP2, DLPNO-MP2 Gradient                 
  Shashank Vittal Rao    : ES-AILFT, MagRelax                            
  Christoph Reimann      : Effective Core Potentials                     
  Marius Retegan         : Local ZFS, SOC                                
  Christoph Riplinger    : Optimizer, TS searches, QM/MM, DLPNO-CCSD(T), (RO)-DLPNO pert. Triples 
  Michael Roemelt        : Original ROCIS implementation, recursive CI coupling coefficients
  Masaaki Saitow         : Open-shell DLPNO-CCSD energy and density      
  Barbara Sandhoefer     : DKH picture change effects                    
  Yorick L. A. Schmerwitz: GMF and freeze-and-release deltaSCF, NEB S-IDPP initial path                    
  Kantharuban Sivalingam : CASSCF convergence/infrastructure, NEVPT2, NEVPT3, NEVPT4(SD), FIC-MRCI and CEPA variants
  Bernardo de Souza      : ESD, SOC TD-DFT                               
  Georgi L. Stoychev     : AutoAux, RI-MP2 NMR, DLPNO-MP2 response, X2C  
  Van Anh Tran           : RI-MP2 g-tensors                              
  Willem Van den Heuvel  : Paramagnetic NMR                              
  Zikuan Wang            : NOTCH, Electric field optimization            
  Frank Wennmohs         : Technical directorship and infrastructure     
  Hang Xu                : AUTO-CI-Response properties                   
                                                                         
[FACCTs GmbH]                                                            
  Markus Bursch, Nicolas Foglia, Miquel Garcia-Rates, Ingolf Harden, Hagen Neugebauer, Anastasios Papadopoulos, 
  Christoph Riplinger, Bernardo de Souza, Georgi L. Stoychev                                                    
                                                                 
  APM, various basis sets, CI-OPT, improved COSX, DLPNO-Multilevel,           
  DOCKER, DRACO, updates on ESD, Fragmentator, GOAT, IRC, LR-CPCM, L-BFGS, MBIS, meta-GGA TD-DFT gradient, ML-optimized integration grids, 
  MM, NACMEs, nearIR, NEB, NEB-TS, NL-DFT gradient (VV10), 2- and 3-layer-ONIOM, interface openCOSMO-RS, QMMM,   
  Crystal-QMMM, RESP, rigid body optimization, SF, symmetry and pop. for TD-DFT, various functionals, SOLVATOR                                   
                                                                         
[Other institutions]                                                     
  V. Asgeirsson          : NEB                                           
  Christoph Bannwarth    : sTDA-DFT, sTD-DFT, PBEh-3c, B97-3c, D3        
  Giovanni Bistoni       : ETS/NOCV, ADLD/ADEX, COVALED                  
  Martin Brehm           : Molecular dynamics                            
  Ronald Cardenas        : ETS/NOCV                                      
  Martina Colucci        : COVALED                                       
  Sebastian Ehlert       : rSCAN, r2SCAN, r2SCAN-3c, D4, dhf basis sets  
  Marvin Friede          : D4 for Fr, Ra, Ac-Lr                          
  Lars Goerigk           : TD-DFT with DH, B97 family of functionals     
  Stefan Grimme          : VdW corrections, initial TS optimization, DFT functionals, gCP, sTDA/sTD-DF 
  Waldemar Hujo          : DFT-NL                                        
  H. Jonsson             : NEB                                           
  Holger Kruse           : gCP                                           
  Marcel Mueller         : wB97X-3c, vDZP basis set                      
  Hagen Neugebauer       : wr2SCAN, Native XTB                           
  Gianluca Regni         : ADLD/ADEX                                     
  Tobias Risthaus        : pre 6.0 range-separated hybrid DFT and stability analysis
  Lukas Wittmann         : regularized MP2, r2SCAN double-hybrids, wr2SCAN        
                                                                         
We gratefully acknowledge several colleagues who have allowed us to      
interface, adapt or use parts of their codes:                            
  Ed Valeev, F. Pavosevic, A. Kumar             : LibInt (2-el integral package), F12 methods 
  Garnet Chan, S. Sharma, J. Yang, R. Olivares  : DMRG                   
  Ulf Ekstrom                                   : XCFun DFT Library      
  Mihaly Kallay                                 : mrcc  (arbitrary order and MRCC methods)
  Frank Weinhold                                : gennbo (NPA and NBO analysis)           
  Simon Mueller                                 : openCOSMO-RS                            
  Christopher J. Cramer and Donald G. Truhlar   : smd solvation model                     
  S Lehtola, MJT Oliveira, MAL Marques          : LibXC Library                           
  Liviu Ungur et al                             : ANISO software                          


 Your calculation uses the libint2 library for the computation of 2-el integrals
 For citations please refer to: http://libint.valeyev.net

 Your ORCA version has been built with support for libXC version: 7.0.0
 For citations please refer to: https://libxc.gitlab.io

 This ORCA versions uses:
   CBLAS   interface :  Fast vector & matrix operations
   LAPACKE interface :  Fast linear algebra routines
   SCALAPACK package :  Parallel linear algebra routines
   Shared memory     :  Shared parallel matrices
   BLAS/LAPACK       :  OpenBLAS 0.3.29  USE64BITINT DYNAMIC_ARCH NO_AFFINITY SkylakeX SINGLE_THREADED
        Core in use  :  SkylakeX
   Copyright (c) 2011-2014, The OpenBLAS Project


  ***********************************
  * Starting time: Mon Mar 16 14:13:59 2026
  * Host name:     midway3-login4.rcc.local
  * Process ID:    45219
  * Working dir.:  /home/rzhu16/evans-polanyi-principle-validation/runs/sn2_f_cl/geo_opt_reactant_product
  ***********************************

Your calculation utilizes the semiempirical GFN2-xTB method
Please cite in your paper:
Bannwarth, C.; Ehlert S.; Grimme, S. J. Chem. Theory Comput. 2019, 15, 1652.
   

================================================================================

================================================================================
                                        WARNINGS
                       Please study these warnings very carefully!
================================================================================


WARNING: Analytical Hessian for XTB is limited in the analysis of the data.
       : If you want to obtain extensive IR and deltaG analysis, please use ! XTB NumFreq. 


WARNING: Geometry Optimization
  ===> : Switching off AutoStart
         For restart on a previous wavefunction, please use MOREAD

WARNING: Found dipole moment calculation with XTB calculation
  ===> : Switching off dipole moment calculation


WARNING: Found frequency calculation in combination with XTB calculation
  ===> : Need to redirect dipole moment calculation to properties.out


================================================================================
                                       INPUT FILE
================================================================================
NAME = reactant_optfreq.inp
|  1> ! XTB2 Opt Freq PAL8
|  2> 
|  3> %geom
|  4>   MaxIter 500
|  5> end
|  6> 
|  7> * xyz -1 1
|  8>   C       0.324487      0.187310     -0.330130
|  9>   H       0.416041      1.269722     -0.287806
| 10>   H       1.307478     -0.274747     -0.287761
| 11>   H      -0.290684     -0.167704      0.542359
| 12>   F      -0.633736     -0.365769      2.133985
| 13>   Cl     -0.365137     -0.210742     -1.917945
| 14> *
| 15> 
| 16>                          ****END OF INPUT****
================================================================================

                       *****************************
                       * Geometry Optimization Run *
                       *****************************

Geometry optimization settings:
Update method            Update   .... BFGS
Choice of coordinates    CoordSys .... (2022) Redundant Internals
Initial Hessian          InHess   .... Almloef's Model
Max. no of cycles        MaxIter  .... 500

Convergence Tolerances:
Energy Change            TolE     ....  5.0000e-06 Eh
Max. Gradient            TolMAXG  ....  3.0000e-04 Eh/bohr
RMS Gradient             TolRMSG  ....  1.0000e-04 Eh/bohr
Max. Displacement        TolMAXD  ....  4.0000e-03 bohr
RMS Displacement         TolRMSD  ....  2.0000e-03 bohr
Strict Convergence                .... False

------------------------------------------------------------------------------
                        ORCA OPTIMIZATION COORDINATE SETUP
------------------------------------------------------------------------------

The optimization will be done in redundant internal coordinates (2022)
Making redundant internal coordinates   ...  (2022 redundants) done
Evaluating the initial hessian          ...  (Almloef) done
Evaluating the coordinates              ...  done
Calculating the B-matrix                .... done
Calculating the G-matrix                .... done
The number of degrees of freedom        ....   16

    -----------------------------------------------------------------
                    Redundant Internal Coordinates


    -----------------------------------------------------------------
         Definition                    Initial Value    Approx d2E/dq
    -----------------------------------------------------------------
      1. B(H   1,C   0)                  1.0871         0.363955   
      2. B(H   2,C   0)                  1.0870         0.364094   
      3. B(H   3,C   0)                  1.1250         0.316610   
      4. B(F   4,H   3)                  1.6402         0.039708   
      5. B(Cl  5,H   3)                  2.4618         0.010000   
      6. B(Cl  5,C   0)                  1.7763         0.339191   
      7. A(H   1,C   0,H   3)          109.2721         0.285517   
      8. A(H   1,C   0,H   2)          110.2163         0.291832   
      9. A(H   1,C   0,Cl  5)          106.8954         0.333101   
     10. A(H   2,C   0,Cl  5)          106.8986         0.333122   
     11. A(H   3,C   0,Cl  5)          114.2194         0.325521   
     12. A(H   2,C   0,H   3)          109.2759         0.285534   
     13. A(C   0,H   3,F   4)          154.8281         0.205697   
     14. D(F   4,H   3,C   0,H   2)     60.3232         0.097070   
     15. D(F   4,H   3,C   0,Cl  5)    179.9914         0.097070   
     16. D(F   4,H   3,C   0,H   1)    -60.3473         0.097070   
    -----------------------------------------------------------------

Number of atoms                         .... 6
Number of degrees of freedom            .... 16


         *************************************************************
         *                GEOMETRY OPTIMIZATION CYCLE   1            *
         *************************************************************
---------------------------------
CARTESIAN COORDINATES (ANGSTROEM)
---------------------------------
  C     0.324487    0.187310   -0.330130
  H     0.416041    1.269722   -0.287806
  H     1.307478   -0.274747   -0.287761
  H    -0.290684   -0.167704    0.542359
  F    -0.633736   -0.365769    2.133985
  Cl   -0.365137   -0.210742   -1.917945

----------------------------
CARTESIAN COORDINATES (A.U.)
----------------------------
  NO LB    ZA    FRAG    MASS        X           Y           Z
   0 C   6.0000    0    12.011    0.613192    0.353965   -0.623855
   1 H   1.0000    0     1.008    0.786204    2.399427   -0.543875
   2 H   1.0000    0     1.008    2.470775   -0.519197   -0.543789
   3 H   1.0000    0     1.008   -0.549313   -0.316915    1.024910
   4 F   9.0000    0    18.998   -1.197587   -0.691203    4.032647
   5 Cl 17.0000    0    35.453   -0.690009   -0.398245   -3.624391

      -----------------------------------------------------------      
     |                   =====================                   |     
     |                           x T B                           |     
     |                   =====================                   |     
     |                         S. Grimme                         |     
     |          Mulliken Center for Theoretical Chemistry        |     
     |                    University of Bonn                     |     
      -----------------------------------------------------------      

   * xtb version 6.7.1 (edcfbbe) compiled by 'albert@albert-system' on 2024-07-22

   xtb is free software: you can redistribute it and/or modify it under
   the terms of the GNU Lesser General Public License as published by
   the Free Software Foundation, either version 3 of the License, or
   (at your option) any later version.
   
   xtb is distributed in the hope that it will be useful,
   but WITHOUT ANY WARRANTY; without even the implied warranty of
   MERCHANTABILITY or FITNESS FOR A PARTICULAR PURPOSE.  See the
   GNU Lesser General Public License for more details.
   
   Cite this work as:
   * C. Bannwarth, E. Caldeweyher, S. Ehlert, A. Hansen, P. Pracht,
     J. Seibert, S. Spicher, S. Grimme, WIREs Comput. Mol. Sci., 2020, 11,
     e01493. DOI: 10.1002/wcms.1493
   
   for GFN2-xTB:
   * C. Bannwarth, S. Ehlert and S. Grimme., J. Chem. Theory Comput., 2019,
     15, 1652-1671. DOI: 10.1021/acs.jctc.8b01176
   for GFN1-xTB:
   * S. Grimme, C. Bannwarth, P. Shushkov, J. Chem. Theory Comput., 2017,
     13, 1989-2009. DOI: 10.1021/acs.jctc.7b00118
   for GFN0-xTB:
   * P. Pracht, E. Caldeweyher, S. Ehlert, S. Grimme, ChemRxiv, 2019, preprint.
     DOI: 10.26434/chemrxiv.8326202.v1
   for GFN-FF:
   * S. Spicher and S. Grimme, Angew. Chem. Int. Ed., 2020, 59, 15665-15673.
     DOI: 10.1002/anie.202004239
   
   for ALPB and GBSA implicit solvation:
   * S. Ehlert, M. Stahn, S. Spicher, S. Grimme, J. Chem. Theory Comput.,
     2021, 17, 4250-4261. DOI: 10.1021/acs.jctc.1c00471
   
   for ddCOSMO and CPCM-X implicit solvation:
   * M. Stahn, S. Ehlert, S. Grimme, J. Phys. Chem. A,
     2023, XX, XXXX-XXXX. DOI: 10.1021/acs.jpca.3c04382
   
   for DFT-D4:
   * E. Caldeweyher, C. Bannwarth and S. Grimme, J. Chem. Phys., 2017,
     147, 034112. DOI: 10.1063/1.4993215
   * E. Caldeweyher, S. Ehlert, A. Hansen, H. Neugebauer, S. Spicher,
     C. Bannwarth and S. Grimme, J. Chem. Phys., 2019, 150, 154122.
     DOI: 10.1063/1.5090222
   * E. Caldeweyher, J.-M. Mewes, S. Ehlert and S. Grimme, Phys. Chem. Chem. Phys.
     2020, 22, 8499-8512. DOI: 10.1039/D0CP00502A
   
   for sTDA-xTB:
   * S. Grimme and C. Bannwarth, J. Chem. Phys., 2016, 145, 054103.
     DOI: 10.1063/1.4959605
   
   in the mass-spec context:
   * V. Asgeirsson, C. Bauer and S. Grimme, Chem. Sci., 2017, 8, 4879.
     DOI: 10.1039/c7sc00601b
   * J. Koopman and S. Grimme, ACS Omega 2019, 4, 12, 15120-15133.
     DOI: 10.1021/acsomega.9b02011
   
   for metadynamics refer to:
   * S. Grimme, J. Chem. Theory Comput., 2019, 155, 2847-2862
     DOI: 10.1021/acs.jctc.9b00143
   
   for SPH calculations refer to:
   * S. Spicher and S. Grimme, J. Chem. Theory Comput., 2021, 17, 1701-1714
     DOI: 10.1021/acs.jctc.0c01306
   
   for ONIOM refer to:
   * C. Plett, A. Katbashev, S. Ehlert, S. Grimme, M. Bursch,
     Phys. Chem. Chem. Phys., 2023, 25, 17860-17868. DOI: 10.1039/D3CP02178E
   
   for DIPRO refer to:
   * J. Kohn, N. Gildemeister, S. Grimme, D. Fazzi, A. Hansen,
     J. Chem. Phys., 2023, just accepted.
   
   for PTB refer to:
   * S. Grimme, M. Mueller, A. Hansen, J. Chem. Phys., 2023, 158, 124111.
     DOI: 10.1063/5.0137838
   
   with help from (in alphabetical order)
   P. Atkinson, C. Bannwarth, F. Bohle, G. Brandenburg, E. Caldeweyher
   M. Checinski, S. Dohm, S. Ehlert, S. Ehrlich, I. Gerasimov, C. Hölzer
   A. Katbashev, J. Kohn, J. Koopman, C. Lavigne, S. Lehtola, F. März, M. Müller,
   F. Musil, H. Neugebauer, J. Pisarek, C. Plett, P. Pracht, F. Pultar,
   J. Seibert, P. Shushkov, S. Spicher, M. Stahn, M. Steiner, T. Strunk,
   J. Stückrath, T. Rose, and J. Unsleber
   
 * started run on 2026/03/16 at 14:14:00.369     
   ID    Z sym.   atoms
    1    6 C      1
    2    1 H      2-4
    3    9 F      5
    4   17 Cl     6

           -------------------------------------------------
          |                Calculation Setup                |
           -------------------------------------------------

          program call               : /software/orca-6.1.0-el8-x86_64/bin/otool_xtb reactant_optfreq_XTB.xyz --grad -c -1 -u 0 -P 8 --namespace reactant_optfreq --input reactant_optfreq_XTB.input.tmp --acc 0.200000
          hostname                   : midway3-login4.rcc.local
          calculation namespace      : reactant_optfreq
          coordinate file            : reactant_optfreq_XTB.xyz
          omp threads                :                     8


molecular fragmentation (1/2 indicates fragments):
111121
# atoms in fragment 1/2:     5     1
 fragment masses (1/2) :       50.49       19.00
CMA distance (Bohr)    :   6.809
constraining FC (au)   :  0.0500

           -------------------------------------------------
          |                 G F N 2 - x T B                 |
           -------------------------------------------------

        Reference                      10.1021/acs.jctc.8b01176
      * Hamiltonian:
        H0-scaling (s, p, d)           1.850000    2.230000    2.230000
        zeta-weighting                 0.500000
      * Dispersion:
        s8                             2.700000
        a1                             0.520000
        a2                             5.000000
        s9                             5.000000
      * Repulsion:
        kExp                           1.500000    1.000000
        rExp                           1.000000
      * Coulomb:
        alpha                          2.000000
        third order                    shell-resolved
        anisotropic                    true
        a3                             3.000000
        a5                             4.000000
        cn-shift                       1.200000
        cn-exp                         4.000000
        max-rad                        5.000000


          ...................................................
          :                      SETUP                      :
          :.................................................:
          :  # basis functions                  21          :
          :  # atomic orbitals                  20          :
          :  # shells                           10          :
          :  # electrons                        22          :
          :  max. iterations                   250          :
          :  Hamiltonian                  GFN2-xTB          :
          :  restarted?                      false          :
          :  GBSA solvation                  false          :
          :  PC potential                    false          :
          :  electronic temp.          300.0000000     K    :
          :  accuracy                    0.2000000          :
          :  -> integral cutoff          0.3198970E+02      :
          :  -> integral neglect         0.2000000E-08      :
          :  -> SCF convergence          0.2000000E-06 Eh   :
          :  -> wf. convergence          0.2000000E-04 e    :
          :  Broyden damping             0.4000000          :
          :  net charge                         -1          :
          :  unpaired electrons                  0          :
          ...................................................

 iter      E             dE          RMSdq      gap      omega  full diag
   1    -13.1420878 -0.131421E+02  0.519E+00    5.39       0.0  T
   2    -13.1951223 -0.530345E-01  0.276E+00    3.37       1.0  T
   3    -13.1965162 -0.139383E-02  0.149E+00    2.96       1.0  T
   4    -13.1970404 -0.524206E-03  0.371E-01    2.40       1.0  T
   5    -13.1972292 -0.188785E-03  0.220E-01    2.55       1.0  T
   6    -13.1973365 -0.107321E-03  0.152E-01    2.45       1.0  T
   7    -13.1974146 -0.781282E-04  0.309E-02    2.42       1.3  T
   8    -13.1974158 -0.116182E-05  0.141E-02    2.41       2.9  T
   9    -13.1974161 -0.359327E-06  0.844E-03    2.41       4.8  T
  10    -13.1974163 -0.166251E-06  0.243E-03    2.42      16.8  T
  11    -13.1974163 -0.593672E-08  0.543E-04    2.41      75.2  T
  12    -13.1974163 -0.638998E-09  0.144E-04    2.41     283.4  T
  13    -13.1974163 -0.376357E-10  0.174E-05    2.41    2343.0  T

   *** convergence criteria satisfied after 13 iterations ***

         #    Occupation            Energy/Eh            Energy/eV
      -------------------------------------------------------------
         1        2.0000           -0.9103659             -24.7723
       ...           ...                  ...                  ...
         5        2.0000           -0.3426187              -9.3231
         6        2.0000           -0.3199762              -8.7070
         7        2.0000           -0.2685078              -7.3065
         8        2.0000           -0.2607769              -7.0961
         9        2.0000           -0.0959309              -2.6104
        10        2.0000           -0.0930707              -2.5326
        11        2.0000           -0.0930541              -2.5321 (HOMO)
        12                         -0.0043600              -0.1186 (LUMO)
        13                          0.1724092               4.6915
        14                          0.1724235               4.6919
        15                          0.1751608               4.7664
        16                          0.1763603               4.7990
       ...                                ...                  ...
        20                          0.4064913              11.0612
      -------------------------------------------------------------
                  HL-Gap            0.0886941 Eh            2.4135 eV
             Fermi-level           -0.0487070 Eh           -1.3254 eV

 SCC (total)                   0 d,  0 h,  0 min,  0.068 sec
 SCC setup                      ...        0 min,  0.000 sec (  0.372%)
 Dispersion                     ...        0 min,  0.000 sec (  0.088%)
 classical contributions        ...        0 min,  0.000 sec (  0.063%)
 integral evaluation            ...        0 min,  0.061 sec ( 88.885%)
 iterations                     ...        0 min,  0.005 sec (  6.963%)
 molecular gradient             ...        0 min,  0.002 sec (  3.241%)
 printout                       ...        0 min,  0.000 sec (  0.353%)

         :::::::::::::::::::::::::::::::::::::::::::::::::::::
         ::                     SUMMARY                     ::
         :::::::::::::::::::::::::::::::::::::::::::::::::::::
         :: total energy             -13.146020340803 Eh    ::
         :: gradient norm              0.002163891486 Eh/a0 ::
         :: HOMO-LUMO gap              2.413488531277 eV    ::
         ::.................................................::
         :: SCC energy               -13.197416122760 Eh    ::
         :: -> isotropic ES            0.236024221050 Eh    ::
         :: -> anisotropic ES         -0.001476194224 Eh    ::
         :: -> anisotropic XC         -0.001249444015 Eh    ::
         :: -> dispersion             -0.002092869421 Eh    ::
         :: repulsion energy           0.051395781957 Eh    ::
         :: add. restraining           0.000000000000 Eh    ::
         :: total charge              -1.000000000000 e     ::
         :::::::::::::::::::::::::::::::::::::::::::::::::::::


Property printout bound to 'properties.out'

           -------------------------------------------------
          | TOTAL ENERGY              -13.146020340803 Eh   |
          | GRADIENT NORM               0.002163891486 Eh/α |
          | HOMO-LUMO GAP               2.413488531277 eV   |
           -------------------------------------------------

------------------------------------------------------------------------
 * finished run on 2026/03/16 at 14:14:00.462     
------------------------------------------------------------------------
 total:
 * wall-time:     0 d,  0 h,  0 min,  0.092 sec
 *  cpu-time:     0 d,  0 h,  0 min,  0.330 sec
 * ratio c/w:     3.575 speedup
 SCF:
 * wall-time:     0 d,  0 h,  0 min,  0.069 sec
 *  cpu-time:     0 d,  0 h,  0 min,  0.262 sec
 * ratio c/w:     3.819 speedup


-------------------------   --------------------
FINAL SINGLE POINT ENERGY       -13.146020340800
-------------------------   --------------------


-------------
DIPOLE MOMENT
-------------
                                X             Y             Z
Total Dipole Moment    :      1.38300       0.79800      -2.14100
                        -----------------------------------------
Magnitude (a.u.)       :      2.67084
Magnitude (Debye)      :      6.78873


------------------
CARTESIAN GRADIENT
------------------

   1   C   :   -0.000375397   -0.000278693    0.000070873
   2   H   :   -0.000352952   -0.000162935    0.000417725
   3   H   :   -0.000370606   -0.000196803    0.000416874
   4   H   :   -0.000655014   -0.000375093   -0.000602443
   5   F   :    0.001061421    0.000612071    0.000424119
   6   Cl  :    0.000692547    0.000401454   -0.000727148

Difference to translation invariance:
           :   -0.0000000000    0.0000000000   -0.0000000000

Difference to rotation invariance:
           :   -0.0000000046    0.0000000083   -0.0000000001

Norm of the Cartesian gradient     ...    0.0021638915
RMS gradient                       ...    0.0005100341
MAX gradient                       ...    0.0010614214
------------------------------------------------------------------------------
                         ORCA GEOMETRY RELAXATION STEP
------------------------------------------------------------------------------

Reading the OPT-File                    .... done
Getting information on internals        .... done
Copying old internal coords+grads       .... done
Making the new internal coordinates     .... (2022 redundants) done
Validating the new internal coordinates .... (2022 redundants) done
Calculating the B-matrix                .... done
Calculating the G,G- and P matrices     .... done
Transforming gradient to internals      .... done
Projecting the internal gradient        .... done
Number of atoms                         ....   6
Number of internal coordinates          ....  16
Current Energy                          ....   -13.146020341 Eh
Current gradient norm                   ....     0.002163891 Eh/bohr
Maximum allowed component of the step   ....  0.300
Current trust radius                    ....  0.300
Evaluating the initial hessian          ....  (Almloef) done
Projecting the Hessian                  .... done
Forming the augmented Hessian           .... done
Diagonalizing the augmented Hessian     .... done
Last element of RFO vector              ....  0.999661498
Lowest eigenvalues of augmented Hessian:
 -0.000120932  0.039708109  0.088710434  0.097069688  0.205774928
Length of the computed step             ....  0.026025911
The final length of the internal step   ....  0.026025911
Converting the step to Cartesian space:
 Initial RMS(Int)=    0.0065064778
Transforming coordinates:
 Iter   0:  RMS(Cart)=    0.0134916953 RMS(Int)=    0.0064767485
done
Storing new coordinates                 .... done

                                .--------------------.
          ----------------------|Geometry convergence|-------------------------
          Item                value                   Tolerance       Converged
          ---------------------------------------------------------------------
          RMS gradient        0.0012525120            0.0001000000      NO
          MAX gradient        0.0040027193            0.0003000000      NO
          RMS step            0.0065064778            0.0020000000      NO
          MAX step            0.0194478564            0.0040000000      NO
          -------------------------------------------------------------------------
          ........................................................
          Max(Bonds)      0.0065      Max(Angles)    1.11
          Max(Dihed)        0.13      Max(Improp)    0.00
          ---------------------------------------------------------------------

The optimization has not yet converged - more geometry cycles are needed


    ---------------------------------------------------------------------------
                         Redundant Internal Coordinates
                            (Angstroem and degrees)

        Definition                    Value    dE/dq     Step     New-Value
    ----------------------------------------------------------------------------
     1. B(H   1,C   0)                1.0871 -0.000176  0.0003    1.0874   
     2. B(H   2,C   0)                1.0870 -0.000235  0.0003    1.0873   
     3. B(H   3,C   0)                1.1250 -0.001237  0.0009    1.1259   
     4. B(F   4,H   3)                1.6402  0.000116 -0.0015    1.6386   
     5. B(Cl  5,H   3)                2.4618  0.001064 -0.0065    2.4553   
     6. B(Cl  5,C   0)                1.7763 -0.000676 -0.0003    1.7760   
     7. A(H   1,C   0,H   3)          109.27 -0.000982    0.24    109.51   
     8. A(H   1,C   0,H   2)          110.22  0.000412   -0.03    110.19   
     9. A(H   1,C   0,Cl  5)          106.90 -0.000139    0.04    106.94   
    10. A(H   2,C   0,Cl  5)          106.90 -0.000135    0.04    106.94   
    11. A(H   3,C   0,Cl  5)          114.22  0.001866   -0.54    113.68   
    12. A(H   2,C   0,H   3)          109.28 -0.000980    0.24    109.51   
    13. A(C   0,H   3,F   4)          154.83 -0.004003    1.11    155.94   
    14. D(F   4,H   3,C   0,H   2)     60.32 -0.000352    0.13     60.45   
    15. D(F   4,H   3,C   0,Cl  5)    179.99  0.000002   -0.00    179.99   
    16. D(F   4,H   3,C   0,H   1)    -60.35  0.000349   -0.13    -60.48   
    ----------------------------------------------------------------------------

Geometry step timings:
Preparation and reading OPT file:      0.000 s ( 2.397 %)
Internal coordinates            :      0.000 s ( 2.685 %)
B/P matrices and projection     :      0.000 s ( 9.732 %)
Hessian update/contruction      :      0.001 s (27.229 %)
Making the step                 :      0.000 s ( 9.492 %)
Converting the step to Cartesian:      0.000 s ( 4.027 %)
Storing new data                :      0.000 s ( 6.232 %)
Checking convergence            :      0.000 s ( 6.280 %)
Final printing                  :      0.001 s (31.592 %)
Total time                      :      0.002 s

Time for energy+gradient        :      0.105 s
Time for complete geometry iter :      0.110 s

         *************************************************************
         *                GEOMETRY OPTIMIZATION CYCLE   2            *
         *************************************************************
---------------------------------
CARTESIAN COORDINATES (ANGSTROEM)
---------------------------------
  C     0.330185    0.190619   -0.329099
  H     0.422400    1.273477   -0.293617
  H     1.313971   -0.271128   -0.293575
  H    -0.283237   -0.163395    0.546171
  F    -0.648643   -0.374369    2.129559
  Cl   -0.376227   -0.217134   -1.906736

----------------------------
CARTESIAN COORDINATES (A.U.)
----------------------------
  NO LB    ZA    FRAG    MASS        X           Y           Z
   0 C   6.0000    0    12.011    0.623960    0.360218   -0.621907
   1 H   1.0000    0     1.008    0.798221    2.406523   -0.554856
   2 H   1.0000    0     1.008    2.483045   -0.512358   -0.554777
   3 H   1.0000    0     1.008   -0.535240   -0.308773    1.032113
   4 F   9.0000    0    18.998   -1.225757   -0.707455    4.024283
   5 Cl 17.0000    0    35.453   -0.710967   -0.410323   -3.603210

      -----------------------------------------------------------      
     |                   =====================                   |     
     |                           x T B                           |     
     |                   =====================                   |     
     |                         S. Grimme                         |     
     |          Mulliken Center for Theoretical Chemistry        |     
     |                    University of Bonn                     |     
      -----------------------------------------------------------      

   * xtb version 6.7.1 (edcfbbe) compiled by 'albert@albert-system' on 2024-07-22

   xtb is free software: you can redistribute it and/or modify it under
   the terms of the GNU Lesser General Public License as published by
   the Free Software Foundation, either version 3 of the License, or
   (at your option) any later version.
   
   xtb is distributed in the hope that it will be useful,
   but WITHOUT ANY WARRANTY; without even the implied warranty of
   MERCHANTABILITY or FITNESS FOR A PARTICULAR PURPOSE.  See the
   GNU Lesser General Public License for more details.
   
   Cite this work as:
   * C. Bannwarth, E. Caldeweyher, S. Ehlert, A. Hansen, P. Pracht,
     J. Seibert, S. Spicher, S. Grimme, WIREs Comput. Mol. Sci., 2020, 11,
     e01493. DOI: 10.1002/wcms.1493
   
   for GFN2-xTB:
   * C. Bannwarth, S. Ehlert and S. Grimme., J. Chem. Theory Comput., 2019,
     15, 1652-1671. DOI: 10.1021/acs.jctc.8b01176
   for GFN1-xTB:
   * S. Grimme, C. Bannwarth, P. Shushkov, J. Chem. Theory Comput., 2017,
     13, 1989-2009. DOI: 10.1021/acs.jctc.7b00118
   for GFN0-xTB:
   * P. Pracht, E. Caldeweyher, S. Ehlert, S. Grimme, ChemRxiv, 2019, preprint.
     DOI: 10.26434/chemrxiv.8326202.v1
   for GFN-FF:
   * S. Spicher and S. Grimme, Angew. Chem. Int. Ed., 2020, 59, 15665-15673.
     DOI: 10.1002/anie.202004239
   
   for ALPB and GBSA implicit solvation:
   * S. Ehlert, M. Stahn, S. Spicher, S. Grimme, J. Chem. Theory Comput.,
     2021, 17, 4250-4261. DOI: 10.1021/acs.jctc.1c00471
   
   for ddCOSMO and CPCM-X implicit solvation:
   * M. Stahn, S. Ehlert, S. Grimme, J. Phys. Chem. A,
     2023, XX, XXXX-XXXX. DOI: 10.1021/acs.jpca.3c04382
   
   for DFT-D4:
   * E. Caldeweyher, C. Bannwarth and S. Grimme, J. Chem. Phys., 2017,
     147, 034112. DOI: 10.1063/1.4993215
   * E. Caldeweyher, S. Ehlert, A. Hansen, H. Neugebauer, S. Spicher,
     C. Bannwarth and S. Grimme, J. Chem. Phys., 2019, 150, 154122.
     DOI: 10.1063/1.5090222
   * E. Caldeweyher, J.-M. Mewes, S. Ehlert and S. Grimme, Phys. Chem. Chem. Phys.
     2020, 22, 8499-8512. DOI: 10.1039/D0CP00502A
   
   for sTDA-xTB:
   * S. Grimme and C. Bannwarth, J. Chem. Phys., 2016, 145, 054103.
     DOI: 10.1063/1.4959605
   
   in the mass-spec context:
   * V. Asgeirsson, C. Bauer and S. Grimme, Chem. Sci., 2017, 8, 4879.
     DOI: 10.1039/c7sc00601b
   * J. Koopman and S. Grimme, ACS Omega 2019, 4, 12, 15120-15133.
     DOI: 10.1021/acsomega.9b02011
   
   for metadynamics refer to:
   * S. Grimme, J. Chem. Theory Comput., 2019, 155, 2847-2862
     DOI: 10.1021/acs.jctc.9b00143
   
   for SPH calculations refer to:
   * S. Spicher and S. Grimme, J. Chem. Theory Comput., 2021, 17, 1701-1714
     DOI: 10.1021/acs.jctc.0c01306
   
   for ONIOM refer to:
   * C. Plett, A. Katbashev, S. Ehlert, S. Grimme, M. Bursch,
     Phys. Chem. Chem. Phys., 2023, 25, 17860-17868. DOI: 10.1039/D3CP02178E
   
   for DIPRO refer to:
   * J. Kohn, N. Gildemeister, S. Grimme, D. Fazzi, A. Hansen,
     J. Chem. Phys., 2023, just accepted.
   
   for PTB refer to:
   * S. Grimme, M. Mueller, A. Hansen, J. Chem. Phys., 2023, 158, 124111.
     DOI: 10.1063/5.0137838
   
   with help from (in alphabetical order)
   P. Atkinson, C. Bannwarth, F. Bohle, G. Brandenburg, E. Caldeweyher
   M. Checinski, S. Dohm, S. Ehlert, S. Ehrlich, I. Gerasimov, C. Hölzer
   A. Katbashev, J. Kohn, J. Koopman, C. Lavigne, S. Lehtola, F. März, M. Müller,
   F. Musil, H. Neugebauer, J. Pisarek, C. Plett, P. Pracht, F. Pultar,
   J. Seibert, P. Shushkov, S. Spicher, M. Stahn, M. Steiner, T. Strunk,
   J. Stückrath, T. Rose, and J. Unsleber
   
 * started run on 2026/03/16 at 14:14:00.546     
   ID    Z sym.   atoms
    1    6 C      1
    2    1 H      2-4
    3    9 F      5
    4   17 Cl     6

           -------------------------------------------------
          |                Calculation Setup                |
           -------------------------------------------------

          program call               : /software/orca-6.1.0-el8-x86_64/bin/otool_xtb reactant_optfreq_XTB.xyz --grad -c -1 -u 0 -P 8 --namespace reactant_optfreq --input reactant_optfreq_XTB.input.tmp --acc 0.200000
          hostname                   : midway3-login4.rcc.local
          calculation namespace      : reactant_optfreq
          coordinate file            : reactant_optfreq_XTB.xyz
          omp threads                :                     8


molecular fragmentation (1/2 indicates fragments):
111121
# atoms in fragment 1/2:     5     1
 fragment masses (1/2) :       50.49       19.00
CMA distance (Bohr)    :   6.789
constraining FC (au)   :  0.0500

           -------------------------------------------------
          |                 G F N 2 - x T B                 |
           -------------------------------------------------

        Reference                      10.1021/acs.jctc.8b01176
      * Hamiltonian:
        H0-scaling (s, p, d)           1.850000    2.230000    2.230000
        zeta-weighting                 0.500000
      * Dispersion:
        s8                             2.700000
        a1                             0.520000
        a2                             5.000000
        s9                             5.000000
      * Repulsion:
        kExp                           1.500000    1.000000
        rExp                           1.000000
      * Coulomb:
        alpha                          2.000000
        third order                    shell-resolved
        anisotropic                    true
        a3                             3.000000
        a5                             4.000000
        cn-shift                       1.200000
        cn-exp                         4.000000
        max-rad                        5.000000

q/qsh data taken from xtbrestart
CAMM data taken from xtbrestart

          ...................................................
          :                      SETUP                      :
          :.................................................:
          :  # basis functions                  21          :
          :  # atomic orbitals                  20          :
          :  # shells                           10          :
          :  # electrons                        22          :
          :  max. iterations                   250          :
          :  Hamiltonian                  GFN2-xTB          :
          :  restarted?                       true          :
          :  GBSA solvation                  false          :
          :  PC potential                    false          :
          :  electronic temp.          300.0000000     K    :
          :  accuracy                    0.2000000          :
          :  -> integral cutoff          0.3198970E+02      :
          :  -> integral neglect         0.2000000E-08      :
          :  -> SCF convergence          0.2000000E-06 Eh   :
          :  -> wf. convergence          0.2000000E-04 e    :
          :  Broyden damping             0.4000000          :
          :  net charge                         -1          :
          :  unpaired electrons                  0          :
          ...................................................

 iter      E             dE          RMSdq      gap      omega  full diag
   1    -13.1973639 -0.131974E+02  0.628E-02    2.42       0.0  T
   2    -13.1973641 -0.169352E-06  0.366E-02    2.42       1.1  T
   3    -13.1973641 -0.282959E-07  0.279E-03    2.41      14.6  T
   4    -13.1973641 -0.721562E-08  0.137E-03    2.41      29.7  T
   5    -13.1973641 -0.156395E-08  0.565E-04    2.41      72.3  T
   6    -13.1973641 -0.977334E-09  0.235E-04    2.41     174.0  T
   7    -13.1973641 -0.148603E-09  0.108E-04    2.41     378.4  T
   8    -13.1973641 -0.217657E-10  0.758E-06    2.41    5383.0  T

   *** convergence criteria satisfied after 8 iterations ***

         #    Occupation            Energy/Eh            Energy/eV
      -------------------------------------------------------------
         1        2.0000           -0.9102326             -24.7687
       ...           ...                  ...                  ...
         5        2.0000           -0.3427532              -9.3268
         6        2.0000           -0.3199580              -8.7065
         7        2.0000           -0.2684323              -7.3044
         8        2.0000           -0.2606014              -7.0913
         9        2.0000           -0.0957687              -2.6060
        10        2.0000           -0.0928703              -2.5271
        11        2.0000           -0.0928578              -2.5268 (HOMO)
        12                         -0.0041386              -0.1126 (LUMO)
        13                          0.1724747               4.6933
        14                          0.1725648               4.6957
        15                          0.1752694               4.7693
        16                          0.1765508               4.8042
       ...                                ...                  ...
        20                          0.4062266              11.0540
      -------------------------------------------------------------
                  HL-Gap            0.0887191 Eh            2.4142 eV
             Fermi-level           -0.0484982 Eh           -1.3197 eV

 SCC (total)                   0 d,  0 h,  0 min,  0.163 sec
 SCC setup                      ...        0 min,  0.000 sec (  0.170%)
 Dispersion                     ...        0 min,  0.000 sec (  0.045%)
 classical contributions        ...        0 min,  0.000 sec (  0.030%)
 integral evaluation            ...        0 min,  0.101 sec ( 61.642%)
 iterations                     ...        0 min,  0.061 sec ( 37.464%)
 molecular gradient             ...        0 min,  0.001 sec (  0.490%)
 printout                       ...        0 min,  0.000 sec (  0.143%)

         :::::::::::::::::::::::::::::::::::::::::::::::::::::
         ::                     SUMMARY                     ::
         :::::::::::::::::::::::::::::::::::::::::::::::::::::
         :: total energy             -13.146131974551 Eh    ::
         :: gradient norm              0.002101379929 Eh/a0 ::
         :: HOMO-LUMO gap              2.414170181982 eV    ::
         ::.................................................::
         :: SCC energy               -13.197363910999 Eh    ::
         :: -> isotropic ES            0.236162786179 Eh    ::
         :: -> anisotropic ES         -0.001508080119 Eh    ::
         :: -> anisotropic XC         -0.001282945766 Eh    ::
         :: -> dispersion             -0.002095590361 Eh    ::
         :: repulsion energy           0.051231936448 Eh    ::
         :: add. restraining           0.000000000000 Eh    ::
         :: total charge              -1.000000000000 e     ::
         :::::::::::::::::::::::::::::::::::::::::::::::::::::


Property printout bound to 'properties.out'

           -------------------------------------------------
          | TOTAL ENERGY              -13.146131974551 Eh   |
          | GRADIENT NORM               0.002101379929 Eh/α |
          | HOMO-LUMO GAP               2.414170181982 eV   |
           -------------------------------------------------

------------------------------------------------------------------------
 * finished run on 2026/03/16 at 14:14:00.753     
------------------------------------------------------------------------
 total:
 * wall-time:     0 d,  0 h,  0 min,  0.207 sec
 *  cpu-time:     0 d,  0 h,  0 min,  0.530 sec
 * ratio c/w:     2.566 speedup
 SCF:
 * wall-time:     0 d,  0 h,  0 min,  0.163 sec
 *  cpu-time:     0 d,  0 h,  0 min,  0.435 sec
 * ratio c/w:     2.664 speedup


-------------------------   --------------------
FINAL SINGLE POINT ENERGY       -13.146131974550
-------------------------   --------------------


-------------
DIPOLE MOMENT
-------------
                                X             Y             Z
Total Dipole Moment    :      1.41600       0.81700      -2.14400
                        -----------------------------------------
Magnitude (a.u.)       :      2.69616
Magnitude (Debye)      :      6.85310


------------------
CARTESIAN GRADIENT
------------------

   1   C   :   -0.000148836   -0.000101030    0.000224240
   2   H   :   -0.000186052    0.000028934    0.000338893
   3   H   :   -0.000074262   -0.000169451    0.000339237
   4   H   :   -0.000970770   -0.000555983   -0.000839921
   5   F   :    0.000945349    0.000544943    0.000530609
   6   Cl  :    0.000434571    0.000252587   -0.000593058

Difference to translation invariance:
           :   -0.0000000000   -0.0000000000    0.0000000000

Difference to rotation invariance:
           :    0.0000000007   -0.0000000246    0.0000000032

Norm of the Cartesian gradient     ...    0.0021013799
RMS gradient                       ...    0.0004953000
MAX gradient                       ...    0.0009707702
------------------------------------------------------------------------------
                         ORCA GEOMETRY RELAXATION STEP
------------------------------------------------------------------------------

Reading the OPT-File                    .... done
Getting information on internals        .... done
Copying old internal coords+grads       .... done
Making the new internal coordinates     .... (2022 redundants) done
Validating the new internal coordinates .... (2022 redundants) done
Calculating the B-matrix                .... done
Calculating the G,G- and P matrices     .... done
Transforming gradient to internals      .... done
Projecting the internal gradient        .... done
Number of atoms                         ....   6
Number of internal coordinates          ....  16
Current Energy                          ....   -13.146131975 Eh
Current gradient norm                   ....     0.002101380 Eh/bohr
Maximum allowed component of the step   ....  0.300
Current trust radius                    ....  0.300
Updating the Hessian (BFGS)             .... done
Forming the augmented Hessian           .... done
Diagonalizing the augmented Hessian     .... done
Last element of RFO vector              ....  0.987438381
Lowest eigenvalues of augmented Hessian:
 -0.000631243  0.023004953  0.044140056  0.097069689  0.109441173
Length of the computed step             ....  0.160014613
The final length of the internal step   ....  0.160014613
Converting the step to Cartesian space:
 Initial RMS(Int)=    0.0400036532
Transforming coordinates:
 Iter   0:  RMS(Cart)=    0.0807294940 RMS(Int)=    0.0387244527
 Iter   5:  RMS(Cart)=    0.0000003035 RMS(Int)=    0.0000004263
done
Storing new coordinates                 .... done
The predicted energy change is          ....    -0.000323703
Previously predicted energy change      ....    -0.000060507
Actually observed energy change         ....    -0.000111634
Ratio of predicted to observed change   ....     1.844971928
New trust radius                        ....     0.200000000

                                .--------------------.
          ----------------------|Geometry convergence|-------------------------
          Item                value                   Tolerance       Converged
          ---------------------------------------------------------------------
          Energy change      -0.0001116338            0.0000050000      NO
          RMS gradient        0.0010572256            0.0001000000      NO
          MAX gradient        0.0036880468            0.0003000000      NO
          RMS step            0.0400036532            0.0020000000      NO
          MAX step            0.1269062980            0.0040000000      NO
          -------------------------------------------------------------------------
          ........................................................
          Max(Bonds)      0.0350      Max(Angles)    7.27
          Max(Dihed)        0.73      Max(Improp)    0.00
          ---------------------------------------------------------------------

The optimization has not yet converged - more geometry cycles are needed


    ---------------------------------------------------------------------------
                         Redundant Internal Coordinates
                            (Angstroem and degrees)

        Definition                    Value    dE/dq     Step     New-Value
    ----------------------------------------------------------------------------
     1. B(H   1,C   0)                1.0874  0.000024 -0.0000    1.0873   
     2. B(H   2,C   0)                1.0873  0.000016  0.0001    1.0874   
     3. B(H   3,C   0)                1.1259 -0.000813  0.0038    1.1297   
     4. B(F   4,H   3)                1.6386  0.000232 -0.0203    1.6183   
     5. B(Cl  5,H   3)                2.4553  0.000787 -0.0350    2.4203   
     6. B(Cl  5,C   0)                1.7760 -0.000419 -0.0022    1.7738   
     7. A(H   1,C   0,H   3)          109.51 -0.000695    1.24    110.75   
     8. A(H   1,C   0,H   2)          110.19  0.000241   -0.06    110.13   
     9. A(H   1,C   0,Cl  5)          106.94 -0.000043    0.16    107.10   
    10. A(H   2,C   0,Cl  5)          106.94 -0.000040    0.16    107.10   
    11. A(H   3,C   0,Cl  5)          113.68  0.001260   -2.76    110.92   
    12. A(H   2,C   0,H   3)          109.51 -0.000691    1.23    110.74   
    13. A(C   0,H   3,F   4)          155.94 -0.003688    7.27    163.21   
    14. D(F   4,H   3,C   0,H   2)     60.45 -0.000286    0.73     61.19   
    15. D(F   4,H   3,C   0,Cl  5)    179.99  0.000002   -0.00    179.99   
    16. D(F   4,H   3,C   0,H   1)    -60.48  0.000284   -0.73    -61.20   
    ----------------------------------------------------------------------------

Geometry step timings:
Preparation and reading OPT file:      0.000 s ( 2.770 %)
Internal coordinates            :      0.000 s ( 4.446 %)
B/P matrices and projection     :      0.000 s (12.391 %)
Hessian update/contruction      :      0.000 s (29.373 %)
Making the step                 :      0.000 s ( 7.726 %)
Converting the step to Cartesian:      0.000 s ( 3.717 %)
Storing new data                :      0.000 s ( 7.434 %)
Checking convergence            :      0.000 s ( 7.216 %)
Final printing                  :      0.000 s (24.927 %)
Total time                      :      0.001 s

Time for energy+gradient        :      0.285 s
Time for complete geometry iter :      0.288 s

         *************************************************************
         *                GEOMETRY OPTIMIZATION CYCLE   3            *
         *************************************************************
---------------------------------
CARTESIAN COORDINATES (ANGSTROEM)
---------------------------------
  C     0.362200    0.209168   -0.320758
  H     0.456083    1.292402   -0.326930
  H     1.347233   -0.251458   -0.326886
  H    -0.234858   -0.135457    0.574374
  F    -0.732875   -0.423006    2.087067
  Cl   -0.439335   -0.253579   -1.834165

----------------------------
CARTESIAN COORDINATES (A.U.)
----------------------------
  NO LB    ZA    FRAG    MASS        X           Y           Z
   0 C   6.0000    0    12.011    0.684459    0.395271   -0.606146
   1 H   1.0000    0     1.008    0.861873    2.442285   -0.617808
   2 H   1.0000    0     1.008    2.545901   -0.475187   -0.617725
   3 H   1.0000    0     1.008   -0.443817   -0.255976    1.085410
   4 F   9.0000    0    18.998   -1.384933   -0.799365    3.943984
   5 Cl 17.0000    0    35.453   -0.830222   -0.479195   -3.466069

      -----------------------------------------------------------      
     |                   =====================                   |     
     |                           x T B                           |     
     |                   =====================                   |     
     |                         S. Grimme                         |     
     |          Mulliken Center for Theoretical Chemistry        |     
     |                    University of Bonn                     |     
      -----------------------------------------------------------      

   * xtb version 6.7.1 (edcfbbe) compiled by 'albert@albert-system' on 2024-07-22

   xtb is free software: you can redistribute it and/or modify it under
   the terms of the GNU Lesser General Public License as published by
   the Free Software Foundation, either version 3 of the License, or
   (at your option) any later version.
   
   xtb is distributed in the hope that it will be useful,
   but WITHOUT ANY WARRANTY; without even the implied warranty of
   MERCHANTABILITY or FITNESS FOR A PARTICULAR PURPOSE.  See the
   GNU Lesser General Public License for more details.
   
   Cite this work as:
   * C. Bannwarth, E. Caldeweyher, S. Ehlert, A. Hansen, P. Pracht,
     J. Seibert, S. Spicher, S. Grimme, WIREs Comput. Mol. Sci., 2020, 11,
     e01493. DOI: 10.1002/wcms.1493
   
   for GFN2-xTB:
   * C. Bannwarth, S. Ehlert and S. Grimme., J. Chem. Theory Comput., 2019,
     15, 1652-1671. DOI: 10.1021/acs.jctc.8b01176
   for GFN1-xTB:
   * S. Grimme, C. Bannwarth, P. Shushkov, J. Chem. Theory Comput., 2017,
     13, 1989-2009. DOI: 10.1021/acs.jctc.7b00118
   for GFN0-xTB:
   * P. Pracht, E. Caldeweyher, S. Ehlert, S. Grimme, ChemRxiv, 2019, preprint.
     DOI: 10.26434/chemrxiv.8326202.v1
   for GFN-FF:
   * S. Spicher and S. Grimme, Angew. Chem. Int. Ed., 2020, 59, 15665-15673.
     DOI: 10.1002/anie.202004239
   
   for ALPB and GBSA implicit solvation:
   * S. Ehlert, M. Stahn, S. Spicher, S. Grimme, J. Chem. Theory Comput.,
     2021, 17, 4250-4261. DOI: 10.1021/acs.jctc.1c00471
   
   for ddCOSMO and CPCM-X implicit solvation:
   * M. Stahn, S. Ehlert, S. Grimme, J. Phys. Chem. A,
     2023, XX, XXXX-XXXX. DOI: 10.1021/acs.jpca.3c04382
   
   for DFT-D4:
   * E. Caldeweyher, C. Bannwarth and S. Grimme, J. Chem. Phys., 2017,
     147, 034112. DOI: 10.1063/1.4993215
   * E. Caldeweyher, S. Ehlert, A. Hansen, H. Neugebauer, S. Spicher,
     C. Bannwarth and S. Grimme, J. Chem. Phys., 2019, 150, 154122.
     DOI: 10.1063/1.5090222
   * E. Caldeweyher, J.-M. Mewes, S. Ehlert and S. Grimme, Phys. Chem. Chem. Phys.
     2020, 22, 8499-8512. DOI: 10.1039/D0CP00502A
   
   for sTDA-xTB:
   * S. Grimme and C. Bannwarth, J. Chem. Phys., 2016, 145, 054103.
     DOI: 10.1063/1.4959605
   
   in the mass-spec context:
   * V. Asgeirsson, C. Bauer and S. Grimme, Chem. Sci., 2017, 8, 4879.
     DOI: 10.1039/c7sc00601b
   * J. Koopman and S. Grimme, ACS Omega 2019, 4, 12, 15120-15133.
     DOI: 10.1021/acsomega.9b02011
   
   for metadynamics refer to:
   * S. Grimme, J. Chem. Theory Comput., 2019, 155, 2847-2862
     DOI: 10.1021/acs.jctc.9b00143
   
   for SPH calculations refer to:
   * S. Spicher and S. Grimme, J. Chem. Theory Comput., 2021, 17, 1701-1714
     DOI: 10.1021/acs.jctc.0c01306
   
   for ONIOM refer to:
   * C. Plett, A. Katbashev, S. Ehlert, S. Grimme, M. Bursch,
     Phys. Chem. Chem. Phys., 2023, 25, 17860-17868. DOI: 10.1039/D3CP02178E
   
   for DIPRO refer to:
   * J. Kohn, N. Gildemeister, S. Grimme, D. Fazzi, A. Hansen,
     J. Chem. Phys., 2023, just accepted.
   
   for PTB refer to:
   * S. Grimme, M. Mueller, A. Hansen, J. Chem. Phys., 2023, 158, 124111.
     DOI: 10.1063/5.0137838
   
   with help from (in alphabetical order)
   P. Atkinson, C. Bannwarth, F. Bohle, G. Brandenburg, E. Caldeweyher
   M. Checinski, S. Dohm, S. Ehlert, S. Ehrlich, I. Gerasimov, C. Hölzer
   A. Katbashev, J. Kohn, J. Koopman, C. Lavigne, S. Lehtola, F. März, M. Müller,
   F. Musil, H. Neugebauer, J. Pisarek, C. Plett, P. Pracht, F. Pultar,
   J. Seibert, P. Shushkov, S. Spicher, M. Stahn, M. Steiner, T. Strunk,
   J. Stückrath, T. Rose, and J. Unsleber
   
 * started run on 2026/03/16 at 14:14:00.766     
   ID    Z sym.   atoms
    1    6 C      1
    2    1 H      2-4
    3    9 F      5
    4   17 Cl     6

           -------------------------------------------------
          |                Calculation Setup                |
           -------------------------------------------------

          program call               : /software/orca-6.1.0-el8-x86_64/bin/otool_xtb reactant_optfreq_XTB.xyz --grad -c -1 -u 0 -P 8 --namespace reactant_optfreq --input reactant_optfreq_XTB.input.tmp --acc 0.200000
          hostname                   : midway3-login4.rcc.local
          calculation namespace      : reactant_optfreq
          coordinate file            : reactant_optfreq_XTB.xyz
          omp threads                :                     8


molecular fragmentation (1/2 indicates fragments):
111121
# atoms in fragment 1/2:     5     1
 fragment masses (1/2) :       50.49       19.00
CMA distance (Bohr)    :   6.631
constraining FC (au)   :  0.0500

           -------------------------------------------------
          |                 G F N 2 - x T B                 |
           -------------------------------------------------

        Reference                      10.1021/acs.jctc.8b01176
      * Hamiltonian:
        H0-scaling (s, p, d)           1.850000    2.230000    2.230000
        zeta-weighting                 0.500000
      * Dispersion:
        s8                             2.700000
        a1                             0.520000
        a2                             5.000000
        s9                             5.000000
      * Repulsion:
        kExp                           1.500000    1.000000
        rExp                           1.000000
      * Coulomb:
        alpha                          2.000000
        third order                    shell-resolved
        anisotropic                    true
        a3                             3.000000
        a5                             4.000000
        cn-shift                       1.200000
        cn-exp                         4.000000
        max-rad                        5.000000

q/qsh data taken from xtbrestart
CAMM data taken from xtbrestart

          ...................................................
          :                      SETUP                      :
          :.................................................:
          :  # basis functions                  21          :
          :  # atomic orbitals                  20          :
          :  # shells                           10          :
          :  # electrons                        22          :
          :  max. iterations                   250          :
          :  Hamiltonian                  GFN2-xTB          :
          :  restarted?                       true          :
          :  GBSA solvation                  false          :
          :  PC potential                    false          :
          :  electronic temp.          300.0000000     K    :
          :  accuracy                    0.2000000          :
          :  -> integral cutoff          0.3198970E+02      :
          :  -> integral neglect         0.2000000E-08      :
          :  -> SCF convergence          0.2000000E-06 Eh   :
          :  -> wf. convergence          0.2000000E-04 e    :
          :  Broyden damping             0.4000000          :
          :  net charge                         -1          :
          :  unpaired electrons                  0          :
          ...................................................

 iter      E             dE          RMSdq      gap      omega  full diag
   1    -13.1973405 -0.131973E+02  0.389E-01    2.49       0.0  T
   2    -13.1973497 -0.922926E-05  0.228E-01    2.50       1.0  T
   3    -13.1973500 -0.307850E-06  0.204E-02    2.48       2.0  T
   4    -13.1973508 -0.783793E-06  0.863E-03    2.49       4.7  T
   5    -13.1973509 -0.734905E-07  0.448E-03    2.49       9.1  T
   6    -13.1973509 -0.670225E-07  0.153E-03    2.49      26.7  T
   7    -13.1973510 -0.619347E-08  0.667E-04    2.49      61.2  T
   8    -13.1973510 -0.525972E-09  0.966E-05    2.49     422.7  T
   9    -13.1973510 -0.108624E-10  0.446E-05    2.49     914.6  T

   *** convergence criteria satisfied after 9 iterations ***

         #    Occupation            Energy/Eh            Energy/eV
      -------------------------------------------------------------
         1        2.0000           -0.9084379             -24.7199
       ...           ...                  ...                  ...
         5        2.0000           -0.3423108              -9.3148
         6        2.0000           -0.3187932              -8.6748
         7        2.0000           -0.2669156              -7.2631
         8        2.0000           -0.2583826              -7.0309
         9        2.0000           -0.0959979              -2.6122
        10        2.0000           -0.0929865              -2.5303
        11        2.0000           -0.0929686              -2.5298 (HOMO)
        12                         -0.0015980              -0.0435 (LUMO)
        13                          0.1740083               4.7350
        14                          0.1746213               4.7517
        15                          0.1770586               4.8180
        16                          0.1788562               4.8669
       ...                                ...                  ...
        20                          0.4102261              11.1628
      -------------------------------------------------------------
                  HL-Gap            0.0913706 Eh            2.4863 eV
             Fermi-level           -0.0472833 Eh           -1.2866 eV

 SCC (total)                   0 d,  0 h,  0 min,  0.170 sec
 SCC setup                      ...        0 min,  0.000 sec (  0.118%)
 Dispersion                     ...        0 min,  0.000 sec (  0.036%)
 classical contributions        ...        0 min,  0.000 sec (  0.021%)
 integral evaluation            ...        0 min,  0.167 sec ( 98.147%)
 iterations                     ...        0 min,  0.002 sec (  1.022%)
 molecular gradient             ...        0 min,  0.001 sec (  0.515%)
 printout                       ...        0 min,  0.000 sec (  0.124%)

         :::::::::::::::::::::::::::::::::::::::::::::::::::::
         ::                     SUMMARY                     ::
         :::::::::::::::::::::::::::::::::::::::::::::::::::::
         :: total energy             -13.146463851347 Eh    ::
         :: gradient norm              0.003730426991 Eh/a0 ::
         :: HOMO-LUMO gap              2.486321111747 eV    ::
         ::.................................................::
         :: SCC energy               -13.197350681816 Eh    ::
         :: -> isotropic ES            0.235893649995 Eh    ::
         :: -> anisotropic ES         -0.001720181620 Eh    ::
         :: -> anisotropic XC         -0.001616104481 Eh    ::
         :: -> dispersion             -0.002119789159 Eh    ::
         :: repulsion energy           0.050886830469 Eh    ::
         :: add. restraining           0.000000000000 Eh    ::
         :: total charge              -1.000000000000 e     ::
         :::::::::::::::::::::::::::::::::::::::::::::::::::::


Property printout bound to 'properties.out'

           -------------------------------------------------
          | TOTAL ENERGY              -13.146463851347 Eh   |
          | GRADIENT NORM               0.003730426991 Eh/α |
          | HOMO-LUMO GAP               2.486321111747 eV   |
           -------------------------------------------------

------------------------------------------------------------------------
 * finished run on 2026/03/16 at 14:14:00.954     
------------------------------------------------------------------------
 total:
 * wall-time:     0 d,  0 h,  0 min,  0.187 sec
 *  cpu-time:     0 d,  0 h,  0 min,  0.443 sec
 * ratio c/w:     2.364 speedup
 SCF:
 * wall-time:     0 d,  0 h,  0 min,  0.171 sec
 *  cpu-time:     0 d,  0 h,  0 min,  0.377 sec
 * ratio c/w:     2.206 speedup


-------------------------   --------------------
FINAL SINGLE POINT ENERGY       -13.146463851350
-------------------------   --------------------


-------------
DIPOLE MOMENT
-------------
                                X             Y             Z
Total Dipole Moment    :      1.59600       0.92100      -2.11300
                        -----------------------------------------
Magnitude (a.u.)       :      2.80361
Magnitude (Debye)      :      7.12621


------------------
CARTESIAN GRADIENT
------------------

   1   C   :    0.001177040    0.000748030    0.001448787
   2   H   :    0.000458827    0.000060093   -0.000164473
   3   H   :    0.000342605    0.000336287   -0.000167540
   4   H   :   -0.001729284   -0.000997314   -0.002046579
   5   F   :    0.000357687    0.000205693    0.000237313
   6   Cl  :   -0.000606875   -0.000352788    0.000692492

Difference to translation invariance:
           :    0.0000000000    0.0000000000   -0.0000000000

Difference to rotation invariance:
           :   -0.0000003458    0.0000005754    0.0000000068

Norm of the Cartesian gradient     ...    0.0037304270
RMS gradient                       ...    0.0008792701
MAX gradient                       ...    0.0020465786
------------------------------------------------------------------------------
                         ORCA GEOMETRY RELAXATION STEP
------------------------------------------------------------------------------

Reading the OPT-File                    .... done
Getting information on internals        .... done
Copying old internal coords+grads       .... done
Making the new internal coordinates     .... (2022 redundants) done
Validating the new internal coordinates .... (2022 redundants) done
Calculating the B-matrix                .... done
Calculating the G,G- and P matrices     .... done
Transforming gradient to internals      .... done
Projecting the internal gradient        .... done
Number of atoms                         ....   6
Number of internal coordinates          ....  16
Current Energy                          ....   -13.146463851 Eh
Current gradient norm                   ....     0.003730427 Eh/bohr
Maximum allowed component of the step   ....  0.300
Current trust radius                    ....  0.200
Updating the Hessian (BFGS)             .... done
Forming the augmented Hessian           .... done
Diagonalizing the augmented Hessian     .... done
Last element of RFO vector              ....  0.999813767
Lowest eigenvalues of augmented Hessian:
 -0.000037936  0.022088996  0.044258950  0.097069689  0.106367215
Length of the computed step             ....  0.019302091
The final length of the internal step   ....  0.019302091
Converting the step to Cartesian space:
 Initial RMS(Int)=    0.0048255228
Transforming coordinates:
 Iter   0:  RMS(Cart)=    0.0063844703 RMS(Int)=    0.0048223958
done
Storing new coordinates                 .... done
The predicted energy change is          ....    -0.000018975
Previously predicted energy change      ....    -0.000323703
Actually observed energy change         ....    -0.000331877
Ratio of predicted to observed change   ....     1.025250576
New trust radius                        ....     0.300000000

                                .--------------------.
          ----------------------|Geometry convergence|-------------------------
          Item                value                   Tolerance       Converged
          ---------------------------------------------------------------------
          Energy change      -0.0003318768            0.0000050000      NO
          RMS gradient        0.0006629964            0.0001000000      NO
          MAX gradient        0.0014371591            0.0003000000      NO
          RMS step            0.0048255228            0.0020000000      NO
          MAX step            0.0172968785            0.0040000000      NO
          -------------------------------------------------------------------------
          ........................................................
          Max(Bonds)      0.0033      Max(Angles)    0.99
          Max(Dihed)        0.00      Max(Improp)    0.00
          ---------------------------------------------------------------------

The optimization has not yet converged - more geometry cycles are needed


    ---------------------------------------------------------------------------
                         Redundant Internal Coordinates
                            (Angstroem and degrees)

        Definition                    Value    dE/dq     Step     New-Value
    ----------------------------------------------------------------------------
     1. B(H   1,C   0)                1.0873  0.000100 -0.0001    1.0873   
     2. B(H   2,C   0)                1.0874  0.000169 -0.0001    1.0873   
     3. B(H   3,C   0)                1.1298  0.000316  0.0011    1.1310   
     4. B(F   4,H   3)                1.6183  0.000075 -0.0020    1.6163   
     5. B(Cl  5,H   3)                2.4201 -0.001075  0.0033    2.4233   
     6. B(Cl  5,C   0)                1.7740  0.000743  0.0001    1.7740   
     7. A(H   1,C   0,H   3)          110.73  0.000638   -0.06    110.68   
     8. A(H   1,C   0,H   2)          110.11 -0.000542    0.06    110.16   
     9. A(H   1,C   0,Cl  5)          107.10  0.000292   -0.07    107.03   
    10. A(H   2,C   0,Cl  5)          107.10  0.000286   -0.07    107.03   
    11. A(H   3,C   0,Cl  5)          110.95 -0.001350    0.19    111.14   
    12. A(H   2,C   0,H   3)          110.73  0.000638   -0.06    110.67   
    13. A(C   0,H   3,F   4)          163.21 -0.001437    0.99    164.20   
    14. D(F   4,H   3,C   0,H   2)     61.21  0.000096    0.00     61.21   
    15. D(F   4,H   3,C   0,Cl  5)    179.99 -0.000002    0.00    179.99   
    16. D(F   4,H   3,C   0,H   1)    -61.22 -0.000094   -0.00    -61.23   
    ----------------------------------------------------------------------------

Geometry step timings:
Preparation and reading OPT file:      0.000 s ( 2.418 %)
Internal coordinates            :      0.000 s ( 3.627 %)
B/P matrices and projection     :      0.000 s (11.148 %)
Hessian update/contruction      :      0.000 s (24.043 %)
Making the step                 :      0.000 s ( 7.522 %)
Converting the step to Cartesian:      0.000 s ( 2.619 %)
Storing new data                :      0.000 s ( 6.380 %)
Checking convergence            :      0.000 s ( 9.872 %)
Final printing                  :      0.000 s (32.371 %)
Total time                      :      0.001 s

Time for energy+gradient        :      0.197 s
Time for complete geometry iter :      0.200 s

         *************************************************************
         *                GEOMETRY OPTIMIZATION CYCLE   4            *
         *************************************************************
---------------------------------
CARTESIAN COORDINATES (ANGSTROEM)
---------------------------------
  C     0.363806    0.210081   -0.320683
  H     0.457057    1.293294   -0.330153
  H     1.348447   -0.251054   -0.330101
  H    -0.228627   -0.131872    0.579925
  F    -0.739872   -0.427046    2.084565
  Cl   -0.442363   -0.255333   -1.830851

----------------------------
CARTESIAN COORDINATES (A.U.)
----------------------------
  NO LB    ZA    FRAG    MASS        X           Y           Z
   0 C   6.0000    0    12.011    0.687494    0.396995   -0.606003
   1 H   1.0000    0     1.008    0.863713    2.443971   -0.623898
   2 H   1.0000    0     1.008    2.548195   -0.474422   -0.623801
   3 H   1.0000    0     1.008   -0.432042   -0.249202    1.095900
   4 F   9.0000    0    18.998   -1.398155   -0.807001    3.939256
   5 Cl 17.0000    0    35.453   -0.835944   -0.482509   -3.459807

      -----------------------------------------------------------      
     |                   =====================                   |     
     |                           x T B                           |     
     |                   =====================                   |     
     |                         S. Grimme                         |     
     |          Mulliken Center for Theoretical Chemistry        |     
     |                    University of Bonn                     |     
      -----------------------------------------------------------      

   * xtb version 6.7.1 (edcfbbe) compiled by 'albert@albert-system' on 2024-07-22

   xtb is free software: you can redistribute it and/or modify it under
   the terms of the GNU Lesser General Public License as published by
   the Free Software Foundation, either version 3 of the License, or
   (at your option) any later version.
   
   xtb is distributed in the hope that it will be useful,
   but WITHOUT ANY WARRANTY; without even the implied warranty of
   MERCHANTABILITY or FITNESS FOR A PARTICULAR PURPOSE.  See the
[...]
        20                          0.4090507              11.1308
      -------------------------------------------------------------
                  HL-Gap            0.0940038 Eh            2.5580 eV
             Fermi-level           -0.0477094 Eh           -1.2982 eV

 SCC (total)                   0 d,  0 h,  0 min,  0.021 sec
 SCC setup                      ...        0 min,  0.000 sec (  2.413%)
 Dispersion                     ...        0 min,  0.006 sec ( 30.189%)
 classical contributions        ...        0 min,  0.000 sec (  1.458%)
 integral evaluation            ...        0 min,  0.012 sec ( 58.139%)
 iterations                     ...        0 min,  0.001 sec (  4.353%)
 molecular gradient             ...        0 min,  0.001 sec (  2.616%)
 printout                       ...        0 min,  0.000 sec (  0.710%)

         :::::::::::::::::::::::::::::::::::::::::::::::::::::
         ::                     SUMMARY                     ::
         :::::::::::::::::::::::::::::::::::::::::::::::::::::
         :: total energy             -13.146556322009 Eh    ::
         :: gradient norm              0.000225222317 Eh/a0 ::
         :: HOMO-LUMO gap              2.557973328304 eV    ::
         ::.................................................::
         :: SCC energy               -13.197084007986 Eh    ::
         :: -> isotropic ES            0.234146477296 Eh    ::
         :: -> anisotropic ES         -0.001616195853 Eh    ::
         :: -> anisotropic XC         -0.001642099419 Eh    ::
         :: -> dispersion             -0.002124987579 Eh    ::
         :: repulsion energy           0.050527685977 Eh    ::
         :: add. restraining           0.000000000000 Eh    ::
         :: total charge              -1.000000000000 e     ::
         :::::::::::::::::::::::::::::::::::::::::::::::::::::

           ------------------------------------------------- 
          |                Numerical Hessian                |
           ------------------------------------------------- 
step length          :   0.00500
SCC accuracy         :   0.30000
Hessian scale factor :   1.00000
frozen atoms in %    :   0.00000    0
RMS gradient         :   0.00023
estimated CPU  time      0.00 min
estimated wall time      0.00 min

writing file <hessian>.

 projected vibrational frequencies (cm⁻¹)
eigval :       -0.00    -0.00     0.00     0.00     0.00     0.00
eigval :      113.48   320.09   349.20   681.57  1007.17  1045.85
eigval :     1325.07  1394.27  1432.58  2339.30  3011.30  3017.44

Property printout bound to 'properties.out'
Molecule has the following symmetry elements: (sigma) 
It seems to be the Cs point group

           -------------------------------------------------
          | TOTAL ENERGY              -13.146556322009 Eh   |
          | TOTAL ENTHALPY            -13.104565496230 Eh   |
          | TOTAL FREE ENERGY         -13.137726042937 Eh   |
          | GRADIENT NORM               0.000225245370 Eh/α |
          | HOMO-LUMO GAP               2.557973991538 eV   |
           -------------------------------------------------

------------------------------------------------------------------------
 * finished run on 2026/03/16 at 14:14:01.860     
------------------------------------------------------------------------
 total:
 * wall-time:     0 d,  0 h,  0 min,  0.183 sec
 *  cpu-time:     0 d,  0 h,  0 min,  0.338 sec
 * ratio c/w:     1.844 speedup
 SCF:
 * wall-time:     0 d,  0 h,  0 min,  0.021 sec
 *  cpu-time:     0 d,  0 h,  0 min,  0.140 sec
 * ratio c/w:     6.686 speedup
 analytical hessian:
 * wall-time:     0 d,  0 h,  0 min,  0.085 sec
 *  cpu-time:     0 d,  0 h,  0 min,  0.105 sec
 * ratio c/w:     1.229 speedup


-------------------------   --------------------
FINAL SINGLE POINT ENERGY       -13.146556322000
-------------------------   --------------------


-------------
DIPOLE MOMENT
-------------
                                X             Y             Z
Total Dipole Moment    :      1.62200       0.93600      -2.07400
                        -----------------------------------------
Magnitude (a.u.)       :      2.79436
Magnitude (Debye)      :      7.10270


-----------------------
VIBRATIONAL FREQUENCIES
-----------------------

Scaling factor for frequencies =  1.000000000  (already applied!)

     0:       0.00 cm**-1
     1:       0.00 cm**-1
     2:       0.00 cm**-1
     3:       0.00 cm**-1
     4:       0.00 cm**-1
     5:       0.00 cm**-1
     6:     113.48 cm**-1
     7:     320.09 cm**-1
     8:     349.19 cm**-1
     9:     681.56 cm**-1
    10:    1007.14 cm**-1
    11:    1045.82 cm**-1
    12:    1325.03 cm**-1
    13:    1394.23 cm**-1
    14:    1432.54 cm**-1
    15:    2339.23 cm**-1
    16:    3011.22 cm**-1
    17:    3017.36 cm**-1


------------
NORMAL MODES
------------

These modes are the Cartesian displacements weighted by the diagonal matrix
M(i,i)=1/sqrt(m[i]) where m[i] is the mass of the displaced atom
Thus, these vectors are normalized but *not* orthogonal

                  0          1          2          3          4          5    
      0       0.000000   0.000000   0.000000   0.000000   0.000000   0.000000
      1       0.000000   0.000000   0.000000   0.000000   0.000000   0.000000
      2       0.000000   0.000000   0.000000   0.000000   0.000000   0.000000
      3       0.000000   0.000000   0.000000   0.000000   0.000000   0.000000
      4       0.000000   0.000000   0.000000   0.000000   0.000000   0.000000
      5       0.000000   0.000000   0.000000   0.000000   0.000000   0.000000
      6       0.000000   0.000000   0.000000   0.000000   0.000000   0.000000
      7       0.000000   0.000000   0.000000   0.000000   0.000000   0.000000
      8       0.000000   0.000000   0.000000   0.000000   0.000000   0.000000
      9       0.000000   0.000000   0.000000   0.000000   0.000000   0.000000
     10       0.000000   0.000000   0.000000   0.000000   0.000000   0.000000
     11       0.000000   0.000000   0.000000   0.000000   0.000000   0.000000
     12       0.000000   0.000000   0.000000   0.000000   0.000000   0.000000
     13       0.000000   0.000000   0.000000   0.000000   0.000000   0.000000
     14       0.000000   0.000000   0.000000   0.000000   0.000000   0.000000
     15       0.000000   0.000000   0.000000   0.000000   0.000000   0.000000
     16       0.000000   0.000000   0.000000   0.000000   0.000000   0.000000
     17       0.000000   0.000000   0.000000   0.000000   0.000000   0.000000
                  6          7          8          9         10         11    
      0      -0.325381   0.273146   0.048476  -0.240103  -0.081860  -0.053466
      1      -0.188040   0.158248  -0.082741  -0.138829  -0.047229   0.092735
      2       0.083644  -0.237365   0.000004  -0.499089   0.040924   0.000066
      3      -0.313886   0.260403  -0.495509  -0.188340   0.020623   0.377317
      4      -0.186860   0.153368  -0.031264  -0.120658  -0.043536   0.047260
      5       0.253107  -0.379369   0.305850  -0.288957  -0.467665   0.549594
      6      -0.317657   0.260108   0.275766  -0.197639  -0.027430  -0.229577
      7      -0.176702   0.144465   0.413993  -0.100721   0.039539  -0.303203
      8       0.251908  -0.376272  -0.306557  -0.291500  -0.467867  -0.549280
      9      -0.435052   0.392589   0.277859  -0.228667   0.438913   0.154132
     10      -0.252382   0.229899  -0.479918  -0.134463   0.253240  -0.267086
     11      -0.030564  -0.143033   0.000089  -0.535674   0.538442   0.000008
     12       0.098793  -0.161358  -0.020267  -0.005847  -0.004092  -0.001667
     13       0.057121  -0.093379   0.034650  -0.003231  -0.002359   0.002899
     14       0.356708   0.331571   0.000228   0.029771  -0.003891  -0.000008
     15       0.087621  -0.032034  -0.007215   0.101953   0.017640   0.010424
     16       0.050609  -0.018578   0.012227   0.058882   0.010178  -0.018100
     17      -0.232974  -0.071710  -0.000106   0.184865  -0.000489  -0.000027
                 12         13         14         15         16         17    
      0       0.034999   0.030628   0.061066   0.041129  -0.051688  -0.046344
      1       0.020220  -0.053108   0.035233   0.023740  -0.030672   0.079296
      2       0.101045  -0.000016  -0.013755  -0.067095   0.004718   0.000022
      3      -0.100169  -0.141842  -0.688261   0.014122   0.021144  -0.073170
      4       0.010719  -0.003309   0.058157   0.041701   0.710666  -0.693864
      5      -0.513397   0.392686   0.025427  -0.006875  -0.004013   0.014586
      6      -0.040855   0.073857  -0.293825   0.043242   0.616054   0.647556
      7      -0.092222   0.121348  -0.625008  -0.008638  -0.332609  -0.289131
      8      -0.513376  -0.392746   0.025403  -0.006904  -0.003800  -0.014632
      9      -0.466908  -0.402258   0.149276  -0.556743   0.002737  -0.018728
     10      -0.269465   0.696874   0.086333  -0.321339   0.001219   0.032556
     11      -0.387335  -0.000049   0.098706   0.758973  -0.026079  -0.000262
     12       0.002758   0.002398  -0.000356   0.000377  -0.000042   0.000088
     13       0.001588  -0.004155  -0.000207   0.000218  -0.000019  -0.000157
     14       0.002137   0.000001  -0.001031   0.001690   0.000253   0.000004
     15       0.003950   0.001709   0.003181   0.000063  -0.000661  -0.000145
     16       0.002278  -0.002951   0.001837   0.000036  -0.000382   0.000243
     17       0.004828   0.000008   0.000961   0.000638  -0.000770  -0.000001


The first frequency considered to be a vibration is 6
The total number of vibrations considered is 12


--------------------------
THERMOCHEMISTRY AT 298.15K
--------------------------

Temperature         ...   298.15 K
Pressure            ...     1.00 atm
Total Mass          ...    69.49 AMU
Quasi RRHO          ...     True
Cut-Off Frequency   ...     1.00 cm^-1

Throughout the following assumptions are being made:
  (1) The electronic state is orbitally nondegenerate
  (2) There are no thermally accessible electronically excited states
  (3) Hindered rotations indicated by low frequency modes are not
      treated as such but are treated as vibrations and this may
      cause some error
  (4) All equations used are the standard statistical mechanics
      equations for an ideal gas
  (5) All vibrations are strictly harmonic

freq.     113.48  E(vib)   ...       0.44 
freq.     320.09  E(vib)   ...       0.25 
freq.     349.19  E(vib)   ...       0.23 
freq.     681.56  E(vib)   ...       0.08 
freq.    1007.14  E(vib)   ...       0.02 
freq.    1045.82  E(vib)   ...       0.02 
freq.    1325.03  E(vib)   ...       0.01 
freq.    1394.23  E(vib)   ...       0.00 
freq.    1432.54  E(vib)   ...       0.00 
freq.    2339.23  E(vib)   ...       0.00 
freq.    3011.22  E(vib)   ...       0.00 
freq.    3017.36  E(vib)   ...       0.00 

------------
INNER ENERGY
------------

The inner energy is: U= E(el) + E(ZPE) + E(vib) + E(rot) + E(trans)
    E(el)   - is the total energy from the electronic structure calculation
              = E(kin-el) + E(nuc-el) + E(el-el) + E(nuc-nuc)
    E(ZPE)  - the the zero temperature vibrational energy from the frequency calculation
    E(vib)  - the the finite temperature correction to E(ZPE) due to population
              of excited vibrational states
    E(rot)  - is the rotational thermal energy
    E(trans)- is the translational thermal energy

Summary of contributions to the inner energy U:
Electronic energy                ...    -13.14655632 Eh
Zero point energy                ...      0.03653471 Eh      22.93 kcal/mol
Thermal vibrational correction   ...      0.00167837 Eh       1.05 kcal/mol
Thermal rotational correction    ...      0.00141627 Eh       0.89 kcal/mol
Thermal translational correction ...      0.00141627 Eh       0.89 kcal/mol
-----------------------------------------------------------------------
Total thermal energy                    -13.10551070 Eh


Summary of corrections to the electronic energy:
(perhaps to be used in another calculation)
Total thermal correction                  0.00451092 Eh       2.83 kcal/mol
Non-thermal (ZPE) correction              0.03653471 Eh      22.93 kcal/mol
-----------------------------------------------------------------------
Total correction                          0.04104562 Eh      25.76 kcal/mol


--------
ENTHALPY
--------

The enthalpy is H = U + kB*T
                kB is Boltzmann's constant
Total thermal energy              ...    -13.10551070 Eh 
Thermal Enthalpy correction       ...      0.00094421 Eh       0.59 kcal/mol
-----------------------------------------------------------------------
Total Enthalpy                    ...    -13.10456649 Eh


WARNING (ORCA/SYM): The number of Z matrix atoms does not agree with
the number of centers in the basis set. The point group will therefore
be determined without considering basis set information.


Note: Rotational entropy computed according to Herzberg 
Infrared and Raman Spectra, Chapter V,1, Van Nostrand Reinhold, 1945 
Point Group:  Cs, Symmetry Number:   1  
Rotational constants in cm-1:     0.982886     0.087318     0.081437 

Vibrational entropy computed according to the QRRHO of S. Grimme
Chem.Eur.J. 2012 18 9955 using a reference frequency of 100.0 cm-1


-------
ENTROPY
-------

The entropy contributions are T*S = T*(S(el)+S(vib)+S(rot)+S(trans))
     S(el)   - electronic entropy
     S(vib)  - vibrational entropy
     S(rot)  - rotational entropy
     S(trans)- translational entropy
The entropies will be listed as multiplied by the temperature to get
units of energy

Electronic entropy                ...      0.00000000 Eh      0.00 kcal/mol
Vibrational entropy               ...      0.00288447 Eh      1.81 kcal/mol
Rotational entropy                ...      0.01185398 Eh      7.44 kcal/mol
Translational entropy             ...      0.01835566 Eh     11.52 kcal/mol
-----------------------------------------------------------------------
Final entropy term                ...      0.03309410 Eh     20.77 kcal/mol

In case the symmetry of your molecule has not been determined correctly
or in case you have a reason to use a different symmetry number we print 
out the resulting rotational entropy values for sn=1,12:

 non-linear molecules -----------------------------------
|  sn= 1 | S(rot)=       0.01185398 Eh      7.44 kcal/mol|
|  sn= 2 | S(rot)=       0.01119952 Eh      7.03 kcal/mol|
|  sn= 3 | S(rot)=       0.01081669 Eh      6.79 kcal/mol|
|  sn= 4 | S(rot)=       0.01054507 Eh      6.62 kcal/mol|
|  sn= 5 | S(rot)=       0.01033438 Eh      6.48 kcal/mol|
|  sn= 6 | S(rot)=       0.01016223 Eh      6.38 kcal/mol|
|  sn= 7 | S(rot)=       0.01001669 Eh      6.29 kcal/mol|
|  sn= 8 | S(rot)=       0.00989061 Eh      6.21 kcal/mol|
|  sn= 9 | S(rot)=       0.00977940 Eh      6.14 kcal/mol|
|  sn=10 | S(rot)=       0.00967992 Eh      6.07 kcal/mol|
|  sn=11 | S(rot)=       0.00958993 Eh      6.02 kcal/mol|
|  sn=12 | S(rot)=       0.00950778 Eh      5.97 kcal/mol|
 linear molecules ---------------------------------------
|  Dinfh | S(rot)=       0.00769374 Eh      4.83 kcal/mol|
|  Cinfv | S(rot)=       0.00834820 Eh      5.24 kcal/mol|
 --------------------------------------------------------


-------------------
GIBBS FREE ENERGY
-------------------

The Gibbs free energy is G = H - T*S

Total enthalpy                    ...    -13.10456649 Eh 
Total entropy correction          ...     -0.03309410 Eh    -20.77 kcal/mol
-----------------------------------------------------------------------
Final Gibbs free energy         ...    -13.13766059 Eh

For completeness - the Gibbs free energy minus the electronic energy
G-E(el)                           ...      0.00889573 Eh      5.58 kcal/mol


--------------------------------
SUGGESTED CITATIONS FOR THIS RUN
--------------------------------

Below you find a list of papers that are relevant to this ORCA run
We neither can nor want to force you to cite these papers, but we appreciate if you do
You receive ORCA, which is the product of decades of hard work by many enthusiastic individuals, for free
The only thing we kindly ask in return is that you cite our papers,
We deeply appreciate it, if you show your appreciation for ORCA by not just citing the generic ORCA reference.

Please note that relegating all ORCA citations to the supporting information does *not* help us.
SI sections are not indexed - citations you put there will not count into any citation statistics
But we need these citations in order to attract the funding resources that allow us to do what we are doing

Therefore, if you are a happy ORCA user, please consider citing a few of the papers listed below in the main body of your paper

In addition to the list printed below, the program has created the file reactant_optfreq.bibtex that contains the list in bibtex format
You can import this file easily into all common literature databanks and citation aid programs


List of essential papers. We consider these as the minimum necessary citations

  1. Bannwarth, C.; Ehlert, S.; Grimme, S.
     GFN2-xTB—An Accurate and Broadly Parametrized Self-Consistent Tight-Binding Quantum Chemical Method with Multipole Electrostatics and Density-Dependent Dispersion Contributions
     J. Chem. Theory Comput. 2019 15(3), 1652-1671
     doi.org/10.1021/acs.jctc.8b01176
  2. Neese, F.
     Software update: the ORCA program system, version 6.0
     WIRES Comput. Molec. Sci. 2025 15(1), e70019
     doi.org/10.1002/wcms.7019

List of papers to cite with high priority. The work reported in these papers was absolutely
necessary for this run to complete.
Our perspective: the developers of density functionals and basis sets usually get cited in chemistry papers
Good! But without the algorithms to do something with them, the functionals or basis sets would not do anything.
Hence, in our opinion, the algorithm design and method developments papers are equally worthy of getting cited

  1. Bykov, D.; Petrenko, T.; Izsak, R.; Kossmann, S.; Becker, U.; Valeev, E.; Neese, F.
     Efficient implementation of the analytic second derivatives of Hartree-Fock and hybrid DFT energies: a detailed analysis of different approximations
     Molec. Phys. 2015 113 , 1961-1977
     doi.org/10.1080/00268976.2015.1025114
  2. Bannwarth, C.; Caldeweyher, E.; Ehlert, S.; Hansen, A.; Pracht, P.; Seibert, J.; Spicher, S.; Grimme, S.
     Extended tight-binding quantum chemistry methods
     WIRES Comput. Molec. Sci. 2020 11(2), e1493
     doi.org/10.1002/wcms.1493

List of suggested additional citations. These are papers that are important in the 'surrounding' of 
of this run, or papers that preceded the highly important papers. If you like your results we are grateful for a citation.

  1. Neese, F.
     The ORCA program system
     WIRES Comput. Molec. Sci. 2012 2(1), 73-78
     doi.org/10.1002/wcms.81
  2. Neese, F.
     Software update: the ORCA program system, version 4.0
     WIRES Comput. Molec. Sci. 2018 8(1), 1-6
     doi.org/10.1002/wcms.1327
  3. Neese, F.; Wennmohs, F.; Becker, U.; Riplinger, C.
     The ORCA quantum chemistry program package
     J. Chem. Phys. 2020 152(22), 224108
     doi.org/10.1063/5.0004608
  4. Neese, F.
     Software update: The ORCA program system—Version 5.0
     WIRES Comput. Molec. Sci. 2022 12(1), e1606
     doi.org/10.1002/wcms.1606

List of optional additional citations

  1. Neese, F.
     Approximate second-order SCF convergence for spin unrestricted wavefunctions
     Chem. Phys. Lett. 2000 325(1-3), 93-98
     doi.org/10.1016/s0009-2614(00)00662-x

Timings for individual modules:

Sum of individual times          ...        1.489 sec (=   0.025 min)
Geometry relaxation              ...        0.015 sec (=   0.000 min)   1.0 %
XTB module                       ...        1.474 sec (=   0.025 min)  99.0 %
                             ****ORCA TERMINATED NORMALLY****
TOTAL RUN TIME: 0 days 0 hours 0 minutes 2 seconds 321 msec
