
                                 *****************
                                 * O   R   C   A *
                                 *****************

                                            #,                                       
                                            ###                                      
                                            ####                                     
                                            #####                                    
                                            ######                                   
                                           ########,                                 
                                     ,,################,,,,,                         
                               ,,#################################,,                 
                          ,,##########################################,,             
                       ,#########################################, ''#####,          
                    ,#############################################,,   '####,        
                  ,##################################################,,,,####,       
                ,###########''''           ''''###############################       
              ,#####''   ,,,,##########,,,,          '''####'''          '####       
            ,##' ,,,,###########################,,,                        '##       
           ' ,,###''''                  '''############,,,                           
         ,,##''                                '''############,,,,        ,,,,,,###''
      ,#''                                            '''#######################'''  
     '                                                          ''''####''''         
             ,#######,   #######,   ,#######,      ##                                
            ,#'     '#,  ##    ##  ,#'     '#,    #''#        ,####,    ,#,          
            ##       ##  ##   ,#'  ##            #'  '#       #'       ,# #          
            ##       ##  #######   ##           ,######,      #####,      #          
            '#,     ,#'  ##    ##  '#,     ,#' ,#      #,     #,   #      #          
             '#######'   ##     ##  '#######'  #'      '#     '####' #    #          



                #########################################################
                #                        -***-                          #
                #          Department of theory and spectroscopy        #
                #                                                       #
                #                      Frank Neese                      #
                #                                                       #
                #     Directorship, Architecture, Infrastructure        #
                #                    SHARK, DRIVERS                     #
                #        Core code/Algorithms in most modules           #
                #                                                       #
                #        Max Planck Institute fuer Kohlenforschung      #
                #                Kaiser Wilhelm Platz 1                 #
                #                 D-45470 Muelheim/Ruhr                 #
                #                      Germany                          #
                #                                                       #
                #                  All rights reserved                  #
                #                        -***-                          #
                #########################################################


                         Program Version 6.1.0  -  RELEASE   -
                                (GIT: $679e74b$)
                          ($2025-06-10 18:02:51 +0200$)


 With contributions from (in alphabetic order):
[Max-Planck-Institut fuer Kohlenforschung]                               
  Daniel Aravena         : Magnetic Suceptibility                        
  Michael Atanasov       : Ab Initio Ligand Field Theory (pilot matlab implementation)
  Alexander A. Auer      : GIAO ZORA, VPT2 properties, NMR spectrum      
  Ute Becker             : All parallelization in ORCA, NUMFREQ, NUMCALC 
  Giovanni Bistoni       : ED, misc. LED, open-shell LED, HFLD           
  Dmytro Bykov           : pre 5.0 version of the SCF Hessian            
  Marcos Casanova-Páez   : Triplet and SCS-CIS(D). UHF-(DLPNO)-IP/EA/STEOM-CCSD. UHF-CVS-IP/STEOM-CCSD   
  Vijay G. Chilkuri      : MRCI spin determinant printing, contributions to CSF-ICE 
  Pauline Colinet        : FMM embedding                                 
  Dipayan Datta          : RHF DLPNO-CCSD density                        
  Achintya Kumar Dutta   : EOM-CC, STEOM-CC                              
  Nicolas Foglia         : Exact transition moments, OPA infrastructure, MCD improvements    
  Dmitry Ganyushin       : Spin-Orbit,Spin-Spin,Magnetic field MRCI      
  Miquel Garcia-Rates    : C-PCM and meta-GGA Hessian, CCSD/C-PCM, Gaussian charge scheme 
  Tiago L. C. Gouveia    : GS-ROHF, GS-ROCIS                             
  Yang Guo               : DLPNO-NEVPT2, F12-NEVPT2, CIM, IAO-localization        
  Andreas Hansen         : Spin unrestricted coupled pair/coupled cluster methods 
  Ingolf Harden          : AUTO-CI MPn and infrastructure                
  Benjamin Helmich-Paris : MC-RPA, TRAH-(SCF,CASSCF), AVAS, COSX integrals, SCF dyn. polar., MC-PDFT, srDFT 
  Lee Huntington         : MR-EOM, pCC                                   
  Robert Izsak           : Overlap fitted RIJCOSX, COSX-SCS-MP3, EOM     
  Riya Kayal             : Wick's Theorem for AUTO-CI, AUTO-CI UHF-CCSDT 
  Emily Kempfer          : AUTO-CI RHF CISDT and CCSDT, approximate NEVPT4
  Christian Kollmar      : KDIIS, OOCD, Brueckner-CCSD(T), CCSD density, CASPT2, CASPT2-K, improved NEVPT2 
  Axel Koslowski         : Symmetry handling                             
  Simone Kossmann        : meta-GGA functionals, TD-DFT gradient, OOMP2, (MP2 Hessian; deprecated post 5.0) 
  Lucas Lang             : DCDCAS, Hyperfine gauge corrections, ICE-SOC+SSC
  Marvin Lechner         : AUTO-CI (C++ implementation), FIC-MRCC        
  Spencer Leger          : CASSCF response                               
  Dagmar Lenk            : GEPOL surface, SMD, ORCA-2-JSON               
  Dimitrios Liakos       : Extrapolation schemes; Compound Job, Property file
  Dimitrios Manganas     : Further ROCIS development; embedding schemes. LFT, Crystal Embedding 
  Dimitrios Pantazis     : SARC Basis sets                               
  Anastasios Papadopoulos: AUTO-CI, single reference methods and gradients 
  Taras Petrenko         : pre 6.0 DFT Hessian and TD-DFT gradient,  ECA, NRVS 
  Petra Pikulova         : Analytic Raman intensities                    
  Peter Pinski           : DLPNO-MP2, DLPNO-MP2 Gradient                 
  Shashank Vittal Rao    : ES-AILFT, MagRelax                            
  Christoph Reimann      : Effective Core Potentials                     
  Marius Retegan         : Local ZFS, SOC                                
  Christoph Riplinger    : Optimizer, TS searches, QM/MM, DLPNO-CCSD(T), (RO)-DLPNO pert. Triples 
  Michael Roemelt        : Original ROCIS implementation, recursive CI coupling coefficients
  Masaaki Saitow         : Open-shell DLPNO-CCSD energy and density      
  Barbara Sandhoefer     : DKH picture change effects                    
  Yorick L. A. Schmerwitz: GMF and freeze-and-release deltaSCF, NEB S-IDPP initial path                    
  Kantharuban Sivalingam : CASSCF convergence/infrastructure, NEVPT2, NEVPT3, NEVPT4(SD), FIC-MRCI and CEPA variants
  Bernardo de Souza      : ESD, SOC TD-DFT                               
  Georgi L. Stoychev     : AutoAux, RI-MP2 NMR, DLPNO-MP2 response, X2C  
  Van Anh Tran           : RI-MP2 g-tensors                              
  Willem Van den Heuvel  : Paramagnetic NMR                              
  Zikuan Wang            : NOTCH, Electric field optimization            
  Frank Wennmohs         : Technical directorship and infrastructure     
  Hang Xu                : AUTO-CI-Response properties                   
                                                                         
[FACCTs GmbH]                                                            
  Markus Bursch, Nicolas Foglia, Miquel Garcia-Rates, Ingolf Harden, Hagen Neugebauer, Anastasios Papadopoulos, 
  Christoph Riplinger, Bernardo de Souza, Georgi L. Stoychev                                                    
                                                                 
  APM, various basis sets, CI-OPT, improved COSX, DLPNO-Multilevel,           
  DOCKER, DRACO, updates on ESD, Fragmentator, GOAT, IRC, LR-CPCM, L-BFGS, MBIS, meta-GGA TD-DFT gradient, ML-optimized integration grids, 
  MM, NACMEs, nearIR, NEB, NEB-TS, NL-DFT gradient (VV10), 2- and 3-layer-ONIOM, interface openCOSMO-RS, QMMM,   
  Crystal-QMMM, RESP, rigid body optimization, SF, symmetry and pop. for TD-DFT, various functionals, SOLVATOR                                   
                                                                         
[Other institutions]                                                     
  V. Asgeirsson          : NEB                                           
  Christoph Bannwarth    : sTDA-DFT, sTD-DFT, PBEh-3c, B97-3c, D3        
  Giovanni Bistoni       : ETS/NOCV, ADLD/ADEX, COVALED                  
  Martin Brehm           : Molecular dynamics                            
  Ronald Cardenas        : ETS/NOCV                                      
  Martina Colucci        : COVALED                                       
  Sebastian Ehlert       : rSCAN, r2SCAN, r2SCAN-3c, D4, dhf basis sets  
  Marvin Friede          : D4 for Fr, Ra, Ac-Lr                          
  Lars Goerigk           : TD-DFT with DH, B97 family of functionals     
  Stefan Grimme          : VdW corrections, initial TS optimization, DFT functionals, gCP, sTDA/sTD-DF 
  Waldemar Hujo          : DFT-NL                                        
  H. Jonsson             : NEB                                           
  Holger Kruse           : gCP                                           
  Marcel Mueller         : wB97X-3c, vDZP basis set                      
  Hagen Neugebauer       : wr2SCAN, Native XTB                           
  Gianluca Regni         : ADLD/ADEX                                     
  Tobias Risthaus        : pre 6.0 range-separated hybrid DFT and stability analysis
  Lukas Wittmann         : regularized MP2, r2SCAN double-hybrids, wr2SCAN        
                                                                         
We gratefully acknowledge several colleagues who have allowed us to      
interface, adapt or use parts of their codes:                            
  Ed Valeev, F. Pavosevic, A. Kumar             : LibInt (2-el integral package), F12 methods 
  Garnet Chan, S. Sharma, J. Yang, R. Olivares  : DMRG                   
  Ulf Ekstrom                                   : XCFun DFT Library      
  Mihaly Kallay                                 : mrcc  (arbitrary order and MRCC methods)
  Frank Weinhold                                : gennbo (NPA and NBO analysis)           
  Simon Mueller                                 : openCOSMO-RS                            
  Christopher J. Cramer and Donald G. Truhlar   : smd solvation model                     
  S Lehtola, MJT Oliveira, MAL Marques          : LibXC Library                           
  Liviu Ungur et al                             : ANISO software                          


 Your calculation uses the libint2 library for the computation of 2-el integrals
 For citations please refer to: http://libint.valeyev.net

 Your ORCA version has been built with support for libXC version: 7.0.0
 For citations please refer to: https://libxc.gitlab.io

 This ORCA versions uses:
   CBLAS   interface :  Fast vector & matrix operations
   LAPACKE interface :  Fast linear algebra routines
   SCALAPACK package :  Parallel linear algebra routines
   Shared memory     :  Shared parallel matrices
   BLAS/LAPACK       :  OpenBLAS 0.3.29  USE64BITINT DYNAMIC_ARCH NO_AFFINITY SkylakeX SINGLE_THREADED
        Core in use  :  SkylakeX
   Copyright (c) 2011-2014, The OpenBLAS Project


  ***********************************
  * Starting time: Thu Mar 12 12:45:30 2026
  * Host name:     midway3-login4.rcc.local
  * Process ID:    2778995
  * Working dir.:  /home/rzhu16/orca_TS_search/sn2_f_cl/geo_opt_reactant_product
  ***********************************

Your calculation utilizes the semiempirical GFN2-xTB method
Please cite in your paper:
Bannwarth, C.; Ehlert S.; Grimme, S. J. Chem. Theory Comput. 2019, 15, 1652.
   

================================================================================

================================================================================
                                        WARNINGS
                       Please study these warnings very carefully!
================================================================================


WARNING: Analytical Hessian for XTB is limited in the analysis of the data.
       : If you want to obtain extensive IR and deltaG analysis, please use ! XTB NumFreq. 


WARNING: Geometry Optimization
  ===> : Switching off AutoStart
         For restart on a previous wavefunction, please use MOREAD

WARNING: Found dipole moment calculation with XTB calculation
  ===> : Switching off dipole moment calculation


WARNING: Found frequency calculation in combination with XTB calculation
  ===> : Need to redirect dipole moment calculation to properties.out


================================================================================
                                       INPUT FILE
================================================================================
NAME = reactant_optfreq.inp
|  1> ! XTB2 Opt Freq PAL8
|  2> 
|  3> * xyz -1 1
|  4>   C      -0.099062     -0.056443     -0.026535
|  5>   H      -0.084927      1.005793      0.108120
|  6>   H       0.826647     -0.577387      0.108504
|  7>   H      -1.011421     -0.581592      0.124259
|  8>   F      -0.239811     -0.138474      2.009748
|  9>   Cl     -0.132276     -0.076159     -2.089285
| 10> *
| 11> 
| 12>                          ****END OF INPUT****
================================================================================

                       *****************************
                       * Geometry Optimization Run *
                       *****************************

Geometry optimization settings:
Update method            Update   .... BFGS
Choice of coordinates    CoordSys .... (2022) Redundant Internals
Initial Hessian          InHess   .... Almloef's Model
Max. no of cycles        MaxIter  .... 50

Convergence Tolerances:
Energy Change            TolE     ....  5.0000e-06 Eh
Max. Gradient            TolMAXG  ....  3.0000e-04 Eh/bohr
RMS Gradient             TolRMSG  ....  1.0000e-04 Eh/bohr
Max. Displacement        TolMAXD  ....  4.0000e-03 bohr
RMS Displacement         TolRMSD  ....  2.0000e-03 bohr
Strict Convergence                .... False

------------------------------------------------------------------------------
                        ORCA OPTIMIZATION COORDINATE SETUP
------------------------------------------------------------------------------

The optimization will be done in redundant internal coordinates (2022)
Making redundant internal coordinates   ...  (2022 redundants) done
Evaluating the initial hessian          ...  (Almloef) done
Evaluating the coordinates              ...  done
Calculating the B-matrix                .... done
Calculating the G-matrix                .... done
The number of degrees of freedom        ....   21

    -----------------------------------------------------------------
                    Redundant Internal Coordinates


    -----------------------------------------------------------------
         Definition                    Initial Value    Approx d2E/dq
    -----------------------------------------------------------------
      1. B(H   1,C   0)                  1.0708         0.386374   
      2. B(H   2,C   0)                  1.0708         0.386454   
      3. B(H   3,C   0)                  1.0634         0.396997   
      4. B(F   4,H   3)                  2.0849         0.010000   
      5. B(F   4,C   0)                  2.0428         0.047259   
      6. B(F   4,H   2)                  2.2237         0.010000   
      7. B(F   4,H   1)                  2.2248         0.010000   
      8. B(Cl  5,H   2)                  2.4497         0.010000   
      9. B(Cl  5,H   3)                  2.4348         0.010000   
     10. B(Cl  5,H   1)                  2.4498         0.010000   
     11. B(Cl  5,C   0)                  2.0631         0.118257   
     12. A(H   1,C   0,H   3)          118.9043         0.298661   
     13. A(H   2,C   0,H   3)          118.9186         0.298671   
     14. A(H   1,C   0,Cl  5)           97.7828         0.283926   
     15. A(H   2,C   0,Cl  5)           97.7794         0.283935   
     16. A(H   3,C   0,Cl  5)           97.0792         0.285126   
     17. A(H   1,C   0,F   4)           85.1467         0.236683   
     18. A(H   2,C   0,F   4)           85.0847         0.236690   
     19. A(H   3,C   0,F   4)           77.2741         0.237593   
     20. A(F   4,C   0,Cl  5)          174.3532         0.227150   
     21. A(H   1,C   0,H   2)          117.0866         0.297387   
    -----------------------------------------------------------------

Number of atoms                         .... 6
Number of degrees of freedom            .... 21


         *************************************************************
         *                GEOMETRY OPTIMIZATION CYCLE   1            *
         *************************************************************
---------------------------------
CARTESIAN COORDINATES (ANGSTROEM)
---------------------------------
  C    -0.099062   -0.056443   -0.026535
  H    -0.084927    1.005793    0.108120
  H     0.826647   -0.577387    0.108504
  H    -1.011421   -0.581592    0.124259
  F    -0.239811   -0.138474    2.009748
  Cl   -0.132276   -0.076159   -2.089285

----------------------------
CARTESIAN COORDINATES (A.U.)
----------------------------
  NO LB    ZA    FRAG    MASS        X           Y           Z
   0 C   6.0000    0    12.011   -0.187200   -0.106662   -0.050144
   1 H   1.0000    0     1.008   -0.160489    1.900673    0.204317
   2 H   1.0000    0     1.008    1.562136   -1.091103    0.205043
   3 H   1.0000    0     1.008   -1.911309   -1.099050    0.234815
   4 F   9.0000    0    18.998   -0.453177   -0.261678    3.797873
   5 Cl 17.0000    0    35.453   -0.249965   -0.143920   -3.948176

      -----------------------------------------------------------      
     |                   =====================                   |     
     |                           x T B                           |     
     |                   =====================                   |     
     |                         S. Grimme                         |     
     |          Mulliken Center for Theoretical Chemistry        |     
     |                    University of Bonn                     |     
      -----------------------------------------------------------      

   * xtb version 6.7.1 (edcfbbe) compiled by 'albert@albert-system' on 2024-07-22

   xtb is free software: you can redistribute it and/or modify it under
   the terms of the GNU Lesser General Public License as published by
   the Free Software Foundation, either version 3 of the License, or
   (at your option) any later version.
   
   xtb is distributed in the hope that it will be useful,
   but WITHOUT ANY WARRANTY; without even the implied warranty of
   MERCHANTABILITY or FITNESS FOR A PARTICULAR PURPOSE.  See the
   GNU Lesser General Public License for more details.
   
   Cite this work as:
   * C. Bannwarth, E. Caldeweyher, S. Ehlert, A. Hansen, P. Pracht,
     J. Seibert, S. Spicher, S. Grimme, WIREs Comput. Mol. Sci., 2020, 11,
     e01493. DOI: 10.1002/wcms.1493
   
   for GFN2-xTB:
   * C. Bannwarth, S. Ehlert and S. Grimme., J. Chem. Theory Comput., 2019,
     15, 1652-1671. DOI: 10.1021/acs.jctc.8b01176
   for GFN1-xTB:
   * S. Grimme, C. Bannwarth, P. Shushkov, J. Chem. Theory Comput., 2017,
     13, 1989-2009. DOI: 10.1021/acs.jctc.7b00118
   for GFN0-xTB:
   * P. Pracht, E. Caldeweyher, S. Ehlert, S. Grimme, ChemRxiv, 2019, preprint.
     DOI: 10.26434/chemrxiv.8326202.v1
   for GFN-FF:
   * S. Spicher and S. Grimme, Angew. Chem. Int. Ed., 2020, 59, 15665-15673.
     DOI: 10.1002/anie.202004239
   
   for ALPB and GBSA implicit solvation:
   * S. Ehlert, M. Stahn, S. Spicher, S. Grimme, J. Chem. Theory Comput.,
     2021, 17, 4250-4261. DOI: 10.1021/acs.jctc.1c00471
   
   for ddCOSMO and CPCM-X implicit solvation:
   * M. Stahn, S. Ehlert, S. Grimme, J. Phys. Chem. A,
     2023, XX, XXXX-XXXX. DOI: 10.1021/acs.jpca.3c04382
   
   for DFT-D4:
   * E. Caldeweyher, C. Bannwarth and S. Grimme, J. Chem. Phys., 2017,
     147, 034112. DOI: 10.1063/1.4993215
   * E. Caldeweyher, S. Ehlert, A. Hansen, H. Neugebauer, S. Spicher,
     C. Bannwarth and S. Grimme, J. Chem. Phys., 2019, 150, 154122.
     DOI: 10.1063/1.5090222
   * E. Caldeweyher, J.-M. Mewes, S. Ehlert and S. Grimme, Phys. Chem. Chem. Phys.
     2020, 22, 8499-8512. DOI: 10.1039/D0CP00502A
   
   for sTDA-xTB:
   * S. Grimme and C. Bannwarth, J. Chem. Phys., 2016, 145, 054103.
     DOI: 10.1063/1.4959605
   
   in the mass-spec context:
   * V. Asgeirsson, C. Bauer and S. Grimme, Chem. Sci., 2017, 8, 4879.
     DOI: 10.1039/c7sc00601b
   * J. Koopman and S. Grimme, ACS Omega 2019, 4, 12, 15120-15133.
     DOI: 10.1021/acsomega.9b02011
   
   for metadynamics refer to:
   * S. Grimme, J. Chem. Theory Comput., 2019, 155, 2847-2862
     DOI: 10.1021/acs.jctc.9b00143
   
   for SPH calculations refer to:
   * S. Spicher and S. Grimme, J. Chem. Theory Comput., 2021, 17, 1701-1714
     DOI: 10.1021/acs.jctc.0c01306
   
   for ONIOM refer to:
   * C. Plett, A. Katbashev, S. Ehlert, S. Grimme, M. Bursch,
     Phys. Chem. Chem. Phys., 2023, 25, 17860-17868. DOI: 10.1039/D3CP02178E
   
   for DIPRO refer to:
   * J. Kohn, N. Gildemeister, S. Grimme, D. Fazzi, A. Hansen,
     J. Chem. Phys., 2023, just accepted.
   
   for PTB refer to:
   * S. Grimme, M. Mueller, A. Hansen, J. Chem. Phys., 2023, 158, 124111.
     DOI: 10.1063/5.0137838
   
   with help from (in alphabetical order)
   P. Atkinson, C. Bannwarth, F. Bohle, G. Brandenburg, E. Caldeweyher
   M. Checinski, S. Dohm, S. Ehlert, S. Ehrlich, I. Gerasimov, C. Hölzer
   A. Katbashev, J. Kohn, J. Koopman, C. Lavigne, S. Lehtola, F. März, M. Müller,
   F. Musil, H. Neugebauer, J. Pisarek, C. Plett, P. Pracht, F. Pultar,
   J. Seibert, P. Shushkov, S. Spicher, M. Stahn, M. Steiner, T. Strunk,
   J. Stückrath, T. Rose, and J. Unsleber
   
 * started run on 2026/03/12 at 12:45:30.945     
   ID    Z sym.   atoms
    1    6 C      1
    2    1 H      2-4
    3    9 F      5
    4   17 Cl     6

           -------------------------------------------------
          |                Calculation Setup                |
           -------------------------------------------------

          program call               : /software/orca-6.1.0-el8-x86_64/bin/otool_xtb reactant_optfreq_XTB.xyz --grad -c -1 -u 0 -P 8 --namespace reactant_optfreq --input reactant_optfreq_XTB.input.tmp --acc 0.200000
          hostname                   : midway3-login4.rcc.local
          calculation namespace      : reactant_optfreq
          coordinate file            : reactant_optfreq_XTB.xyz
          omp threads                :                     8


molecular fragmentation (1/2 indicates fragments):
111121
# atoms in fragment 1/2:     5     1
 fragment masses (1/2) :       50.49       19.00
CMA distance (Bohr)    :   6.574
constraining FC (au)   :  0.0500

           -------------------------------------------------
          |                 G F N 2 - x T B                 |
           -------------------------------------------------

        Reference                      10.1021/acs.jctc.8b01176
      * Hamiltonian:
        H0-scaling (s, p, d)           1.850000    2.230000    2.230000
        zeta-weighting                 0.500000
      * Dispersion:
        s8                             2.700000
        a1                             0.520000
        a2                             5.000000
        s9                             5.000000
      * Repulsion:
        kExp                           1.500000    1.000000
        rExp                           1.000000
      * Coulomb:
        alpha                          2.000000
        third order                    shell-resolved
        anisotropic                    true
        a3                             3.000000
        a5                             4.000000
        cn-shift                       1.200000
        cn-exp                         4.000000
        max-rad                        5.000000


          ...................................................
          :                      SETUP                      :
          :.................................................:
          :  # basis functions                  21          :
          :  # atomic orbitals                  20          :
          :  # shells                           10          :
          :  # electrons                        22          :
          :  max. iterations                   250          :
          :  Hamiltonian                  GFN2-xTB          :
          :  restarted?                      false          :
          :  GBSA solvation                  false          :
          :  PC potential                    false          :
          :  electronic temp.          300.0000000     K    :
          :  accuracy                    0.2000000          :
          :  -> integral cutoff          0.3198970E+02      :
          :  -> integral neglect         0.2000000E-08      :
          :  -> SCF convergence          0.2000000E-06 Eh   :
          :  -> wf. convergence          0.2000000E-04 e    :
          :  Broyden damping             0.4000000          :
          :  net charge                         -1          :
          :  unpaired electrons                  0          :
          ...................................................

 iter      E             dE          RMSdq      gap      omega  full diag
   1    -13.1163933 -0.131164E+02  0.665E+00    4.81       0.0  T
   2    -13.1944336 -0.780403E-01  0.269E+00    2.56       1.0  T
   3    -13.2068041 -0.123705E-01  0.182E+00    3.66       1.0  T
   4    -13.2096481 -0.284396E-02  0.401E-01    3.16       1.0  T
   5    -13.2100983 -0.450246E-03  0.192E-01    3.25       1.0  T
   6    -13.2101281 -0.297510E-04  0.142E-01    3.23       1.0  T
   7    -13.2101846 -0.564850E-04  0.651E-02    3.24       1.0  T
   8    -13.2101950 -0.104182E-04  0.115E-02    3.23       3.6  T
   9    -13.2101956 -0.599348E-06  0.195E-03    3.24      20.9  T
  10    -13.2101956 -0.538345E-08  0.821E-04    3.24      49.7  T
  11    -13.2101956 -0.859982E-09  0.539E-04    3.24      75.8  T
  12    -13.2101956 -0.489914E-09  0.287E-04    3.24     142.2  T
  13    -13.2101956 -0.254007E-09  0.272E-05    3.24    1503.1  T
  14    -13.2101956 -0.251532E-11  0.934E-06    3.24    4372.3  T

   *** convergence criteria satisfied after 14 iterations ***

         #    Occupation            Energy/Eh            Energy/eV
      -------------------------------------------------------------
         1        2.0000           -0.8670633             -23.5940
       ...           ...                  ...                  ...
         5        2.0000           -0.3243492              -8.8260
         6        2.0000           -0.2829129              -7.6985
         7        2.0000           -0.2381390              -6.4801
         8        2.0000           -0.2380671              -6.4781
         9        2.0000           -0.1704346              -4.6378
        10        2.0000           -0.1660556              -4.5186
        11        2.0000           -0.1657686              -4.5108 (HOMO)
        12                         -0.0468118              -1.2738 (LUMO)
        13                          0.2309008               6.2831
        14                          0.2309076               6.2833
        15                          0.2317164               6.3053
        16                          0.2317957               6.3075
       ...                                ...                  ...
        20                          0.4560841              12.4107
      -------------------------------------------------------------
                  HL-Gap            0.1189568 Eh            3.2370 eV
             Fermi-level           -0.1062902 Eh           -2.8923 eV

 SCC (total)                   0 d,  0 h,  0 min,  0.091 sec
 SCC setup                      ...        0 min,  0.000 sec (  0.319%)
 Dispersion                     ...        0 min,  0.000 sec (  0.195%)
 classical contributions        ...        0 min,  0.000 sec (  0.144%)
 integral evaluation            ...        0 min,  0.087 sec ( 95.721%)
 iterations                     ...        0 min,  0.002 sec (  2.219%)
 molecular gradient             ...        0 min,  0.001 sec (  1.207%)
 printout                       ...        0 min,  0.000 sec (  0.167%)

         :::::::::::::::::::::::::::::::::::::::::::::::::::::
         ::                     SUMMARY                     ::
         :::::::::::::::::::::::::::::::::::::::::::::::::::::
         :: total energy             -13.150190871994 Eh    ::
         :: gradient norm              0.014107722109 Eh/a0 ::
         :: HOMO-LUMO gap              3.236979610240 eV    ::
         ::.................................................::
         :: SCC energy               -13.210195687235 Eh    ::
         :: -> isotropic ES            0.189715613910 Eh    ::
         :: -> anisotropic ES         -0.000324099838 Eh    ::
         :: -> anisotropic XC          0.002488207866 Eh    ::
         :: -> dispersion             -0.002062931109 Eh    ::
         :: repulsion energy           0.060004815240 Eh    ::
         :: add. restraining           0.000000000000 Eh    ::
         :: total charge              -1.000000000000 e     ::
         :::::::::::::::::::::::::::::::::::::::::::::::::::::


Property printout bound to 'properties.out'

           -------------------------------------------------
          | TOTAL ENERGY              -13.150190871994 Eh   |
          | GRADIENT NORM               0.014107722109 Eh/α |
          | HOMO-LUMO GAP               3.236979610240 eV   |
           -------------------------------------------------

------------------------------------------------------------------------
 * finished run on 2026/03/12 at 12:45:31.055     
------------------------------------------------------------------------
 total:
 * wall-time:     0 d,  0 h,  0 min,  0.110 sec
 *  cpu-time:     0 d,  0 h,  0 min,  0.449 sec
 * ratio c/w:     4.092 speedup
 SCF:
 * wall-time:     0 d,  0 h,  0 min,  0.091 sec
 *  cpu-time:     0 d,  0 h,  0 min,  0.369 sec
 * ratio c/w:     4.055 speedup


-------------------------   --------------------
FINAL SINGLE POINT ENERGY       -13.150190871990
-------------------------   --------------------


-------------
DIPOLE MOMENT
-------------
                                X             Y             Z
Total Dipole Moment    :      0.39600       0.22900      -0.26100
                        -----------------------------------------
Magnitude (a.u.)       :      0.52667
Magnitude (Debye)      :      1.33868


------------------
CARTESIAN GRADIENT
------------------

   1   C   :   -0.000552259   -0.000325131   -0.010418825
   2   H   :    0.001208045    0.000069166   -0.000501537
   3   H   :    0.000645769    0.001031831   -0.000479526
   4   H   :    0.003301619    0.001910657    0.002588889
   5   F   :   -0.003427630   -0.002000730    0.006522525
   6   Cl  :   -0.001175544   -0.000685793    0.002288474

Difference to translation invariance:
           :    0.0000000000   -0.0000000000   -0.0000000000

Difference to rotation invariance:
           :   -0.0000000006    0.0000000011   -0.0000000000

Norm of the Cartesian gradient     ...    0.0141077221
RMS gradient                       ...    0.0033252220
MAX gradient                       ...    0.0104188248
------------------------------------------------------------------------------
                         ORCA GEOMETRY RELAXATION STEP
------------------------------------------------------------------------------

Reading the OPT-File                    .... done
Getting information on internals        .... done
Copying old internal coords+grads       .... done
Making the new internal coordinates     .... (2022 redundants) done
Validating the new internal coordinates .... (2022 redundants) done
Calculating the B-matrix                .... done
Calculating the G,G- and P matrices     .... done
Transforming gradient to internals      .... done
Projecting the internal gradient        .... done
Number of atoms                         ....   6
Number of internal coordinates          ....  21
Current Energy                          ....   -13.150190872 Eh
Current gradient norm                   ....     0.014107722 Eh/bohr
Maximum allowed component of the step   ....  0.300
Current trust radius                    ....  0.300
Evaluating the initial hessian          ....  (Almloef) done
Projecting the Hessian                  .... done
Forming the augmented Hessian           .... done
Diagonalizing the augmented Hessian     .... done
Last element of RFO vector              ....  0.985335472
Lowest eigenvalues of augmented Hessian:
 -0.001032979  0.021227805  0.037356385  0.060042886  0.067266664
Length of the computed step             ....  0.173167699
The final length of the internal step   ....  0.173167699
Converting the step to Cartesian space:
 Initial RMS(Int)=    0.0377882898
Transforming coordinates:
 Iter   0:  RMS(Cart)=    0.0234546979 RMS(Int)=    0.0376541702
done
Storing new coordinates                 .... done

                                .--------------------.
          ----------------------|Geometry convergence|-------------------------
          Item                value                   Tolerance       Converged
          ---------------------------------------------------------------------
          RMS gradient        0.0018896612            0.0001000000      NO
          MAX gradient        0.0045822681            0.0003000000      NO
          RMS step            0.0377882898            0.0020000000      NO
          MAX step            0.0969572777            0.0040000000      NO
          -------------------------------------------------------------------------
          ........................................................
          Max(Bonds)      0.0513      Max(Angles)    1.44
          Max(Dihed)        0.00      Max(Improp)    0.00
          ---------------------------------------------------------------------

The optimization has not yet converged - more geometry cycles are needed


    ---------------------------------------------------------------------------
                         Redundant Internal Coordinates
                            (Angstroem and degrees)

        Definition                    Value    dE/dq     Step     New-Value
    ----------------------------------------------------------------------------
     1. B(H   1,C   0)                1.0708 -0.001197  0.0005    1.0713   
     2. B(H   2,C   0)                1.0708 -0.001201  0.0005    1.0713   
     3. B(H   3,C   0)                1.0634 -0.002080  0.0046    1.0680   
     4. B(F   4,H   3)                2.0849 -0.002288 -0.0176    2.0673   
     5. B(F   4,C   0)                2.0428  0.004582 -0.0513    1.9915   
     6. B(F   4,H   2)                2.2237  0.002388 -0.0496    2.1741   
     7. B(F   4,H   1)                2.2248  0.002422 -0.0498    2.1750   
     8. B(Cl  5,H   2)                2.4497  0.000426  0.0029    2.4526   
     9. B(Cl  5,H   3)                2.4348 -0.001212  0.0068    2.4416   
    10. B(Cl  5,H   1)                2.4498  0.000436  0.0029    2.4527   
    11. B(Cl  5,C   0)                2.0631 -0.001948  0.0090    2.0721   
    12. A(H   1,C   0,H   3)          118.90  0.000078   -0.00    118.90   
    13. A(H   2,C   0,H   3)          118.92  0.000100   -0.01    118.91   
    14. A(H   1,C   0,Cl  5)           97.78  0.001689   -0.35     97.43   
    15. A(H   2,C   0,Cl  5)           97.78  0.001684   -0.35     97.43   
    16. A(H   3,C   0,Cl  5)           97.08  0.000988   -0.24     96.84   
    17. A(H   1,C   0,F   4)           85.15 -0.000602   -0.29     84.86   
    18. A(H   2,C   0,F   4)           85.08 -0.000620   -0.28     84.81   
    19. A(H   3,C   0,F   4)           77.27 -0.002942    1.44     78.71   
    20. A(F   4,C   0,Cl  5)          174.35 -0.001955    1.20    175.55   
    21. A(H   1,C   0,H   2)          117.09 -0.002107    0.43    117.51   
    ----------------------------------------------------------------------------

Geometry step timings:
Preparation and reading OPT file:      0.000 s ( 3.341 %)
Internal coordinates            :      0.000 s ( 3.497 %)
B/P matrices and projection     :      0.000 s (12.199 %)
Hessian update/contruction      :      0.000 s (32.246 %)
Making the step                 :      0.000 s (10.800 %)
Converting the step to Cartesian:      0.000 s ( 3.497 %)
Storing new data                :      0.000 s ( 6.838 %)
Checking convergence            :      0.000 s ( 5.284 %)
Final printing                  :      0.000 s (22.067 %)
Total time                      :      0.001 s

Time for energy+gradient        :      0.119 s
Time for complete geometry iter :      0.122 s

         *************************************************************
         *                GEOMETRY OPTIMIZATION CYCLE   2            *
         *************************************************************
---------------------------------
CARTESIAN COORDINATES (ANGSTROEM)
---------------------------------
  C    -0.104005   -0.059323   -0.014069
  H    -0.093530    1.003635    0.118974
  H     0.820512   -0.583847    0.119272
  H    -1.021862   -0.587676    0.123884
  F    -0.219989   -0.126902    1.972783
  Cl   -0.121977   -0.070149   -2.086032

----------------------------
CARTESIAN COORDINATES (A.U.)
----------------------------
  NO LB    ZA    FRAG    MASS        X           Y           Z
   0 C   6.0000    0    12.011   -0.196540   -0.112105   -0.026587
   1 H   1.0000    0     1.008   -0.176746    1.896595    0.224828
   2 H   1.0000    0     1.008    1.550542   -1.103311    0.225391
   3 H   1.0000    0     1.008   -1.931039   -1.110547    0.234107
   4 F   9.0000    0    18.998   -0.415718   -0.239810    3.728019
   5 Cl 17.0000    0    35.453   -0.230503   -0.132562   -3.942029

      -----------------------------------------------------------      
     |                   =====================                   |     
     |                           x T B                           |     
     |                   =====================                   |     
     |                         S. Grimme                         |     
     |          Mulliken Center for Theoretical Chemistry        |     
     |                    University of Bonn                     |     
      -----------------------------------------------------------      

   * xtb version 6.7.1 (edcfbbe) compiled by 'albert@albert-system' on 2024-07-22

   xtb is free software: you can redistribute it and/or modify it under
   the terms of the GNU Lesser General Public License as published by
   the Free Software Foundation, either version 3 of the License, or
   (at your option) any later version.
   
   xtb is distributed in the hope that it will be useful,
   but WITHOUT ANY WARRANTY; without even the implied warranty of
   MERCHANTABILITY or FITNESS FOR A PARTICULAR PURPOSE.  See the
   GNU Lesser General Public License for more details.
   
   Cite this work as:
   * C. Bannwarth, E. Caldeweyher, S. Ehlert, A. Hansen, P. Pracht,
     J. Seibert, S. Spicher, S. Grimme, WIREs Comput. Mol. Sci., 2020, 11,
     e01493. DOI: 10.1002/wcms.1493
   
   for GFN2-xTB:
   * C. Bannwarth, S. Ehlert and S. Grimme., J. Chem. Theory Comput., 2019,
     15, 1652-1671. DOI: 10.1021/acs.jctc.8b01176
   for GFN1-xTB:
   * S. Grimme, C. Bannwarth, P. Shushkov, J. Chem. Theory Comput., 2017,
     13, 1989-2009. DOI: 10.1021/acs.jctc.7b00118
   for GFN0-xTB:
   * P. Pracht, E. Caldeweyher, S. Ehlert, S. Grimme, ChemRxiv, 2019, preprint.
     DOI: 10.26434/chemrxiv.8326202.v1
   for GFN-FF:
   * S. Spicher and S. Grimme, Angew. Chem. Int. Ed., 2020, 59, 15665-15673.
     DOI: 10.1002/anie.202004239
   
   for ALPB and GBSA implicit solvation:
   * S. Ehlert, M. Stahn, S. Spicher, S. Grimme, J. Chem. Theory Comput.,
     2021, 17, 4250-4261. DOI: 10.1021/acs.jctc.1c00471
   
   for ddCOSMO and CPCM-X implicit solvation:
   * M. Stahn, S. Ehlert, S. Grimme, J. Phys. Chem. A,
     2023, XX, XXXX-XXXX. DOI: 10.1021/acs.jpca.3c04382
   
   for DFT-D4:
   * E. Caldeweyher, C. Bannwarth and S. Grimme, J. Chem. Phys., 2017,
     147, 034112. DOI: 10.1063/1.4993215
   * E. Caldeweyher, S. Ehlert, A. Hansen, H. Neugebauer, S. Spicher,
     C. Bannwarth and S. Grimme, J. Chem. Phys., 2019, 150, 154122.
     DOI: 10.1063/1.5090222
   * E. Caldeweyher, J.-M. Mewes, S. Ehlert and S. Grimme, Phys. Chem. Chem. Phys.
     2020, 22, 8499-8512. DOI: 10.1039/D0CP00502A
   
   for sTDA-xTB:
   * S. Grimme and C. Bannwarth, J. Chem. Phys., 2016, 145, 054103.
     DOI: 10.1063/1.4959605
   
   in the mass-spec context:
   * V. Asgeirsson, C. Bauer and S. Grimme, Chem. Sci., 2017, 8, 4879.
     DOI: 10.1039/c7sc00601b
   * J. Koopman and S. Grimme, ACS Omega 2019, 4, 12, 15120-15133.
     DOI: 10.1021/acsomega.9b02011
   
   for metadynamics refer to:
   * S. Grimme, J. Chem. Theory Comput., 2019, 155, 2847-2862
     DOI: 10.1021/acs.jctc.9b00143
   
   for SPH calculations refer to:
   * S. Spicher and S. Grimme, J. Chem. Theory Comput., 2021, 17, 1701-1714
     DOI: 10.1021/acs.jctc.0c01306
   
   for ONIOM refer to:
   * C. Plett, A. Katbashev, S. Ehlert, S. Grimme, M. Bursch,
     Phys. Chem. Chem. Phys., 2023, 25, 17860-17868. DOI: 10.1039/D3CP02178E
   
   for DIPRO refer to:
   * J. Kohn, N. Gildemeister, S. Grimme, D. Fazzi, A. Hansen,
     J. Chem. Phys., 2023, just accepted.
   
   for PTB refer to:
   * S. Grimme, M. Mueller, A. Hansen, J. Chem. Phys., 2023, 158, 124111.
     DOI: 10.1063/5.0137838
   
   with help from (in alphabetical order)
   P. Atkinson, C. Bannwarth, F. Bohle, G. Brandenburg, E. Caldeweyher
   M. Checinski, S. Dohm, S. Ehlert, S. Ehrlich, I. Gerasimov, C. Hölzer
   A. Katbashev, J. Kohn, J. Koopman, C. Lavigne, S. Lehtola, F. März, M. Müller,
   F. Musil, H. Neugebauer, J. Pisarek, C. Plett, P. Pracht, F. Pultar,
   J. Seibert, P. Shushkov, S. Spicher, M. Stahn, M. Steiner, T. Strunk,
   J. Stückrath, T. Rose, and J. Unsleber
   
 * started run on 2026/03/12 at 12:45:31.067     
   ID    Z sym.   atoms
    1    6 C      1
    2    1 H      2-4
    3    9 F      5
    4   17 Cl     6

           -------------------------------------------------
          |                Calculation Setup                |
           -------------------------------------------------

          program call               : /software/orca-6.1.0-el8-x86_64/bin/otool_xtb reactant_optfreq_XTB.xyz --grad -c -1 -u 0 -P 8 --namespace reactant_optfreq --input reactant_optfreq_XTB.input.tmp --acc 0.200000
          hostname                   : midway3-login4.rcc.local
          calculation namespace      : reactant_optfreq
          coordinate file            : reactant_optfreq_XTB.xyz
          omp threads                :                     8


molecular fragmentation (1/2 indicates fragments):
111121
# atoms in fragment 1/2:     5     1
 fragment masses (1/2) :       50.49       19.00
CMA distance (Bohr)    :   6.493
constraining FC (au)   :  0.0500

           -------------------------------------------------
          |                 G F N 2 - x T B                 |
           -------------------------------------------------

        Reference                      10.1021/acs.jctc.8b01176
      * Hamiltonian:
        H0-scaling (s, p, d)           1.850000    2.230000    2.230000
        zeta-weighting                 0.500000
      * Dispersion:
        s8                             2.700000
        a1                             0.520000
        a2                             5.000000
        s9                             5.000000
      * Repulsion:
        kExp                           1.500000    1.000000
        rExp                           1.000000
      * Coulomb:
        alpha                          2.000000
        third order                    shell-resolved
        anisotropic                    true
        a3                             3.000000
        a5                             4.000000
        cn-shift                       1.200000
        cn-exp                         4.000000
        max-rad                        5.000000

q/qsh data taken from xtbrestart
CAMM data taken from xtbrestart

          ...................................................
          :                      SETUP                      :
          :.................................................:
          :  # basis functions                  21          :
          :  # atomic orbitals                  20          :
          :  # shells                           10          :
          :  # electrons                        22          :
          :  max. iterations                   250          :
          :  Hamiltonian                  GFN2-xTB          :
          :  restarted?                       true          :
          :  GBSA solvation                  false          :
          :  PC potential                    false          :
          :  electronic temp.          300.0000000     K    :
          :  accuracy                    0.2000000          :
          :  -> integral cutoff          0.3198970E+02      :
          :  -> integral neglect         0.2000000E-08      :
          :  -> SCF convergence          0.2000000E-06 Eh   :
          :  -> wf. convergence          0.2000000E-04 e    :
          :  Broyden damping             0.4000000          :
          :  net charge                         -1          :
          :  unpaired electrons                  0          :
          ...................................................

 iter      E             dE          RMSdq      gap      omega  full diag
   1    -13.2098744 -0.132099E+02  0.292E-01    3.40       0.0  T
   2    -13.2102065 -0.332062E-03  0.865E-02    3.58       1.0  T
   3    -13.2102172 -0.107032E-04  0.392E-02    3.56       1.0  T
   4    -13.2102202 -0.298877E-05  0.242E-02    3.57       1.7  T
   5    -13.2102205 -0.318271E-06  0.206E-03    3.57      19.8  T
   6    -13.2102205 -0.149403E-08  0.675E-04    3.57      60.4  T
   7    -13.2102205 -0.772189E-09  0.434E-04    3.57      94.1  T
   8    -13.2102205 -0.383750E-09  0.240E-04    3.57     170.0  T
   9    -13.2102205 -0.141609E-09  0.394E-05    3.57    1036.5  T
  10    -13.2102205 -0.252065E-11  0.266E-05    3.57    1532.6  T

   *** convergence criteria satisfied after 10 iterations ***

         #    Occupation            Energy/Eh            Energy/eV
      -------------------------------------------------------------
         1        2.0000           -0.8628500             -23.4793
       ...           ...                  ...                  ...
         5        2.0000           -0.3232764              -8.7968
         6        2.0000           -0.2803329              -7.6282
         7        2.0000           -0.2346649              -6.3856
         8        2.0000           -0.2346041              -6.3839
         9        2.0000           -0.1769317              -4.8146
        10        2.0000           -0.1735973              -4.7238
        11        2.0000           -0.1732581              -4.7146 (HOMO)
        12                         -0.0420628              -1.1446 (LUMO)
        13                          0.2362918               6.4298
        14                          0.2362945               6.4299
        15                          0.2371098               6.4521
        16                          0.2371714               6.4538
       ...                                ...                  ...
        20                          0.4497298              12.2378
      -------------------------------------------------------------
                  HL-Gap            0.1311953 Eh            3.5700 eV
             Fermi-level           -0.1076605 Eh           -2.9296 eV

 SCC (total)                   0 d,  0 h,  0 min,  0.173 sec
 SCC setup                      ...        0 min,  0.000 sec (  0.115%)
 Dispersion                     ...        0 min,  0.000 sec (  0.031%)
 classical contributions        ...        0 min,  0.000 sec (  0.056%)
 integral evaluation            ...        0 min,  0.170 sec ( 98.679%)
 iterations                     ...        0 min,  0.001 sec (  0.767%)
 molecular gradient             ...        0 min,  0.000 sec (  0.268%)
 printout                       ...        0 min,  0.000 sec (  0.070%)

         :::::::::::::::::::::::::::::::::::::::::::::::::::::
         ::                     SUMMARY                     ::
         :::::::::::::::::::::::::::::::::::::::::::::::::::::
         :: total energy             -13.151087207202 Eh    ::
         :: gradient norm              0.016166968023 Eh/a0 ::
         :: HOMO-LUMO gap              3.570006488439 eV    ::
         ::.................................................::
         :: SCC energy               -13.210220554325 Eh    ::
         :: -> isotropic ES            0.186286808739 Eh    ::
         :: -> anisotropic ES         -0.000452660590 Eh    ::
         :: -> anisotropic XC          0.002342366217 Eh    ::
         :: -> dispersion             -0.002069340191 Eh    ::
         :: repulsion energy           0.059133347122 Eh    ::
         :: add. restraining           0.000000000000 Eh    ::
         :: total charge              -1.000000000000 e     ::
         :::::::::::::::::::::::::::::::::::::::::::::::::::::


Property printout bound to 'properties.out'

           -------------------------------------------------
          | TOTAL ENERGY              -13.151087207202 Eh   |
          | GRADIENT NORM               0.016166968023 Eh/α |
          | HOMO-LUMO GAP               3.570006488439 eV   |
           -------------------------------------------------

------------------------------------------------------------------------
 * finished run on 2026/03/12 at 12:45:31.265     
------------------------------------------------------------------------
 total:
 * wall-time:     0 d,  0 h,  0 min,  0.198 sec
 *  cpu-time:     0 d,  0 h,  0 min,  0.739 sec
 * ratio c/w:     3.737 speedup
 SCF:
 * wall-time:     0 d,  0 h,  0 min,  0.173 sec
 *  cpu-time:     0 d,  0 h,  0 min,  0.680 sec
 * ratio c/w:     3.935 speedup


-------------------------   --------------------
FINAL SINGLE POINT ENERGY       -13.151087207200
-------------------------   --------------------


-------------
DIPOLE MOMENT
-------------
                                X             Y             Z
Total Dipole Moment    :      0.35600       0.20500      -0.07500
                        -----------------------------------------
Magnitude (a.u.)       :      0.41760
Magnitude (Debye)      :      1.06144


------------------
CARTESIAN GRADIENT
------------------

   1   C   :    0.001263083    0.000736982   -0.013950000
   2   H   :    0.000937173    0.000406050    0.001123192
   3   H   :    0.000814790    0.000618003    0.001147732
   4   H   :    0.000909113    0.000530948    0.004406691
   5   F   :   -0.002938206   -0.001716482    0.003403576
   6   Cl  :   -0.000985953   -0.000575501    0.003868809

Difference to translation invariance:
           :    0.0000000000   -0.0000000000    0.0000000000

Difference to rotation invariance:
           :    0.0000000399   -0.0000000683    0.0000000000

Norm of the Cartesian gradient     ...    0.0161669680
RMS gradient                       ...    0.0038105909
MAX gradient                       ...    0.0139500001
------------------------------------------------------------------------------
                         ORCA GEOMETRY RELAXATION STEP
------------------------------------------------------------------------------

Reading the OPT-File                    .... done
Getting information on internals        .... done
Copying old internal coords+grads       .... done
Making the new internal coordinates     .... (2022 redundants) done
Validating the new internal coordinates .... (2022 redundants) done
Calculating the B-matrix                .... done
Calculating the G,G- and P matrices     .... done
Transforming gradient to internals      .... done
Projecting the internal gradient        .... done
Number of atoms                         ....   6
Number of internal coordinates          ....  21
Current Energy                          ....   -13.151087207 Eh
Current gradient norm                   ....     0.016166968 Eh/bohr
Maximum allowed component of the step   ....  0.300
Current trust radius                    ....  0.300
Updating the Hessian (BFGS)             .... done
Forming the augmented Hessian           .... done
Diagonalizing the augmented Hessian     .... done
Last element of RFO vector              ....  0.901883369
Lowest eigenvalues of augmented Hessian:
 -0.002805049  0.009841330  0.038638715  0.055201012  0.060043071
Length of the computed step             ....  0.478975032
Warning: the length of the step is outside the trust region - taking restricted step instead
The input lambda is                     ....     0.006546
   iter:   5  x=    0.000332  g=  394.977299 f(x)=     0.894045
   iter:  10  x=   -0.009238  g=   10.400286 f(x)=     0.000819
The output lambda is                    ....    -0.009239 (13 iterations)
The final length of the internal step   ....  0.300000000
Converting the step to Cartesian space:
 Initial RMS(Int)=    0.0654653671
Transforming coordinates:
 Iter   0:  RMS(Cart)=    0.0457825385 RMS(Int)=    0.0650106150
done
Storing new coordinates                 .... done
The predicted energy change is          ....    -0.001357388
Previously predicted energy change      ....    -0.000531978
Actually observed energy change         ....    -0.000896335
Ratio of predicted to observed change   ....     1.684911163
New trust radius                        ....     0.200000000

                                .--------------------.
          ----------------------|Geometry convergence|-------------------------
          Item                value                   Tolerance       Converged
          ---------------------------------------------------------------------
          Energy change      -0.0008963352            0.0000050000      NO
          RMS gradient        0.0019156692            0.0001000000      NO
          MAX gradient        0.0039332047            0.0003000000      NO
          RMS step            0.0654653671            0.0020000000      NO
          MAX step            0.1657999432            0.0040000000      NO
          -------------------------------------------------------------------------
          ........................................................
          Max(Bonds)      0.0877      Max(Angles)    4.42
          Max(Dihed)        0.00      Max(Improp)    0.00
          ---------------------------------------------------------------------

The optimization has not yet converged - more geometry cycles are needed


    ---------------------------------------------------------------------------
                         Redundant Internal Coordinates
                            (Angstroem and degrees)

        Definition                    Value    dE/dq     Step     New-Value
    ----------------------------------------------------------------------------
     1. B(H   1,C   0)                1.0713 -0.000128 -0.0001    1.0712   
     2. B(H   2,C   0)                1.0713 -0.000119 -0.0001    1.0712   
     3. B(H   3,C   0)                1.0680  0.000813  0.0054    1.0734   
     4. B(F   4,H   3)                2.0673 -0.002820  0.0042    2.0715   
     5. B(F   4,C   0)                1.9914  0.003933 -0.0877    1.9036   
     6. B(F   4,H   2)                2.1742  0.001203 -0.0783    2.0959   
     7. B(F   4,H   1)                2.1750  0.001234 -0.0789    2.0962   
     8. B(Cl  5,H   2)                2.4527  0.000310  0.0092    2.4619   
     9. B(Cl  5,H   3)                2.4416 -0.000672  0.0170    2.4586   
    10. B(Cl  5,H   1)                2.4527  0.000316  0.0092    2.4619   
    11. B(Cl  5,C   0)                2.0721 -0.003816  0.0373    2.1094   
    12. A(H   1,C   0,H   3)          118.90 -0.000226    0.26    119.16   
    13. A(H   2,C   0,H   3)          118.91 -0.000209    0.25    119.16   
    14. A(H   1,C   0,Cl  5)           97.44  0.002256   -1.56     95.88   
    15. A(H   2,C   0,Cl  5)           97.43  0.002249   -1.56     95.87   
    16. A(H   3,C   0,Cl  5)           96.84  0.001369   -1.25     95.59   
    17. A(H   1,C   0,F   4)           84.86 -0.001160   -0.13     84.73   
    18. A(H   2,C   0,F   4)           84.81 -0.001178   -0.09     84.71   
    19. A(H   3,C   0,F   4)           78.71 -0.003398    4.42     83.14   
    20. A(F   4,C   0,Cl  5)          175.55 -0.002029    3.18    178.73   
    21. A(H   1,C   0,H   2)          117.51 -0.002065    1.41    118.92   
    ----------------------------------------------------------------------------

Geometry step timings:
Preparation and reading OPT file:      0.000 s ( 2.510 %)
Internal coordinates            :      0.000 s ( 3.239 %)
B/P matrices and projection     :      0.000 s (10.850 %)
Hessian update/contruction      :      0.000 s (33.117 %)
Making the step                 :      0.000 s (13.684 %)
Converting the step to Cartesian:      0.000 s ( 2.510 %)
Storing new data                :      0.000 s ( 6.316 %)
Checking convergence            :      0.000 s ( 5.830 %)
Final printing                  :      0.000 s (21.943 %)
Total time                      :      0.001 s

Time for energy+gradient        :      0.207 s
Time for complete geometry iter :      0.209 s

         *************************************************************
         *                GEOMETRY OPTIMIZATION CYCLE   3            *
         *************************************************************
---------------------------------
CARTESIAN COORDINATES (ANGSTROEM)
---------------------------------
  C    -0.117302   -0.067078    0.019550
  H    -0.116040    0.997634    0.135790
  H     0.804130   -0.600560    0.135862
  H    -1.044283   -0.600777    0.111561
  F    -0.171782   -0.098747    1.921827
  Cl   -0.095574   -0.054734   -2.089779

----------------------------
CARTESIAN COORDINATES (A.U.)
----------------------------
  NO LB    ZA    FRAG    MASS        X           Y           Z
   0 C   6.0000    0    12.011   -0.221669   -0.126759    0.036944
   1 H   1.0000    0     1.008   -0.219283    1.885255    0.256605
   2 H   1.0000    0     1.008    1.519586   -1.134893    0.256742
   3 H   1.0000    0     1.008   -1.973409   -1.135304    0.210820
   4 F   9.0000    0    18.998   -0.324620   -0.186605    3.631727
   5 Cl 17.0000    0    35.453   -0.180609   -0.103432   -3.949110

      -----------------------------------------------------------      
     |                   =====================                   |     
     |                           x T B                           |     
     |                   =====================                   |     
     |                         S. Grimme                         |     
     |          Mulliken Center for Theoretical Chemistry        |     
     |                    University of Bonn                     |     
      -----------------------------------------------------------      

   * xtb version 6.7.1 (edcfbbe) compiled by 'albert@albert-system' on 2024-07-22

   xtb is free software: you can redistribute it and/or modify it under
   the terms of the GNU Lesser General Public License as published by
   the Free Software Foundation, either version 3 of the License, or
   (at your option) any later version.
   
   xtb is distributed in the hope that it will be useful,
   but WITHOUT ANY WARRANTY; without even the implied warranty of
   MERCHANTABILITY or FITNESS FOR A PARTICULAR PURPOSE.  See the
   GNU Lesser General Public License for more details.
   
   Cite this work as:
   * C. Bannwarth, E. Caldeweyher, S. Ehlert, A. Hansen, P. Pracht,
     J. Seibert, S. Spicher, S. Grimme, WIREs Comput. Mol. Sci., 2020, 11,
     e01493. DOI: 10.1002/wcms.1493
   
   for GFN2-xTB:
   * C. Bannwarth, S. Ehlert and S. Grimme., J. Chem. Theory Comput., 2019,
     15, 1652-1671. DOI: 10.1021/acs.jctc.8b01176
   for GFN1-xTB:
   * S. Grimme, C. Bannwarth, P. Shushkov, J. Chem. Theory Comput., 2017,
     13, 1989-2009. DOI: 10.1021/acs.jctc.7b00118
   for GFN0-xTB:
   * P. Pracht, E. Caldeweyher, S. Ehlert, S. Grimme, ChemRxiv, 2019, preprint.
     DOI: 10.26434/chemrxiv.8326202.v1
   for GFN-FF:
   * S. Spicher and S. Grimme, Angew. Chem. Int. Ed., 2020, 59, 15665-15673.
     DOI: 10.1002/anie.202004239
   
   for ALPB and GBSA implicit solvation:
   * S. Ehlert, M. Stahn, S. Spicher, S. Grimme, J. Chem. Theory Comput.,
     2021, 17, 4250-4261. DOI: 10.1021/acs.jctc.1c00471
   
   for ddCOSMO and CPCM-X implicit solvation:
   * M. Stahn, S. Ehlert, S. Grimme, J. Phys. Chem. A,
     2023, XX, XXXX-XXXX. DOI: 10.1021/acs.jpca.3c04382
   
   for DFT-D4:
   * E. Caldeweyher, C. Bannwarth and S. Grimme, J. Chem. Phys., 2017,
     147, 034112. DOI: 10.1063/1.4993215
   * E. Caldeweyher, S. Ehlert, A. Hansen, H. Neugebauer, S. Spicher,
     C. Bannwarth and S. Grimme, J. Chem. Phys., 2019, 150, 154122.
     DOI: 10.1063/1.5090222
   * E. Caldeweyher, J.-M. Mewes, S. Ehlert and S. Grimme, Phys. Chem. Chem. Phys.
     2020, 22, 8499-8512. DOI: 10.1039/D0CP00502A
   
   for sTDA-xTB:
   * S. Grimme and C. Bannwarth, J. Chem. Phys., 2016, 145, 054103.
     DOI: 10.1063/1.4959605
   
   in the mass-spec context:
   * V. Asgeirsson, C. Bauer and S. Grimme, Chem. Sci., 2017, 8, 4879.
     DOI: 10.1039/c7sc00601b
   * J. Koopman and S. Grimme, ACS Omega 2019, 4, 12, 15120-15133.
     DOI: 10.1021/acsomega.9b02011
   
   for metadynamics refer to:
   * S. Grimme, J. Chem. Theory Comput., 2019, 155, 2847-2862
     DOI: 10.1021/acs.jctc.9b00143
   
   for SPH calculations refer to:
   * S. Spicher and S. Grimme, J. Chem. Theory Comput., 2021, 17, 1701-1714
     DOI: 10.1021/acs.jctc.0c01306
   
   for ONIOM refer to:
   * C. Plett, A. Katbashev, S. Ehlert, S. Grimme, M. Bursch,
     Phys. Chem. Chem. Phys., 2023, 25, 17860-17868. DOI: 10.1039/D3CP02178E
   
   for DIPRO refer to:
   * J. Kohn, N. Gildemeister, S. Grimme, D. Fazzi, A. Hansen,
     J. Chem. Phys., 2023, just accepted.
   
   for PTB refer to:
   * S. Grimme, M. Mueller, A. Hansen, J. Chem. Phys., 2023, 158, 124111.
     DOI: 10.1063/5.0137838
   
   with help from (in alphabetical order)
   P. Atkinson, C. Bannwarth, F. Bohle, G. Brandenburg, E. Caldeweyher
   M. Checinski, S. Dohm, S. Ehlert, S. Ehrlich, I. Gerasimov, C. Hölzer
   A. Katbashev, J. Kohn, J. Koopman, C. Lavigne, S. Lehtola, F. März, M. Müller,
   F. Musil, H. Neugebauer, J. Pisarek, C. Plett, P. Pracht, F. Pultar,
   J. Seibert, P. Shushkov, S. Spicher, M. Stahn, M. Steiner, T. Strunk,
   J. Stückrath, T. Rose, and J. Unsleber
   
 * started run on 2026/03/12 at 12:45:31.277     
   ID    Z sym.   atoms
    1    6 C      1
    2    1 H      2-4
    3    9 F      5
    4   17 Cl     6

           -------------------------------------------------
          |                Calculation Setup                |
           -------------------------------------------------

          program call               : /software/orca-6.1.0-el8-x86_64/bin/otool_xtb reactant_optfreq_XTB.xyz --grad -c -1 -u 0 -P 8 --namespace reactant_optfreq --input reactant_optfreq_XTB.input.tmp --acc 0.200000
          hostname                   : midway3-login4.rcc.local
          calculation namespace      : reactant_optfreq
          coordinate file            : reactant_optfreq_XTB.xyz
          omp threads                :                     8


molecular fragmentation (1/2 indicates fragments):
111121
# atoms in fragment 1/2:     5     1
 fragment masses (1/2) :       50.49       19.00
CMA distance (Bohr)    :   6.383
constraining FC (au)   :  0.0500

           -------------------------------------------------
          |                 G F N 2 - x T B                 |
           -------------------------------------------------

        Reference                      10.1021/acs.jctc.8b01176
      * Hamiltonian:
        H0-scaling (s, p, d)           1.850000    2.230000    2.230000
        zeta-weighting                 0.500000
      * Dispersion:
        s8                             2.700000
        a1                             0.520000
        a2                             5.000000
        s9                             5.000000
      * Repulsion:
        kExp                           1.500000    1.000000
        rExp                           1.000000
      * Coulomb:
        alpha                          2.000000
        third order                    shell-resolved
        anisotropic                    true
        a3                             3.000000
        a5                             4.000000
        cn-shift                       1.200000
        cn-exp                         4.000000
        max-rad                        5.000000

q/qsh data taken from xtbrestart
CAMM data taken from xtbrestart

          ...................................................
          :                      SETUP                      :
          :.................................................:
          :  # basis functions                  21          :
          :  # atomic orbitals                  20          :
          :  # shells                           10          :
          :  # electrons                        22          :
          :  max. iterations                   250          :
          :  Hamiltonian                  GFN2-xTB          :
          :  restarted?                       true          :
          :  GBSA solvation                  false          :
          :  PC potential                    false          :
          :  electronic temp.          300.0000000     K    :
          :  accuracy                    0.2000000          :
          :  -> integral cutoff          0.3198970E+02      :
          :  -> integral neglect         0.2000000E-08      :
          :  -> SCF convergence          0.2000000E-06 Eh   :
          :  -> wf. convergence          0.2000000E-04 e    :
          :  Broyden damping             0.4000000          :
          :  net charge                         -1          :
          :  unpaired electrons                  0          :
          ...................................................

 iter      E             dE          RMSdq      gap      omega  full diag
   1    -13.2091036 -0.132091E+02  0.666E-01    3.82       0.0  T
   2    -13.2108722 -0.176868E-02  0.221E-01    4.21       1.0  T
   3    -13.2109528 -0.806038E-04  0.928E-02    4.16       1.0  T
   4    -13.2109697 -0.168419E-04  0.620E-02    4.19       1.0  T
   5    -13.2109723 -0.263040E-05  0.178E-02    4.18       2.3  T
   6    -13.2109730 -0.664311E-06  0.912E-03    4.18       4.5  T
   7    -13.2109732 -0.211683E-06  0.497E-03    4.19       8.2  T
   8    -13.2109732 -0.635410E-07  0.719E-04    4.19      56.8  T
   9    -13.2109732 -0.212985E-10  0.277E-04    4.19     147.2  T
  10    -13.2109732 -0.258519E-09  0.119E-04    4.19     344.0  T
  11    -13.2109732 -0.491163E-11  0.874E-05    4.19     467.3  T

   *** convergence criteria satisfied after 11 iterations ***

         #    Occupation            Energy/Eh            Energy/eV
      -------------------------------------------------------------
         1        2.0000           -0.8532688             -23.2186
       ...           ...                  ...                  ...
         5        2.0000           -0.3231633              -8.7937
         6        2.0000           -0.2763469              -7.5198
         7        2.0000           -0.2273985              -6.1878
         8        2.0000           -0.2273924              -6.1877
         9        2.0000           -0.1914384              -5.2093
        10        2.0000           -0.1914341              -5.2092
        11        2.0000           -0.1905906              -5.1862 (HOMO)
        12                         -0.0367546              -1.0001 (LUMO)
        13                          0.2488520               6.7716
        14                          0.2488644               6.7719
        15                          0.2495731               6.7912
        16                          0.2495917               6.7917
       ...                                ...                  ...
        20                          0.4418466              12.0233
      -------------------------------------------------------------
                  HL-Gap            0.1538360 Eh            4.1861 eV
             Fermi-level           -0.1136726 Eh           -3.0932 eV

 SCC (total)                   0 d,  0 h,  0 min,  0.082 sec
 SCC setup                      ...        0 min,  0.000 sec (  0.203%)
 Dispersion                     ...        0 min,  0.000 sec (  0.061%)
 classical contributions        ...        0 min,  0.000 sec (  0.029%)
 integral evaluation            ...        0 min,  0.079 sec ( 96.550%)
 iterations                     ...        0 min,  0.002 sec (  2.095%)
 molecular gradient             ...        0 min,  0.001 sec (  0.846%)
 printout                       ...        0 min,  0.000 sec (  0.191%)

         :::::::::::::::::::::::::::::::::::::::::::::::::::::
         ::                     SUMMARY                     ::
         :::::::::::::::::::::::::::::::::::::::::::::::::::::
         :: total energy             -13.152672823612 Eh    ::
         :: gradient norm              0.022175651355 Eh/a0 ::
         :: HOMO-LUMO gap              4.186090899132 eV    ::
         ::.................................................::
         :: SCC energy               -13.210973306064 Eh    ::
         :: -> isotropic ES            0.178877961468 Eh    ::
         :: -> anisotropic ES         -0.000427373847 Eh    ::
         :: -> anisotropic XC          0.002328799283 Eh    ::
         :: -> dispersion             -0.002071051894 Eh    ::
         :: repulsion energy           0.058300482452 Eh    ::
         :: add. restraining           0.000000000000 Eh    ::
         :: total charge              -1.000000000000 e     ::
         :::::::::::::::::::::::::::::::::::::::::::::::::::::


Property printout bound to 'properties.out'

           -------------------------------------------------
          | TOTAL ENERGY              -13.152672823612 Eh   |
          | GRADIENT NORM               0.022175651355 Eh/α |
          | HOMO-LUMO GAP               4.186090899132 eV   |
           -------------------------------------------------

------------------------------------------------------------------------
 * finished run on 2026/03/12 at 12:45:31.376     
------------------------------------------------------------------------
 total:
 * wall-time:     0 d,  0 h,  0 min,  0.098 sec
 *  cpu-time:     0 d,  0 h,  0 min,  0.430 sec
 * ratio c/w:     4.375 speedup
 SCF:
 * wall-time:     0 d,  0 h,  0 min,  0.082 sec
 *  cpu-time:     0 d,  0 h,  0 min,  0.371 sec
 * ratio c/w:     4.527 speedup


-------------------------   --------------------
FINAL SINGLE POINT ENERGY       -13.152672823610
-------------------------   --------------------


-------------
DIPOLE MOMENT
-------------
                                X             Y             Z
Total Dipole Moment    :      0.25800       0.14800       0.32000
                        -----------------------------------------
Magnitude (a.u.)       :      0.43688
Magnitude (Debye)      :      1.11047


------------------
CARTESIAN GRADIENT
------------------

   1   C   :    0.002644963    0.001550040   -0.019363709
   2   H   :    0.000137699    0.000398966    0.004273248
   3   H   :    0.000425534   -0.000087463    0.004286566
   4   H   :   -0.001938491   -0.001115505    0.005443864
   5   F   :   -0.000873072   -0.000513934   -0.000495311
   6   Cl  :   -0.000396633   -0.000232103    0.005855341

Difference to translation invariance:
           :    0.0000000000   -0.0000000000   -0.0000000000

Difference to rotation invariance:
           :    0.0000000951   -0.0000001629    0.0000000000

Norm of the Cartesian gradient     ...    0.0221756514
RMS gradient                       ...    0.0052268512
MAX gradient                       ...    0.0193637086
------------------------------------------------------------------------------
                         ORCA GEOMETRY RELAXATION STEP
------------------------------------------------------------------------------

Reading the OPT-File                    .... done
Getting information on internals        .... done
Copying old internal coords+grads       .... done
Making the new internal coordinates     .... (2022 redundants) done
Validating the new internal coordinates .... (2022 redundants) done
Calculating the B-matrix                .... done
Calculating the G,G- and P matrices     .... done
Transforming gradient to internals      .... done
Projecting the internal gradient        .... done
Number of atoms                         ....   6
Number of internal coordinates          ....  21
Current Energy                          ....   -13.152672824 Eh
Current gradient norm                   ....     0.022175651 Eh/bohr
Maximum allowed component of the step   ....  0.300
Current trust radius                    ....  0.200
Updating the Hessian (BFGS)             .... done
Forming the augmented Hessian           .... done
Diagonalizing the augmented Hessian     .... done
Last element of RFO vector              ....  0.882458267
Lowest eigenvalues of augmented Hessian:
 -0.003245209  0.008371269  0.039422976  0.043359146  0.060042978
Length of the computed step             ....  0.533045826
Warning: the length of the step is outside the trust region - taking restricted step instead
The input lambda is                     ....     0.004887
   iter:   5  x=   -0.001560  g=  363.053642 f(x)=     0.880802
   iter:  10  x=   -0.019784  g=    3.357427 f(x)=     0.004725
The output lambda is                    ....    -0.019915 (14 iterations)
The final length of the internal step   ....  0.200000000
Converting the step to Cartesian space:
 Initial RMS(Int)=    0.0436435780
Transforming coordinates:
 Iter   0:  RMS(Cart)=    0.0320149083 RMS(Int)=    0.0424097640
 Iter   5:  RMS(Cart)=    0.0007787495 RMS(Int)=    0.0006612307
 Iter  10:  RMS(Cart)=    0.0000575571 RMS(Int)=    0.0000488574
 Iter  15:  RMS(Cart)=    0.0000042582 RMS(Int)=    0.0000036145
 Iter  20:  RMS(Cart)=    0.0000003151 RMS(Int)=    0.0000002674
done
Storing new coordinates                 .... done
The predicted energy change is          ....    -0.001150709
Previously predicted energy change      ....    -0.001357388
Actually observed energy change         ....    -0.001585616
Ratio of predicted to observed change   ....     1.168138142
New trust radius                        ....     0.300000000

                                .--------------------.
          ----------------------|Geometry convergence|-------------------------
          Item                value                   Tolerance       Converged
          ---------------------------------------------------------------------
          Energy change      -0.0015856164            0.0000050000      NO
          RMS gradient        0.0024888182            0.0001000000      NO
          MAX gradient        0.0064294409            0.0003000000      NO
          RMS step            0.0436435780            0.0020000000      NO
          MAX step            0.1039809824            0.0040000000      NO
          -------------------------------------------------------------------------
          ........................................................
          Max(Bonds)      0.0550      Max(Angles)    4.11
          Max(Dihed)        0.00      Max(Improp)    0.00
          ---------------------------------------------------------------------

The optimization has not yet converged - more geometry cycles are needed


    ---------------------------------------------------------------------------
                         Redundant Internal Coordinates
                            (Angstroem and degrees)

        Definition                    Value    dE/dq     Step     New-Value
    ----------------------------------------------------------------------------
     1. B(H   1,C   0)                1.0710  0.001269 -0.0006    1.0704   
     2. B(H   2,C   0)                1.0711  0.001288 -0.0006    1.0705   
     3. B(H   3,C   0)                1.0736  0.003434  0.0020    1.0756   
     4. B(F   4,H   3)                2.0713 -0.002128  0.0250    2.0963   
     5. B(F   4,C   0)                1.9033  0.003418 -0.0550    1.8483   
     6. B(F   4,H   2)                2.0962 -0.001199 -0.0335    2.0627   
     7. B(F   4,H   1)                2.0964 -0.001188 -0.0339    2.0625   
     8. B(Cl  5,H   2)                2.4619  0.000189  0.0054    2.4673   
     9. B(Cl  5,H   3)                2.4585  0.000253  0.0134    2.4719   
    10. B(Cl  5,H   1)                2.4619  0.000189  0.0053    2.4672   
    11. B(Cl  5,C   0)                2.1095 -0.006429  0.0425    2.1520   
    12. A(H   1,C   0,H   3)          119.07 -0.000837    0.45    119.52   
    13. A(H   2,C   0,H   3)          119.07 -0.000835    0.44    119.51   
    14. A(H   1,C   0,Cl  5)           95.89  0.003085   -2.07     93.82   
    15. A(H   2,C   0,Cl  5)           95.89  0.003079   -2.07     93.82   
    16. A(H   3,C   0,Cl  5)           95.60  0.002457   -1.64     93.96   
    17. A(H   1,C   0,F   4)           84.73 -0.002554    0.80     85.53   
    18. A(H   2,C   0,F   4)           84.71 -0.002564    0.82     85.53   
    19. A(H   3,C   0,F   4)           83.19 -0.003492    4.11     87.29   
    20. A(F   4,C   0,Cl  5)          178.78 -0.001036    2.47    181.25   
    21. A(H   1,C   0,H   2)          118.84 -0.001297    1.41    120.25   
    ----------------------------------------------------------------------------

Geometry step timings:
Preparation and reading OPT file:      0.000 s ( 2.617 %)
Internal coordinates            :      0.000 s ( 3.271 %)
B/P matrices and projection     :      0.000 s (11.365 %)
Hessian update/contruction      :      0.000 s (29.845 %)
Making the step                 :      0.000 s (13.410 %)
[...]
                  HL-Gap            0.3682054 Eh           10.0194 eV
             Fermi-level            0.0008465 Eh            0.0230 eV

 SCC (total)                   0 d,  0 h,  0 min,  0.125 sec
 SCC setup                      ...        0 min,  0.000 sec (  0.206%)
 Dispersion                     ...        0 min,  0.000 sec (  0.073%)
 classical contributions        ...        0 min,  0.000 sec (  0.033%)
 integral evaluation            ...        0 min,  0.123 sec ( 98.568%)
 iterations                     ...        0 min,  0.001 sec (  0.675%)
 molecular gradient             ...        0 min,  0.000 sec (  0.345%)
 printout                       ...        0 min,  0.000 sec (  0.085%)

         :::::::::::::::::::::::::::::::::::::::::::::::::::::
         ::                     SUMMARY                     ::
         :::::::::::::::::::::::::::::::::::::::::::::::::::::
         :: total energy             -13.191987061579 Eh    ::
         :: gradient norm              0.000035634077 Eh/a0 ::
         :: HOMO-LUMO gap             10.019379046815 eV    ::
         ::.................................................::
         :: SCC energy               -13.251542875717 Eh    ::
         :: -> isotropic ES            0.165404721176 Eh    ::
         :: -> anisotropic ES         -0.000795211231 Eh    ::
         :: -> anisotropic XC         -0.001560552394 Eh    ::
         :: -> dispersion             -0.001855943700 Eh    ::
         :: repulsion energy           0.059555814138 Eh    ::
         :: add. restraining           0.000000000000 Eh    ::
         :: total charge              -1.000000000000 e     ::
         :::::::::::::::::::::::::::::::::::::::::::::::::::::

           ------------------------------------------------- 
          |                Numerical Hessian                |
           ------------------------------------------------- 
step length          :   0.00500
SCC accuracy         :   0.30000
Hessian scale factor :   1.00000
frozen atoms in %    :   0.00000    0
RMS gradient         :   0.00004
estimated CPU  time      0.00 min
estimated wall time      0.00 min

writing file <hessian>.

 projected vibrational frequencies (cm⁻¹)
eigval :       -0.00    -0.00     0.00     0.00     0.00     0.00
eigval :       78.24    78.28   108.78   996.04  1090.74  1090.78
eigval :     1376.83  1452.16  1452.27  3050.24  3055.19  3055.40

Property printout bound to 'properties.out'
Refinement of some symmetry elements was terminated before convergence was reached.
Some symmetry elements may remain unidentified.
Molecule has the following symmetry elements: (C3) 3*(sigma) 
It seems to be the C3v point group

           -------------------------------------------------
          | TOTAL ENERGY              -13.191987061579 Eh   |
          | TOTAL ENTHALPY            -13.147361966215 Eh   |
          | TOTAL FREE ENERGY         -13.181326123367 Eh   |
          | GRADIENT NORM               0.000035640879 Eh/α |
          | HOMO-LUMO GAP              10.019378153070 eV   |
           -------------------------------------------------

------------------------------------------------------------------------
 * finished run on 2026/03/12 at 12:45:34.689     
------------------------------------------------------------------------
 total:
 * wall-time:     0 d,  0 h,  0 min,  0.196 sec
 *  cpu-time:     0 d,  0 h,  0 min,  0.726 sec
 * ratio c/w:     3.694 speedup
 SCF:
 * wall-time:     0 d,  0 h,  0 min,  0.125 sec
 *  cpu-time:     0 d,  0 h,  0 min,  0.560 sec
 * ratio c/w:     4.466 speedup
 analytical hessian:
 * wall-time:     0 d,  0 h,  0 min,  0.010 sec
 *  cpu-time:     0 d,  0 h,  0 min,  0.075 sec
 * ratio c/w:     7.860 speedup


-------------------------   --------------------
FINAL SINGLE POINT ENERGY       -13.191987061580
-------------------------   --------------------


-------------
DIPOLE MOMENT
-------------
                                X             Y             Z
Total Dipole Moment    :      0.11400       0.06400       3.76600
                        -----------------------------------------
Magnitude (a.u.)       :      3.76827
Magnitude (Debye)      :      9.57818


-----------------------
VIBRATIONAL FREQUENCIES
-----------------------

Scaling factor for frequencies =  1.000000000  (already applied!)

     0:       0.00 cm**-1
     1:       0.00 cm**-1
     2:       0.00 cm**-1
     3:       0.00 cm**-1
     4:       0.00 cm**-1
     5:       0.00 cm**-1
     6:      78.24 cm**-1
     7:      78.28 cm**-1
     8:     108.78 cm**-1
     9:     996.04 cm**-1
    10:    1090.71 cm**-1
    11:    1090.76 cm**-1
    12:    1376.79 cm**-1
    13:    1452.12 cm**-1
    14:    1452.23 cm**-1
    15:    3050.15 cm**-1
    16:    3055.10 cm**-1
    17:    3055.31 cm**-1


------------
NORMAL MODES
------------

These modes are the Cartesian displacements weighted by the diagonal matrix
M(i,i)=1/sqrt(m[i]) where m[i] is the mass of the displaced atom
Thus, these vectors are normalized but *not* orthogonal

                  0          1          2          3          4          5    
      0       0.000000   0.000000   0.000000   0.000000   0.000000   0.000000
      1       0.000000   0.000000   0.000000   0.000000   0.000000   0.000000
      2       0.000000   0.000000   0.000000   0.000000   0.000000   0.000000
      3       0.000000   0.000000   0.000000   0.000000   0.000000   0.000000
      4       0.000000   0.000000   0.000000   0.000000   0.000000   0.000000
      5       0.000000   0.000000   0.000000   0.000000   0.000000   0.000000
      6       0.000000   0.000000   0.000000   0.000000   0.000000   0.000000
      7       0.000000   0.000000   0.000000   0.000000   0.000000   0.000000
      8       0.000000   0.000000   0.000000   0.000000   0.000000   0.000000
      9       0.000000   0.000000   0.000000   0.000000   0.000000   0.000000
     10       0.000000   0.000000   0.000000   0.000000   0.000000   0.000000
     11       0.000000   0.000000   0.000000   0.000000   0.000000   0.000000
     12       0.000000   0.000000   0.000000   0.000000   0.000000   0.000000
     13       0.000000   0.000000   0.000000   0.000000   0.000000   0.000000
     14       0.000000   0.000000   0.000000   0.000000   0.000000   0.000000
     15       0.000000   0.000000   0.000000   0.000000   0.000000   0.000000
     16       0.000000   0.000000   0.000000   0.000000   0.000000   0.000000
     17       0.000000   0.000000   0.000000   0.000000   0.000000   0.000000
                  6          7          8          9         10         11    
      0       0.319357  -0.073494   0.012270   0.017065  -0.066412   0.119999
      1       0.073357   0.319518   0.006320   0.009791   0.120068   0.066354
      2       0.010917   0.003126  -0.414031  -0.549408   0.000069   0.004952
      3       0.436972  -0.113372   0.011943   0.012835   0.145729  -0.215171
      4       0.102037   0.444441   0.004718   0.017007  -0.117879  -0.064917
      5       0.103339   0.386012  -0.410689  -0.417979  -0.654397  -0.371990
      6       0.438145  -0.099642   0.010982   0.021272   0.023182  -0.165064
      7       0.091452   0.448939   0.006368   0.002901  -0.190443  -0.146912
      8       0.301506  -0.262674  -0.409265  -0.418306   0.641008  -0.394276
      9       0.460873  -0.094479   0.012743   0.004310   0.126591  -0.153615
     10       0.113345   0.443197   0.006325   0.002878  -0.225887  -0.083356
     11      -0.358809  -0.109751  -0.407985  -0.417748   0.012760   0.744688
     12      -0.175210   0.040340   0.013098  -0.012873   0.026038  -0.047051
     13      -0.040240  -0.175301   0.008033  -0.007435  -0.047078  -0.026019
     14      -0.006387  -0.002193  -0.410625   0.415211  -0.000011  -0.001968
     15      -0.052290   0.012025  -0.012190   0.000025   0.000145  -0.000263
     16      -0.012013  -0.052313  -0.006941   0.000019  -0.000262  -0.000144
     17      -0.001585  -0.000270   0.395220  -0.000710   0.000000  -0.000010
                 12         13         14         15         16         17    
      0       0.003548   0.020215   0.061323  -0.002848   0.041620   0.079258
      1       0.002006  -0.061360   0.020201  -0.001604  -0.079347   0.041563
      2      -0.115893  -0.000349   0.002162   0.038705  -0.000157   0.004068
      3      -0.016090  -0.222964  -0.704978   0.005116   0.028780   0.035674
      4       0.191713  -0.114366   0.039056   0.561136   0.683027  -0.346944
      5       0.539753  -0.310856   0.078927  -0.165474  -0.221595   0.114467
      6       0.158218   0.320529  -0.210129   0.488262  -0.580665  -0.328842
      7      -0.109932   0.374211  -0.523858  -0.277531   0.300635   0.229379
      8       0.540223   0.253338   0.195697  -0.165772   0.211913   0.131627
      9      -0.191486  -0.385468   0.041898  -0.457405   0.048446  -0.665521
     10      -0.109716   0.613873   0.197182  -0.263374  -0.023861  -0.385176
     11       0.529533   0.062991  -0.305790  -0.186312   0.011602  -0.296431
     12       0.000364   0.002350   0.007119  -0.000102   0.000446   0.000848
     13       0.000205  -0.007121   0.002343  -0.000057  -0.000851   0.000445
     14      -0.011719  -0.000065   0.000270   0.002725  -0.000003   0.000097
     15       0.000006   0.000078   0.000237  -0.000003  -0.000025  -0.000049
     16       0.000005  -0.000238   0.000078  -0.000001   0.000049  -0.000026
     17      -0.000219  -0.000003   0.000009   0.000142   0.000000   0.000001


The first frequency considered to be a vibration is 6
The total number of vibrations considered is 12


--------------------------
THERMOCHEMISTRY AT 298.15K
--------------------------

Temperature         ...   298.15 K
Pressure            ...     1.00 atm
Total Mass          ...    69.49 AMU
Quasi RRHO          ...     True
Cut-Off Frequency   ...     1.00 cm^-1

Throughout the following assumptions are being made:
  (1) The electronic state is orbitally nondegenerate
  (2) There are no thermally accessible electronically excited states
  (3) Hindered rotations indicated by low frequency modes are not
      treated as such but are treated as vibrations and this may
      cause some error
  (4) All equations used are the standard statistical mechanics
      equations for an ideal gas
  (5) All vibrations are strictly harmonic

freq.      78.24  E(vib)   ...       0.49 
freq.      78.28  E(vib)   ...       0.49 
freq.     108.78  E(vib)   ...       0.45 
freq.     996.04  E(vib)   ...       0.02 
freq.    1090.71  E(vib)   ...       0.02 
freq.    1090.76  E(vib)   ...       0.02 
freq.    1376.79  E(vib)   ...       0.01 
freq.    1452.12  E(vib)   ...       0.00 
freq.    1452.23  E(vib)   ...       0.00 
freq.    3050.15  E(vib)   ...       0.00 
freq.    3055.10  E(vib)   ...       0.00 
freq.    3055.31  E(vib)   ...       0.00 

------------
INNER ENERGY
------------

The inner energy is: U= E(el) + E(ZPE) + E(vib) + E(rot) + E(trans)
    E(el)   - is the total energy from the electronic structure calculation
              = E(kin-el) + E(nuc-el) + E(el-el) + E(nuc-nuc)
    E(ZPE)  - the the zero temperature vibrational energy from the frequency calculation
    E(vib)  - the the finite temperature correction to E(ZPE) due to population
              of excited vibrational states
    E(rot)  - is the rotational thermal energy
    E(trans)- is the translational thermal energy

Summary of contributions to the inner energy U:
Electronic energy                ...    -13.19198706 Eh
Zero point energy                ...      0.03846577 Eh      24.14 kcal/mol
Thermal vibrational correction   ...      0.00238152 Eh       1.49 kcal/mol
Thermal rotational correction    ...      0.00141627 Eh       0.89 kcal/mol
Thermal translational correction ...      0.00141627 Eh       0.89 kcal/mol
-----------------------------------------------------------------------
Total thermal energy                    -13.14830723 Eh


Summary of corrections to the electronic energy:
(perhaps to be used in another calculation)
Total thermal correction                  0.00521406 Eh       3.27 kcal/mol
Non-thermal (ZPE) correction              0.03846577 Eh      24.14 kcal/mol
-----------------------------------------------------------------------
Total correction                          0.04367983 Eh      27.41 kcal/mol


--------
ENTHALPY
--------

The enthalpy is H = U + kB*T
                kB is Boltzmann's constant
Total thermal energy              ...    -13.14830723 Eh 
Thermal Enthalpy correction       ...      0.00094421 Eh       0.59 kcal/mol
-----------------------------------------------------------------------
Total Enthalpy                    ...    -13.14736302 Eh


WARNING (ORCA/SYM): The number of Z matrix atoms does not agree with
the number of centers in the basis set. The point group will therefore
be determined without considering basis set information.


Note: Rotational entropy computed according to Herzberg 
Infrared and Raman Spectra, Chapter V,1, Van Nostrand Reinhold, 1945 
Point Group:  Cs, Symmetry Number:   1  
Rotational constants in cm-1:     5.270091     0.062357     0.062357 

Vibrational entropy computed according to the QRRHO of S. Grimme
Chem.Eur.J. 2012 18 9955 using a reference frequency of 100.0 cm-1


-------
ENTROPY
-------

The entropy contributions are T*S = T*(S(el)+S(vib)+S(rot)+S(trans))
     S(el)   - electronic entropy
     S(vib)  - vibrational entropy
     S(rot)  - rotational entropy
     S(trans)- translational entropy
The entropies will be listed as multiplied by the temperature to get
units of energy

Electronic entropy                ...      0.00000000 Eh      0.00 kcal/mol
Vibrational entropy               ...      0.00475076 Eh      2.98 kcal/mol
Rotational entropy                ...      0.01134616 Eh      7.12 kcal/mol
Translational entropy             ...      0.01835566 Eh     11.52 kcal/mol
-----------------------------------------------------------------------
Final entropy term                ...      0.03445258 Eh     21.62 kcal/mol

In case the symmetry of your molecule has not been determined correctly
or in case you have a reason to use a different symmetry number we print 
out the resulting rotational entropy values for sn=1,12:

 non-linear molecules -----------------------------------
|  sn= 1 | S(rot)=       0.01134616 Eh      7.12 kcal/mol|
|  sn= 2 | S(rot)=       0.01069171 Eh      6.71 kcal/mol|
|  sn= 3 | S(rot)=       0.01030887 Eh      6.47 kcal/mol|
|  sn= 4 | S(rot)=       0.01003725 Eh      6.30 kcal/mol|
|  sn= 5 | S(rot)=       0.00982656 Eh      6.17 kcal/mol|
|  sn= 6 | S(rot)=       0.00965442 Eh      6.06 kcal/mol|
|  sn= 7 | S(rot)=       0.00950887 Eh      5.97 kcal/mol|
|  sn= 8 | S(rot)=       0.00938279 Eh      5.89 kcal/mol|
|  sn= 9 | S(rot)=       0.00927158 Eh      5.82 kcal/mol|
|  sn=10 | S(rot)=       0.00917211 Eh      5.76 kcal/mol|
|  sn=11 | S(rot)=       0.00908212 Eh      5.70 kcal/mol|
|  sn=12 | S(rot)=       0.00899996 Eh      5.65 kcal/mol|
 linear molecules ---------------------------------------
|  Dinfh | S(rot)=       0.00794580 Eh      4.99 kcal/mol|
|  Cinfv | S(rot)=       0.00860025 Eh      5.40 kcal/mol|
 --------------------------------------------------------


-------------------
GIBBS FREE ENERGY
-------------------

The Gibbs free energy is G = H - T*S

Total enthalpy                    ...    -13.14736302 Eh 
Total entropy correction          ...     -0.03445258 Eh    -21.62 kcal/mol
-----------------------------------------------------------------------
Final Gibbs free energy         ...    -13.18181560 Eh

For completeness - the Gibbs free energy minus the electronic energy
G-E(el)                           ...      0.01017146 Eh      6.38 kcal/mol


--------------------------------
SUGGESTED CITATIONS FOR THIS RUN
--------------------------------

Below you find a list of papers that are relevant to this ORCA run
We neither can nor want to force you to cite these papers, but we appreciate if you do
You receive ORCA, which is the product of decades of hard work by many enthusiastic individuals, for free
The only thing we kindly ask in return is that you cite our papers,
We deeply appreciate it, if you show your appreciation for ORCA by not just citing the generic ORCA reference.

Please note that relegating all ORCA citations to the supporting information does *not* help us.
SI sections are not indexed - citations you put there will not count into any citation statistics
But we need these citations in order to attract the funding resources that allow us to do what we are doing

Therefore, if you are a happy ORCA user, please consider citing a few of the papers listed below in the main body of your paper

In addition to the list printed below, the program has created the file reactant_optfreq.bibtex that contains the list in bibtex format
You can import this file easily into all common literature databanks and citation aid programs


List of essential papers. We consider these as the minimum necessary citations

  1. Bannwarth, C.; Ehlert, S.; Grimme, S.
     GFN2-xTB—An Accurate and Broadly Parametrized Self-Consistent Tight-Binding Quantum Chemical Method with Multipole Electrostatics and Density-Dependent Dispersion Contributions
     J. Chem. Theory Comput. 2019 15(3), 1652-1671
     doi.org/10.1021/acs.jctc.8b01176
  2. Neese, F.
     Software update: the ORCA program system, version 6.0
     WIRES Comput. Molec. Sci. 2025 15(1), e70019
     doi.org/10.1002/wcms.7019

List of papers to cite with high priority. The work reported in these papers was absolutely
necessary for this run to complete.
Our perspective: the developers of density functionals and basis sets usually get cited in chemistry papers
Good! But without the algorithms to do something with them, the functionals or basis sets would not do anything.
Hence, in our opinion, the algorithm design and method developments papers are equally worthy of getting cited

  1. Bykov, D.; Petrenko, T.; Izsak, R.; Kossmann, S.; Becker, U.; Valeev, E.; Neese, F.
     Efficient implementation of the analytic second derivatives of Hartree-Fock and hybrid DFT energies: a detailed analysis of different approximations
     Molec. Phys. 2015 113 , 1961-1977
     doi.org/10.1080/00268976.2015.1025114
  2. Bannwarth, C.; Caldeweyher, E.; Ehlert, S.; Hansen, A.; Pracht, P.; Seibert, J.; Spicher, S.; Grimme, S.
     Extended tight-binding quantum chemistry methods
     WIRES Comput. Molec. Sci. 2020 11(2), e1493
     doi.org/10.1002/wcms.1493

List of suggested additional citations. These are papers that are important in the 'surrounding' of 
of this run, or papers that preceded the highly important papers. If you like your results we are grateful for a citation.

  1. Neese, F.
     The ORCA program system
     WIRES Comput. Molec. Sci. 2012 2(1), 73-78
     doi.org/10.1002/wcms.81
  2. Neese, F.
     Software update: the ORCA program system, version 4.0
     WIRES Comput. Molec. Sci. 2018 8(1), 1-6
     doi.org/10.1002/wcms.1327
  3. Neese, F.; Wennmohs, F.; Becker, U.; Riplinger, C.
     The ORCA quantum chemistry program package
     J. Chem. Phys. 2020 152(22), 224108
     doi.org/10.1063/5.0004608
  4. Neese, F.
     Software update: The ORCA program system—Version 5.0
     WIRES Comput. Molec. Sci. 2022 12(1), e1606
     doi.org/10.1002/wcms.1606

List of optional additional citations

  1. Neese, F.
     Approximate second-order SCF convergence for spin unrestricted wavefunctions
     Chem. Phys. Lett. 2000 325(1-3), 93-98
     doi.org/10.1016/s0009-2614(00)00662-x

Timings for individual modules:

Sum of individual times          ...        3.685 sec (=   0.061 min)
Geometry relaxation              ...        0.046 sec (=   0.001 min)   1.2 %
XTB module                       ...        3.639 sec (=   0.061 min)  98.8 %
                             ****ORCA TERMINATED NORMALLY****
TOTAL RUN TIME: 0 days 0 hours 0 minutes 4 seconds 181 msec
