
                                 *****************
                                 * O   R   C   A *
                                 *****************

                                            #,                                       
                                            ###                                      
                                            ####                                     
                                            #####                                    
                                            ######                                   
                                           ########,                                 
                                     ,,################,,,,,                         
                               ,,#################################,,                 
                          ,,##########################################,,             
                       ,#########################################, ''#####,          
                    ,#############################################,,   '####,        
                  ,##################################################,,,,####,       
                ,###########''''           ''''###############################       
              ,#####''   ,,,,##########,,,,          '''####'''          '####       
            ,##' ,,,,###########################,,,                        '##       
           ' ,,###''''                  '''############,,,                           
         ,,##''                                '''############,,,,        ,,,,,,###''
      ,#''                                            '''#######################'''  
     '                                                          ''''####''''         
             ,#######,   #######,   ,#######,      ##                                
            ,#'     '#,  ##    ##  ,#'     '#,    #''#        ,####,    ,#,          
            ##       ##  ##   ,#'  ##            #'  '#       #'       ,# #          
            ##       ##  #######   ##           ,######,      #####,      #          
            '#,     ,#'  ##    ##  '#,     ,#' ,#      #,     #,   #      #          
             '#######'   ##     ##  '#######'  #'      '#     '####' #    #          



                #########################################################
                #                        -***-                          #
                #          Department of theory and spectroscopy        #
                #                                                       #
                #                      Frank Neese                      #
                #                                                       #
                #     Directorship, Architecture, Infrastructure        #
                #                    SHARK, DRIVERS                     #
                #        Core code/Algorithms in most modules           #
                #                                                       #
                #        Max Planck Institute fuer Kohlenforschung      #
                #                Kaiser Wilhelm Platz 1                 #
                #                 D-45470 Muelheim/Ruhr                 #
                #                      Germany                          #
                #                                                       #
                #                  All rights reserved                  #
                #                        -***-                          #
                #########################################################


                         Program Version 6.1.0  -  RELEASE   -
                                (GIT: $679e74b$)
                          ($2025-06-10 18:02:51 +0200$)


 With contributions from (in alphabetic order):
[Max-Planck-Institut fuer Kohlenforschung]                               
  Daniel Aravena         : Magnetic Suceptibility                        
  Michael Atanasov       : Ab Initio Ligand Field Theory (pilot matlab implementation)
  Alexander A. Auer      : GIAO ZORA, VPT2 properties, NMR spectrum      
  Ute Becker             : All parallelization in ORCA, NUMFREQ, NUMCALC 
  Giovanni Bistoni       : ED, misc. LED, open-shell LED, HFLD           
  Dmytro Bykov           : pre 5.0 version of the SCF Hessian            
  Marcos Casanova-Páez   : Triplet and SCS-CIS(D). UHF-(DLPNO)-IP/EA/STEOM-CCSD. UHF-CVS-IP/STEOM-CCSD   
  Vijay G. Chilkuri      : MRCI spin determinant printing, contributions to CSF-ICE 
  Pauline Colinet        : FMM embedding                                 
  Dipayan Datta          : RHF DLPNO-CCSD density                        
  Achintya Kumar Dutta   : EOM-CC, STEOM-CC                              
  Nicolas Foglia         : Exact transition moments, OPA infrastructure, MCD improvements    
  Dmitry Ganyushin       : Spin-Orbit,Spin-Spin,Magnetic field MRCI      
  Miquel Garcia-Rates    : C-PCM and meta-GGA Hessian, CCSD/C-PCM, Gaussian charge scheme 
  Tiago L. C. Gouveia    : GS-ROHF, GS-ROCIS                             
  Yang Guo               : DLPNO-NEVPT2, F12-NEVPT2, CIM, IAO-localization        
  Andreas Hansen         : Spin unrestricted coupled pair/coupled cluster methods 
  Ingolf Harden          : AUTO-CI MPn and infrastructure                
  Benjamin Helmich-Paris : MC-RPA, TRAH-(SCF,CASSCF), AVAS, COSX integrals, SCF dyn. polar., MC-PDFT, srDFT 
  Lee Huntington         : MR-EOM, pCC                                   
  Robert Izsak           : Overlap fitted RIJCOSX, COSX-SCS-MP3, EOM     
  Riya Kayal             : Wick's Theorem for AUTO-CI, AUTO-CI UHF-CCSDT 
  Emily Kempfer          : AUTO-CI RHF CISDT and CCSDT, approximate NEVPT4
  Christian Kollmar      : KDIIS, OOCD, Brueckner-CCSD(T), CCSD density, CASPT2, CASPT2-K, improved NEVPT2 
  Axel Koslowski         : Symmetry handling                             
  Simone Kossmann        : meta-GGA functionals, TD-DFT gradient, OOMP2, (MP2 Hessian; deprecated post 5.0) 
  Lucas Lang             : DCDCAS, Hyperfine gauge corrections, ICE-SOC+SSC
  Marvin Lechner         : AUTO-CI (C++ implementation), FIC-MRCC        
  Spencer Leger          : CASSCF response                               
  Dagmar Lenk            : GEPOL surface, SMD, ORCA-2-JSON               
  Dimitrios Liakos       : Extrapolation schemes; Compound Job, Property file
  Dimitrios Manganas     : Further ROCIS development; embedding schemes. LFT, Crystal Embedding 
  Dimitrios Pantazis     : SARC Basis sets                               
  Anastasios Papadopoulos: AUTO-CI, single reference methods and gradients 
  Taras Petrenko         : pre 6.0 DFT Hessian and TD-DFT gradient,  ECA, NRVS 
  Petra Pikulova         : Analytic Raman intensities                    
  Peter Pinski           : DLPNO-MP2, DLPNO-MP2 Gradient                 
  Shashank Vittal Rao    : ES-AILFT, MagRelax                            
  Christoph Reimann      : Effective Core Potentials                     
  Marius Retegan         : Local ZFS, SOC                                
  Christoph Riplinger    : Optimizer, TS searches, QM/MM, DLPNO-CCSD(T), (RO)-DLPNO pert. Triples 
  Michael Roemelt        : Original ROCIS implementation, recursive CI coupling coefficients
  Masaaki Saitow         : Open-shell DLPNO-CCSD energy and density      
  Barbara Sandhoefer     : DKH picture change effects                    
  Yorick L. A. Schmerwitz: GMF and freeze-and-release deltaSCF, NEB S-IDPP initial path                    
  Kantharuban Sivalingam : CASSCF convergence/infrastructure, NEVPT2, NEVPT3, NEVPT4(SD), FIC-MRCI and CEPA variants
  Bernardo de Souza      : ESD, SOC TD-DFT                               
  Georgi L. Stoychev     : AutoAux, RI-MP2 NMR, DLPNO-MP2 response, X2C  
  Van Anh Tran           : RI-MP2 g-tensors                              
  Willem Van den Heuvel  : Paramagnetic NMR                              
  Zikuan Wang            : NOTCH, Electric field optimization            
  Frank Wennmohs         : Technical directorship and infrastructure     
  Hang Xu                : AUTO-CI-Response properties                   
                                                                         
[FACCTs GmbH]                                                            
  Markus Bursch, Nicolas Foglia, Miquel Garcia-Rates, Ingolf Harden, Hagen Neugebauer, Anastasios Papadopoulos, 
  Christoph Riplinger, Bernardo de Souza, Georgi L. Stoychev                                                    
                                                                 
  APM, various basis sets, CI-OPT, improved COSX, DLPNO-Multilevel,           
  DOCKER, DRACO, updates on ESD, Fragmentator, GOAT, IRC, LR-CPCM, L-BFGS, MBIS, meta-GGA TD-DFT gradient, ML-optimized integration grids, 
  MM, NACMEs, nearIR, NEB, NEB-TS, NL-DFT gradient (VV10), 2- and 3-layer-ONIOM, interface openCOSMO-RS, QMMM,   
  Crystal-QMMM, RESP, rigid body optimization, SF, symmetry and pop. for TD-DFT, various functionals, SOLVATOR                                   
                                                                         
[Other institutions]                                                     
  V. Asgeirsson          : NEB                                           
  Christoph Bannwarth    : sTDA-DFT, sTD-DFT, PBEh-3c, B97-3c, D3        
  Giovanni Bistoni       : ETS/NOCV, ADLD/ADEX, COVALED                  
  Martin Brehm           : Molecular dynamics                            
  Ronald Cardenas        : ETS/NOCV                                      
  Martina Colucci        : COVALED                                       
  Sebastian Ehlert       : rSCAN, r2SCAN, r2SCAN-3c, D4, dhf basis sets  
  Marvin Friede          : D4 for Fr, Ra, Ac-Lr                          
  Lars Goerigk           : TD-DFT with DH, B97 family of functionals     
  Stefan Grimme          : VdW corrections, initial TS optimization, DFT functionals, gCP, sTDA/sTD-DF 
  Waldemar Hujo          : DFT-NL                                        
  H. Jonsson             : NEB                                           
  Holger Kruse           : gCP                                           
  Marcel Mueller         : wB97X-3c, vDZP basis set                      
  Hagen Neugebauer       : wr2SCAN, Native XTB                           
  Gianluca Regni         : ADLD/ADEX                                     
  Tobias Risthaus        : pre 6.0 range-separated hybrid DFT and stability analysis
  Lukas Wittmann         : regularized MP2, r2SCAN double-hybrids, wr2SCAN        
                                                                         
We gratefully acknowledge several colleagues who have allowed us to      
interface, adapt or use parts of their codes:                            
  Ed Valeev, F. Pavosevic, A. Kumar             : LibInt (2-el integral package), F12 methods 
  Garnet Chan, S. Sharma, J. Yang, R. Olivares  : DMRG                   
  Ulf Ekstrom                                   : XCFun DFT Library      
  Mihaly Kallay                                 : mrcc  (arbitrary order and MRCC methods)
  Frank Weinhold                                : gennbo (NPA and NBO analysis)           
  Simon Mueller                                 : openCOSMO-RS                            
  Christopher J. Cramer and Donald G. Truhlar   : smd solvation model                     
  S Lehtola, MJT Oliveira, MAL Marques          : LibXC Library                           
  Liviu Ungur et al                             : ANISO software                          


 Your calculation uses the libint2 library for the computation of 2-el integrals
 For citations please refer to: http://libint.valeyev.net

 Your ORCA version has been built with support for libXC version: 7.0.0
 For citations please refer to: https://libxc.gitlab.io

 This ORCA versions uses:
   CBLAS   interface :  Fast vector & matrix operations
   LAPACKE interface :  Fast linear algebra routines
   SCALAPACK package :  Parallel linear algebra routines
   Shared memory     :  Shared parallel matrices
   BLAS/LAPACK       :  OpenBLAS 0.3.29  USE64BITINT DYNAMIC_ARCH NO_AFFINITY SkylakeX SINGLE_THREADED
        Core in use  :  SkylakeX
   Copyright (c) 2011-2014, The OpenBLAS Project


  ***********************************
  * Starting time: Mon Mar 16 14:18:45 2026
  * Host name:     midway3-login4.rcc.local
  * Process ID:    115813
  * Working dir.:  /home/rzhu16/evans-polanyi-principle-validation/runs/sn2_br_i/geo_opt_reactant_product
  ***********************************

Your calculation utilizes the semiempirical GFN2-xTB method
Please cite in your paper:
Bannwarth, C.; Ehlert S.; Grimme, S. J. Chem. Theory Comput. 2019, 15, 1652.
   

================================================================================

cite the ECPs for I  [Def2-ECP] as follows:
Ce-Yb(ecp-28): M. Dolg, H. Stoll, H.Preuss, J. Chem. Phys., 1989, 90, 1730-1734.
Y-Cd(ecp-28), Hf-Hg(ecp-46): D. Andrae,U. Haeussermann, M. Dolg, H. Stoll, H. Preuss, Theor. Chim. Acta, 1990, 77, 123-141.
In-Sb(ecp-28), Tl-Bi(ecp-46): B. Metz, H. Stoll, M. Dolg, J. Chem. Phys., 2000, 113, 2563-2569.
Te-Xe(ecp-28), Po-Rn(ecp-46): K. A. Peterson, D. Figgen, E. Goll, H. Stoll, M. Dolg, J. Chem. Phys., 2003, 119, 11113-11123.
Rb(ecp-28), Cs(ecp-46): T. Leininger, A. Nicklass, W. Kuechle, H. Stoll, M. Dolg, A. Bergner, Chem. Phys. Lett., 1996, 255, 274-280.
Sr(ecp-28), Ba(ecp-46): M. Kaupp, P. V. Schleyer, H. Stoll and H. Preuss, J. Chem. Phys., 1991, 94, 1360-1366.
La(ecp-46): M. Dolg, H. Stoll, A. Savin, H. Preuss, Theor. Chim. Acta, 1989, 75, 173-194.
Lu(ecp-28): X. Cao, M. Dolg, J. Chem. Phys., 2001, 115, 7348-7355.

ECP parameters for I  [Def2-ECP] have been obtained from:
TURBOMOLE (7.0.2)

================================================================================
                                        WARNINGS
                       Please study these warnings very carefully!
================================================================================


WARNING: Analytical Hessian for XTB is limited in the analysis of the data.
       : If you want to obtain extensive IR and deltaG analysis, please use ! XTB NumFreq. 


WARNING: Geometry Optimization
  ===> : Switching off AutoStart
         For restart on a previous wavefunction, please use MOREAD

WARNING: Found dipole moment calculation with XTB calculation
  ===> : Switching off dipole moment calculation


WARNING: Found frequency calculation in combination with XTB calculation
  ===> : Need to redirect dipole moment calculation to properties.out


================================================================================
                                       INPUT FILE
================================================================================
NAME = product_optfreq.inp
|  1> ! XTB2 Opt Freq PAL8
|  2> 
|  3> %geom
|  4>   MaxIter 500
|  5> end
|  6> 
|  7> * xyz -1 1
|  8>   C      -0.000075      0.000416      0.377808
|  9>   H      -0.000001      1.030522      0.055228
| 10>   H       0.892842     -0.515448      0.055079
| 11>   H      -0.892766     -0.515404      0.055107
| 12>   Br      0.000002     -0.000009      2.349995
| 13>   I      -0.000001      0.000007     -2.774113
| 14> *
| 15> 
| 16>                          ****END OF INPUT****
================================================================================

                       *****************************
                       * Geometry Optimization Run *
                       *****************************

Geometry optimization settings:
Update method            Update   .... BFGS
Choice of coordinates    CoordSys .... (2022) Redundant Internals
Initial Hessian          InHess   .... Almloef's Model
Max. no of cycles        MaxIter  .... 500

Convergence Tolerances:
Energy Change            TolE     ....  5.0000e-06 Eh
Max. Gradient            TolMAXG  ....  3.0000e-04 Eh/bohr
RMS Gradient             TolRMSG  ....  1.0000e-04 Eh/bohr
Max. Displacement        TolMAXD  ....  4.0000e-03 bohr
RMS Displacement         TolRMSD  ....  2.0000e-03 bohr
Strict Convergence                .... False

------------------------------------------------------------------------------
                        ORCA OPTIMIZATION COORDINATE SETUP
------------------------------------------------------------------------------

The optimization will be done in redundant internal coordinates (2022)
Making redundant internal coordinates   ...  (2022 redundants) done
Evaluating the initial hessian          ...  (Almloef) done
Evaluating the coordinates              ...  done
Calculating the B-matrix                .... done
Calculating the G-matrix                .... done
The number of degrees of freedom        ....   17

    -----------------------------------------------------------------
                    Redundant Internal Coordinates


    -----------------------------------------------------------------
         Definition                    Initial Value    Approx d2E/dq
    -----------------------------------------------------------------
      1. B(H   1,C   0)                  1.0794         0.374353   
      2. B(H   2,C   0)                  1.0805         0.372832   
      3. B(H   3,C   0)                  1.0803         0.373128   
      4. B(Br  4,C   0)                  1.9722         0.247395   
      5. B(I   5,H   3)                  3.0112         0.010000   
      6. B(I   5,H   2)                  3.0112         0.010000   
      7. B(I   5,H   1)                  3.0112         0.010000   
      8. B(I   5,C   0)                  3.1519         0.010000   
      9. A(H   1,C   0,H   3)          111.4961         0.294265   
     10. A(H   2,C   0,H   3)          111.4489         0.294076   
     11. A(H   1,C   0,Br  4)          107.4004         0.323626   
     12. A(H   2,C   0,Br  4)          107.3698         0.323410   
     13. A(H   3,C   0,Br  4)          107.3757         0.323452   
     14. A(H   1,C   0,I   5)           72.6194         0.176976   
     15. A(H   2,C   0,I   5)           72.6172         0.176895   
     16. A(H   3,C   0,I   5)           72.6175         0.176911   
     17. A(H   1,C   0,H   2)          111.4866         0.294228   
    -----------------------------------------------------------------

Number of atoms                         .... 6
Number of degrees of freedom            .... 17


         *************************************************************
         *                GEOMETRY OPTIMIZATION CYCLE   1            *
         *************************************************************
---------------------------------
CARTESIAN COORDINATES (ANGSTROEM)
---------------------------------
  C    -0.000075    0.000416    0.377808
  H    -0.000001    1.030522    0.055228
  H     0.892842   -0.515448    0.055079
  H    -0.892766   -0.515404    0.055107
  Br    0.000002   -0.000009    2.349995
  I    -0.000001    0.000007   -2.774113

----------------------------
CARTESIAN COORDINATES (A.U.)
----------------------------
  NO LB    ZA    FRAG    MASS        X           Y           Z
   0 C   6.0000    0    12.011   -0.000142    0.000786    0.713954
   1 H   1.0000    0     1.008   -0.000002    1.947404    0.104366
   2 H   1.0000    0     1.008    1.687227   -0.974056    0.104084
   3 H   1.0000    0     1.008   -1.687083   -0.973972    0.104137
   4 Br 35.0000    0    79.900    0.000004   -0.000017    4.440847
   5 I  53.0000    0   126.900   -0.000002    0.000013   -5.242314

      -----------------------------------------------------------      
     |                   =====================                   |     
     |                           x T B                           |     
     |                   =====================                   |     
     |                         S. Grimme                         |     
     |          Mulliken Center for Theoretical Chemistry        |     
     |                    University of Bonn                     |     
      -----------------------------------------------------------      

   * xtb version 6.7.1 (edcfbbe) compiled by 'albert@albert-system' on 2024-07-22

   xtb is free software: you can redistribute it and/or modify it under
   the terms of the GNU Lesser General Public License as published by
   the Free Software Foundation, either version 3 of the License, or
   (at your option) any later version.
   
   xtb is distributed in the hope that it will be useful,
   but WITHOUT ANY WARRANTY; without even the implied warranty of
   MERCHANTABILITY or FITNESS FOR A PARTICULAR PURPOSE.  See the
   GNU Lesser General Public License for more details.
   
   Cite this work as:
   * C. Bannwarth, E. Caldeweyher, S. Ehlert, A. Hansen, P. Pracht,
     J. Seibert, S. Spicher, S. Grimme, WIREs Comput. Mol. Sci., 2020, 11,
     e01493. DOI: 10.1002/wcms.1493
   
   for GFN2-xTB:
   * C. Bannwarth, S. Ehlert and S. Grimme., J. Chem. Theory Comput., 2019,
     15, 1652-1671. DOI: 10.1021/acs.jctc.8b01176
   for GFN1-xTB:
   * S. Grimme, C. Bannwarth, P. Shushkov, J. Chem. Theory Comput., 2017,
     13, 1989-2009. DOI: 10.1021/acs.jctc.7b00118
   for GFN0-xTB:
   * P. Pracht, E. Caldeweyher, S. Ehlert, S. Grimme, ChemRxiv, 2019, preprint.
     DOI: 10.26434/chemrxiv.8326202.v1
   for GFN-FF:
   * S. Spicher and S. Grimme, Angew. Chem. Int. Ed., 2020, 59, 15665-15673.
     DOI: 10.1002/anie.202004239
   
   for ALPB and GBSA implicit solvation:
   * S. Ehlert, M. Stahn, S. Spicher, S. Grimme, J. Chem. Theory Comput.,
     2021, 17, 4250-4261. DOI: 10.1021/acs.jctc.1c00471
   
   for ddCOSMO and CPCM-X implicit solvation:
   * M. Stahn, S. Ehlert, S. Grimme, J. Phys. Chem. A,
     2023, XX, XXXX-XXXX. DOI: 10.1021/acs.jpca.3c04382
   
   for DFT-D4:
   * E. Caldeweyher, C. Bannwarth and S. Grimme, J. Chem. Phys., 2017,
     147, 034112. DOI: 10.1063/1.4993215
   * E. Caldeweyher, S. Ehlert, A. Hansen, H. Neugebauer, S. Spicher,
     C. Bannwarth and S. Grimme, J. Chem. Phys., 2019, 150, 154122.
     DOI: 10.1063/1.5090222
   * E. Caldeweyher, J.-M. Mewes, S. Ehlert and S. Grimme, Phys. Chem. Chem. Phys.
     2020, 22, 8499-8512. DOI: 10.1039/D0CP00502A
   
   for sTDA-xTB:
   * S. Grimme and C. Bannwarth, J. Chem. Phys., 2016, 145, 054103.
     DOI: 10.1063/1.4959605
   
   in the mass-spec context:
   * V. Asgeirsson, C. Bauer and S. Grimme, Chem. Sci., 2017, 8, 4879.
     DOI: 10.1039/c7sc00601b
   * J. Koopman and S. Grimme, ACS Omega 2019, 4, 12, 15120-15133.
     DOI: 10.1021/acsomega.9b02011
   
   for metadynamics refer to:
   * S. Grimme, J. Chem. Theory Comput., 2019, 155, 2847-2862
     DOI: 10.1021/acs.jctc.9b00143
   
   for SPH calculations refer to:
   * S. Spicher and S. Grimme, J. Chem. Theory Comput., 2021, 17, 1701-1714
     DOI: 10.1021/acs.jctc.0c01306
   
   for ONIOM refer to:
   * C. Plett, A. Katbashev, S. Ehlert, S. Grimme, M. Bursch,
     Phys. Chem. Chem. Phys., 2023, 25, 17860-17868. DOI: 10.1039/D3CP02178E
   
   for DIPRO refer to:
   * J. Kohn, N. Gildemeister, S. Grimme, D. Fazzi, A. Hansen,
     J. Chem. Phys., 2023, just accepted.
   
   for PTB refer to:
   * S. Grimme, M. Mueller, A. Hansen, J. Chem. Phys., 2023, 158, 124111.
     DOI: 10.1063/5.0137838
   
   with help from (in alphabetical order)
   P. Atkinson, C. Bannwarth, F. Bohle, G. Brandenburg, E. Caldeweyher
   M. Checinski, S. Dohm, S. Ehlert, S. Ehrlich, I. Gerasimov, C. Hölzer
   A. Katbashev, J. Kohn, J. Koopman, C. Lavigne, S. Lehtola, F. März, M. Müller,
   F. Musil, H. Neugebauer, J. Pisarek, C. Plett, P. Pracht, F. Pultar,
   J. Seibert, P. Shushkov, S. Spicher, M. Stahn, M. Steiner, T. Strunk,
   J. Stückrath, T. Rose, and J. Unsleber
   
 * started run on 2026/03/16 at 14:18:46.280     
   ID    Z sym.   atoms
    1    6 C      1
    2    1 H      2-4
    3   35 Br     5
    4   53 I      6

           -------------------------------------------------
          |                Calculation Setup                |
           -------------------------------------------------

          program call               : /software/orca-6.1.0-el8-x86_64/bin/otool_xtb product_optfreq_XTB.xyz --grad -c -1 -u 0 -P 8 --namespace product_optfreq --input product_optfreq_XTB.input.tmp --acc 0.200000
          hostname                   : midway3-login4.rcc.local
          calculation namespace      : product_optfreq
          coordinate file            : product_optfreq_XTB.xyz
          omp threads                :                     8


molecular fragmentation (1/2 indicates fragments):
111112
# atoms in fragment 1/2:     5     1
 fragment masses (1/2) :       94.94      126.90
CMA distance (Bohr)    :   9.074
constraining FC (au)   :  0.0500

           -------------------------------------------------
          |                 G F N 2 - x T B                 |
           -------------------------------------------------

        Reference                      10.1021/acs.jctc.8b01176
      * Hamiltonian:
        H0-scaling (s, p, d)           1.850000    2.230000    2.230000
        zeta-weighting                 0.500000
      * Dispersion:
        s8                             2.700000
        a1                             0.520000
        a2                             5.000000
        s9                             5.000000
      * Repulsion:
        kExp                           1.500000    1.000000
        rExp                           1.000000
      * Coulomb:
        alpha                          2.000000
        third order                    shell-resolved
        anisotropic                    true
        a3                             3.000000
        a5                             4.000000
        cn-shift                       1.200000
        cn-exp                         4.000000
        max-rad                        5.000000


          ...................................................
          :                      SETUP                      :
          :.................................................:
          :  # basis functions                  27          :
          :  # atomic orbitals                  25          :
          :  # shells                           11          :
          :  # electrons                        22          :
          :  max. iterations                   250          :
          :  Hamiltonian                  GFN2-xTB          :
          :  restarted?                      false          :
          :  GBSA solvation                  false          :
          :  PC potential                    false          :
          :  electronic temp.          300.0000000     K    :
          :  accuracy                    0.2000000          :
          :  -> integral cutoff          0.3198970E+02      :
          :  -> integral neglect         0.2000000E-08      :
          :  -> SCF convergence          0.2000000E-06 Eh   :
          :  -> wf. convergence          0.2000000E-04 e    :
          :  Broyden damping             0.4000000          :
          :  net charge                         -1          :
          :  unpaired electrons                  0          :
          ...................................................

 iter      E             dE          RMSdq      gap      omega  full diag
   1    -11.8674589 -0.118675E+02  0.717E+00    2.94       0.0  T
   2    -11.8816076 -0.141487E-01  0.454E+00    2.31       1.0  T
   3    -11.8821110 -0.503494E-03  0.175E+00    2.45       1.0  T
   4    -11.8847558 -0.264475E-02  0.102E+00    2.36       1.0  T
   5    -11.8853737 -0.617899E-03  0.548E-01    2.37       1.0  T
   6    -11.8856788 -0.305111E-03  0.248E-01    2.26       1.0  T
   7    -11.8857189 -0.400496E-04  0.823E-02    2.29       1.0  T
   8    -11.8857276 -0.875705E-05  0.365E-02    2.27       1.1  T
   9    -11.8857279 -0.289244E-06  0.818E-03    2.27       5.0  T
  10    -11.8857281 -0.145733E-06  0.233E-03    2.27      17.5  T
  11    -11.8857281 -0.762116E-09  0.206E-04    2.27     198.6  T
  12    -11.8857281  0.832223E-11  0.700E-05    2.27     582.9  T
  13    -11.8857281 -0.120650E-10  0.124E-05    2.27    3301.0  T

   *** convergence criteria satisfied after 13 iterations ***

         #    Occupation            Energy/Eh            Energy/eV
      -------------------------------------------------------------
         1        2.0000           -0.7193584             -19.5747
       ...           ...                  ...                  ...
         5        2.0000           -0.3776264             -10.2757
         6        2.0000           -0.3611914              -9.8285
         7        2.0000           -0.2864427              -7.7945
         8        2.0000           -0.2864357              -7.7943
         9        2.0000           -0.1776326              -4.8336
        10        2.0000           -0.1725554              -4.6955
        11        2.0000           -0.1725553              -4.6955 (HOMO)
        12                         -0.0892184              -2.4278 (LUMO)
        13                          0.1631185               4.4387
        14                          0.1631770               4.4403
        15                          0.1783394               4.8529
        16                          0.1783449               4.8530
       ...                                ...                  ...
        25                          0.4870475              13.2532
      -------------------------------------------------------------
                  HL-Gap            0.0833369 Eh            2.2677 eV
             Fermi-level           -0.1308869 Eh           -3.5616 eV

 SCC (total)                   0 d,  0 h,  0 min,  0.036 sec
 SCC setup                      ...        0 min,  0.000 sec (  0.633%)
 Dispersion                     ...        0 min,  0.000 sec (  0.148%)
 classical contributions        ...        0 min,  0.000 sec (  0.078%)
 integral evaluation            ...        0 min,  0.033 sec ( 91.069%)
 iterations                     ...        0 min,  0.002 sec (  5.509%)
 molecular gradient             ...        0 min,  0.001 sec (  1.808%)
 printout                       ...        0 min,  0.000 sec (  0.703%)

         :::::::::::::::::::::::::::::::::::::::::::::::::::::
         ::                     SUMMARY                     ::
         :::::::::::::::::::::::::::::::::::::::::::::::::::::
         :: total energy             -11.827123758531 Eh    ::
         :: gradient norm              0.001858120347 Eh/a0 ::
         :: HOMO-LUMO gap              2.267712290382 eV    ::
         ::.................................................::
         :: SCC energy               -11.885728937038 Eh    ::
         :: -> isotropic ES            0.145215427136 Eh    ::
         :: -> anisotropic ES         -0.004702231896 Eh    ::
         :: -> anisotropic XC         -0.005010846090 Eh    ::
         :: -> dispersion             -0.003355243469 Eh    ::
         :: repulsion energy           0.058605178506 Eh    ::
         :: add. restraining           0.000000000000 Eh    ::
         :: total charge              -1.000000000000 e     ::
         :::::::::::::::::::::::::::::::::::::::::::::::::::::


Property printout bound to 'properties.out'

           -------------------------------------------------
          | TOTAL ENERGY              -11.827123758531 Eh   |
          | GRADIENT NORM               0.001858120347 Eh/α |
          | HOMO-LUMO GAP               2.267712290382 eV   |
           -------------------------------------------------

------------------------------------------------------------------------
 * finished run on 2026/03/16 at 14:18:46.347     
------------------------------------------------------------------------
 total:
 * wall-time:     0 d,  0 h,  0 min,  0.066 sec
 *  cpu-time:     0 d,  0 h,  0 min,  0.341 sec
 * ratio c/w:     5.164 speedup
 SCF:
 * wall-time:     0 d,  0 h,  0 min,  0.036 sec
 *  cpu-time:     0 d,  0 h,  0 min,  0.258 sec
 * ratio c/w:     7.119 speedup


-------------------------   --------------------
FINAL SINGLE POINT ENERGY       -11.827123758530
-------------------------   --------------------


-------------
DIPOLE MOMENT
-------------
                                X             Y             Z
Total Dipole Moment    :     -0.00000       0.00000       2.66600
                        -----------------------------------------
Magnitude (a.u.)       :      2.66600
Magnitude (Debye)      :      6.77643


------------------
CARTESIAN GRADIENT
------------------

   1   C   :   -0.000117097    0.000626692   -0.000240423
   2   H   :    0.000003770   -0.000635078   -0.000197651
   3   H   :    0.000001073   -0.000017032   -0.000387321
   4   H   :    0.000109148    0.000042233   -0.000350333
   5   Br  :    0.000002634   -0.000014304   -0.000297524
   6   I   :    0.000000472   -0.000002511    0.001473252

Difference to translation invariance:
           :   -0.0000000000    0.0000000000    0.0000000000

Difference to rotation invariance:
           :    0.0000000041   -0.0000000836    0.0000000288

Norm of the Cartesian gradient     ...    0.0018581203
RMS gradient                       ...    0.0004379632
MAX gradient                       ...    0.0014732518
------------------------------------------------------------------------------
                         ORCA GEOMETRY RELAXATION STEP
------------------------------------------------------------------------------

Reading the OPT-File                    .... done
Getting information on internals        .... done
Copying old internal coords+grads       .... done
Making the new internal coordinates     .... (2022 redundants) done
Validating the new internal coordinates .... (2022 redundants) done
Calculating the B-matrix                .... done
Calculating the G,G- and P matrices     .... done
Transforming gradient to internals      .... done
Projecting the internal gradient        .... done
Number of atoms                         ....   6
Number of internal coordinates          ....  17
Current Energy                          ....   -11.827123759 Eh
Current gradient norm                   ....     0.001858120 Eh/bohr
Maximum allowed component of the step   ....  0.300
Current trust radius                    ....  0.300
Evaluating the initial hessian          ....  (Almloef) done
Projecting the Hessian                  .... done
Forming the augmented Hessian           .... done
Diagonalizing the augmented Hessian     .... done
Last element of RFO vector              ....  0.997072141
Lowest eigenvalues of augmented Hessian:
 -0.000060306  0.010059133  0.042341165  0.042383118  0.190808189
Length of the computed step             ....  0.076691173
The final length of the internal step   ....  0.076691173
Converting the step to Cartesian space:
 Initial RMS(Int)=    0.0186003415
Transforming coordinates:
 Iter   0:  RMS(Cart)=    0.0086831592 RMS(Int)=    0.0186059698
done
Storing new coordinates                 .... done

                                .--------------------.
          ----------------------|Geometry convergence|-------------------------
          Item                value                   Tolerance       Converged
          ---------------------------------------------------------------------
          RMS gradient        0.0002410259            0.0001000000      NO
          MAX gradient        0.0005296802            0.0003000000      NO
          RMS step            0.0186003415            0.0020000000      NO
          MAX step            0.0401586908            0.0040000000      NO
          -------------------------------------------------------------------------
          ........................................................
          Max(Bonds)      0.0213      Max(Angles)    0.01
          Max(Dihed)        0.00      Max(Improp)    0.00
          ---------------------------------------------------------------------

The optimization has not yet converged - more geometry cycles are needed


    ---------------------------------------------------------------------------
                         Redundant Internal Coordinates
                            (Angstroem and degrees)

        Definition                    Value    dE/dq     Step     New-Value
    ----------------------------------------------------------------------------
     1. B(H   1,C   0)                1.0794 -0.000530  0.0007    1.0802   
     2. B(H   2,C   0)                1.0805  0.000142 -0.0002    1.0803   
     3. B(H   3,C   0)                1.0803  0.000012 -0.0000    1.0803   
     4. B(Br  4,C   0)                1.9722 -0.000298  0.0006    1.9728   
     5. B(I   5,H   3)                3.0112 -0.000378  0.0200    3.0311   
     6. B(I   5,H   2)                3.0112 -0.000379  0.0200    3.0311   
     7. B(I   5,H   1)                3.0112 -0.000378  0.0199    3.0311   
     8. B(I   5,C   0)                3.1519 -0.000407  0.0213    3.1732   
     9. A(H   1,C   0,H   3)          111.50  0.000021   -0.00    111.49   
    10. A(H   2,C   0,H   3)          111.45 -0.000020    0.00    111.45   
    11. A(H   1,C   0,Br  4)          107.40  0.000031   -0.01    107.40   
    12. A(H   2,C   0,Br  4)          107.37 -0.000028    0.01    107.38   
    13. A(H   3,C   0,Br  4)          107.38 -0.000017    0.00    107.38   
    14. A(H   1,C   0,I   5)           72.62  0.000014   -0.00     72.62   
    15. A(H   2,C   0,I   5)           72.62 -0.000001    0.00     72.62   
    16. A(H   3,C   0,I   5)           72.62  0.000002   -0.00     72.62   
    17. A(H   1,C   0,H   2)          111.49  0.000012   -0.00    111.48   
    ----------------------------------------------------------------------------

Geometry step timings:
Preparation and reading OPT file:      0.000 s ( 2.596 %)
Internal coordinates            :      0.000 s ( 3.399 %)
B/P matrices and projection     :      0.000 s (11.063 %)
Hessian update/contruction      :      0.001 s (36.403 %)
Making the step                 :      0.000 s (11.125 %)
Converting the step to Cartesian:      0.000 s ( 3.770 %)
Storing new data                :      0.000 s ( 5.995 %)
Checking convergence            :      0.000 s ( 5.192 %)
Final printing                  :      0.000 s (20.272 %)
Total time                      :      0.002 s

Time for energy+gradient        :      0.079 s
Time for complete geometry iter :      0.082 s

         *************************************************************
         *                GEOMETRY OPTIMIZATION CYCLE   2            *
         *************************************************************
---------------------------------
CARTESIAN COORDINATES (ANGSTROEM)
---------------------------------
  C    -0.000033    0.000194    0.381281
  H     0.000027    1.031015    0.058479
  H     0.892731   -0.515523    0.058572
  H    -0.892734   -0.515557    0.058553
  Br    0.000013   -0.000062    2.354104
  I    -0.000003    0.000018   -2.791886

----------------------------
CARTESIAN COORDINATES (A.U.)
----------------------------
  NO LB    ZA    FRAG    MASS        X           Y           Z
   0 C   6.0000    0    12.011   -0.000063    0.000366    0.720517
   1 H   1.0000    0     1.008    0.000051    1.948336    0.110510
   2 H   1.0000    0     1.008    1.687018   -0.974198    0.110685
   3 H   1.0000    0     1.008   -1.687023   -0.974262    0.110649
   4 Br 35.0000    0    79.900    0.000024   -0.000118    4.448613
   5 I  53.0000    0   126.900   -0.000005    0.000034   -5.275901

      -----------------------------------------------------------      
     |                   =====================                   |     
     |                           x T B                           |     
     |                   =====================                   |     
     |                         S. Grimme                         |     
     |          Mulliken Center for Theoretical Chemistry        |     
     |                    University of Bonn                     |     
      -----------------------------------------------------------      

   * xtb version 6.7.1 (edcfbbe) compiled by 'albert@albert-system' on 2024-07-22

   xtb is free software: you can redistribute it and/or modify it under
   the terms of the GNU Lesser General Public License as published by
   the Free Software Foundation, either version 3 of the License, or
   (at your option) any later version.
   
   xtb is distributed in the hope that it will be useful,
   but WITHOUT ANY WARRANTY; without even the implied warranty of
   MERCHANTABILITY or FITNESS FOR A PARTICULAR PURPOSE.  See the
   GNU Lesser General Public License for more details.
   
   Cite this work as:
   * C. Bannwarth, E. Caldeweyher, S. Ehlert, A. Hansen, P. Pracht,
     J. Seibert, S. Spicher, S. Grimme, WIREs Comput. Mol. Sci., 2020, 11,
     e01493. DOI: 10.1002/wcms.1493
   
   for GFN2-xTB:
   * C. Bannwarth, S. Ehlert and S. Grimme., J. Chem. Theory Comput., 2019,
     15, 1652-1671. DOI: 10.1021/acs.jctc.8b01176
   for GFN1-xTB:
   * S. Grimme, C. Bannwarth, P. Shushkov, J. Chem. Theory Comput., 2017,
     13, 1989-2009. DOI: 10.1021/acs.jctc.7b00118
   for GFN0-xTB:
   * P. Pracht, E. Caldeweyher, S. Ehlert, S. Grimme, ChemRxiv, 2019, preprint.
     DOI: 10.26434/chemrxiv.8326202.v1
   for GFN-FF:
   * S. Spicher and S. Grimme, Angew. Chem. Int. Ed., 2020, 59, 15665-15673.
     DOI: 10.1002/anie.202004239
   
   for ALPB and GBSA implicit solvation:
   * S. Ehlert, M. Stahn, S. Spicher, S. Grimme, J. Chem. Theory Comput.,
     2021, 17, 4250-4261. DOI: 10.1021/acs.jctc.1c00471
   
   for ddCOSMO and CPCM-X implicit solvation:
   * M. Stahn, S. Ehlert, S. Grimme, J. Phys. Chem. A,
     2023, XX, XXXX-XXXX. DOI: 10.1021/acs.jpca.3c04382
   
   for DFT-D4:
   * E. Caldeweyher, C. Bannwarth and S. Grimme, J. Chem. Phys., 2017,
     147, 034112. DOI: 10.1063/1.4993215
   * E. Caldeweyher, S. Ehlert, A. Hansen, H. Neugebauer, S. Spicher,
     C. Bannwarth and S. Grimme, J. Chem. Phys., 2019, 150, 154122.
     DOI: 10.1063/1.5090222
   * E. Caldeweyher, J.-M. Mewes, S. Ehlert and S. Grimme, Phys. Chem. Chem. Phys.
     2020, 22, 8499-8512. DOI: 10.1039/D0CP00502A
   
   for sTDA-xTB:
   * S. Grimme and C. Bannwarth, J. Chem. Phys., 2016, 145, 054103.
     DOI: 10.1063/1.4959605
   
   in the mass-spec context:
   * V. Asgeirsson, C. Bauer and S. Grimme, Chem. Sci., 2017, 8, 4879.
     DOI: 10.1039/c7sc00601b
   * J. Koopman and S. Grimme, ACS Omega 2019, 4, 12, 15120-15133.
     DOI: 10.1021/acsomega.9b02011
   
   for metadynamics refer to:
   * S. Grimme, J. Chem. Theory Comput., 2019, 155, 2847-2862
     DOI: 10.1021/acs.jctc.9b00143
   
   for SPH calculations refer to:
   * S. Spicher and S. Grimme, J. Chem. Theory Comput., 2021, 17, 1701-1714
     DOI: 10.1021/acs.jctc.0c01306
   
   for ONIOM refer to:
   * C. Plett, A. Katbashev, S. Ehlert, S. Grimme, M. Bursch,
     Phys. Chem. Chem. Phys., 2023, 25, 17860-17868. DOI: 10.1039/D3CP02178E
   
   for DIPRO refer to:
   * J. Kohn, N. Gildemeister, S. Grimme, D. Fazzi, A. Hansen,
     J. Chem. Phys., 2023, just accepted.
   
   for PTB refer to:
   * S. Grimme, M. Mueller, A. Hansen, J. Chem. Phys., 2023, 158, 124111.
     DOI: 10.1063/5.0137838
   
   with help from (in alphabetical order)
   P. Atkinson, C. Bannwarth, F. Bohle, G. Brandenburg, E. Caldeweyher
   M. Checinski, S. Dohm, S. Ehlert, S. Ehrlich, I. Gerasimov, C. Hölzer
   A. Katbashev, J. Kohn, J. Koopman, C. Lavigne, S. Lehtola, F. März, M. Müller,
   F. Musil, H. Neugebauer, J. Pisarek, C. Plett, P. Pracht, F. Pultar,
   J. Seibert, P. Shushkov, S. Spicher, M. Stahn, M. Steiner, T. Strunk,
   J. Stückrath, T. Rose, and J. Unsleber
   
 * started run on 2026/03/16 at 14:18:46.364     
   ID    Z sym.   atoms
    1    6 C      1
    2    1 H      2-4
    3   35 Br     5
    4   53 I      6

           -------------------------------------------------
          |                Calculation Setup                |
           -------------------------------------------------

          program call               : /software/orca-6.1.0-el8-x86_64/bin/otool_xtb product_optfreq_XTB.xyz --grad -c -1 -u 0 -P 8 --namespace product_optfreq --input product_optfreq_XTB.input.tmp --acc 0.200000
          hostname                   : midway3-login4.rcc.local
          calculation namespace      : product_optfreq
          coordinate file            : product_optfreq_XTB.xyz
          omp threads                :                     8


molecular fragmentation (1/2 indicates fragments):
111112
# atoms in fragment 1/2:     5     1
 fragment masses (1/2) :       94.94      126.90
CMA distance (Bohr)    :   9.115
constraining FC (au)   :  0.0500

           -------------------------------------------------
          |                 G F N 2 - x T B                 |
           -------------------------------------------------

        Reference                      10.1021/acs.jctc.8b01176
      * Hamiltonian:
        H0-scaling (s, p, d)           1.850000    2.230000    2.230000
        zeta-weighting                 0.500000
      * Dispersion:
        s8                             2.700000
        a1                             0.520000
        a2                             5.000000
        s9                             5.000000
      * Repulsion:
        kExp                           1.500000    1.000000
        rExp                           1.000000
      * Coulomb:
        alpha                          2.000000
        third order                    shell-resolved
        anisotropic                    true
        a3                             3.000000
        a5                             4.000000
        cn-shift                       1.200000
        cn-exp                         4.000000
        max-rad                        5.000000

q/qsh data taken from xtbrestart
CAMM data taken from xtbrestart

          ...................................................
          :                      SETUP                      :
          :.................................................:
          :  # basis functions                  27          :
          :  # atomic orbitals                  25          :
          :  # shells                           11          :
          :  # electrons                        22          :
          :  max. iterations                   250          :
          :  Hamiltonian                  GFN2-xTB          :
          :  restarted?                       true          :
          :  GBSA solvation                  false          :
          :  PC potential                    false          :
          :  electronic temp.          300.0000000     K    :
          :  accuracy                    0.2000000          :
          :  -> integral cutoff          0.3198970E+02      :
          :  -> integral neglect         0.2000000E-08      :
          :  -> SCF convergence          0.2000000E-06 Eh   :
          :  -> wf. convergence          0.2000000E-04 e    :
          :  Broyden damping             0.4000000          :
          :  net charge                         -1          :
          :  unpaired electrons                  0          :
          ...................................................

 iter      E             dE          RMSdq      gap      omega  full diag
   1    -11.8856746 -0.118857E+02  0.175E-01    2.24       0.0  T
   2    -11.8856773 -0.272390E-05  0.851E-02    2.22       1.0  T
   3    -11.8856777 -0.352325E-06  0.198E-02    2.21       2.1  T
   4    -11.8856778 -0.878024E-07  0.122E-02    2.21       3.4  T
   5    -11.8856778 -0.383855E-07  0.594E-03    2.21       6.9  T
   6    -11.8856778 -0.167175E-07  0.131E-03    2.22      31.3  T
   7    -11.8856778 -0.946956E-09  0.644E-04    2.22      63.4  T
   8    -11.8856778 -0.362933E-09  0.354E-04    2.22     115.4  T
   9    -11.8856778 -0.122576E-09  0.648E-05    2.22     630.2  T
  10    -11.8856778 -0.109068E-11  0.200E-06    2.22   20373.5  T

   *** convergence criteria satisfied after 10 iterations ***

         #    Occupation            Energy/Eh            Energy/eV
      -------------------------------------------------------------
         1        2.0000           -0.7200987             -19.5949
       ...           ...                  ...                  ...
         5        2.0000           -0.3783807             -10.2963
         6        2.0000           -0.3619904              -9.8503
         7        2.0000           -0.2872707              -7.8170
         8        2.0000           -0.2872654              -7.8169
         9        2.0000           -0.1769075              -4.8139
        10        2.0000           -0.1718868              -4.6773
        11        2.0000           -0.1718867              -4.6773 (HOMO)
        12                         -0.0904824              -2.4622 (LUMO)
        13                          0.1623170               4.4169
        14                          0.1623346               4.4174
        15                          0.1775183               4.8305
        16                          0.1775247               4.8307
       ...                                ...                  ...
        25                          0.4854036              13.2085
      -------------------------------------------------------------
                  HL-Gap            0.0814043 Eh            2.2151 eV
             Fermi-level           -0.1311845 Eh           -3.5697 eV

 SCC (total)                   0 d,  0 h,  0 min,  0.040 sec
 SCC setup                      ...        0 min,  0.000 sec (  0.525%)
 Dispersion                     ...        0 min,  0.000 sec (  0.404%)
 classical contributions        ...        0 min,  0.000 sec (  0.070%)
 integral evaluation            ...        0 min,  0.037 sec ( 92.806%)
 iterations                     ...        0 min,  0.002 sec (  4.126%)
 molecular gradient             ...        0 min,  0.001 sec (  1.612%)
 printout                       ...        0 min,  0.000 sec (  0.420%)

         :::::::::::::::::::::::::::::::::::::::::::::::::::::
         ::                     SUMMARY                     ::
         :::::::::::::::::::::::::::::::::::::::::::::::::::::
         :: total energy             -11.827167067202 Eh    ::
         :: gradient norm              0.000998549808 Eh/a0 ::
         :: HOMO-LUMO gap              2.215123941213 eV    ::
         ::.................................................::
         :: SCC energy               -11.885678746361 Eh    ::
         :: -> isotropic ES            0.145760452559 Eh    ::
         :: -> anisotropic ES         -0.004642339939 Eh    ::
         :: -> anisotropic XC         -0.004905382970 Eh    ::
         :: -> dispersion             -0.003339073137 Eh    ::
         :: repulsion energy           0.058511679159 Eh    ::
         :: add. restraining           0.000000000000 Eh    ::
         :: total charge              -1.000000000000 e     ::
         :::::::::::::::::::::::::::::::::::::::::::::::::::::


Property printout bound to 'properties.out'

           -------------------------------------------------
          | TOTAL ENERGY              -11.827167067202 Eh   |
          | GRADIENT NORM               0.000998549808 Eh/α |
          | HOMO-LUMO GAP               2.215123941213 eV   |
           -------------------------------------------------

------------------------------------------------------------------------
 * finished run on 2026/03/16 at 14:18:46.450     
------------------------------------------------------------------------
 total:
 * wall-time:     0 d,  0 h,  0 min,  0.086 sec
 *  cpu-time:     0 d,  0 h,  0 min,  0.380 sec
 * ratio c/w:     4.415 speedup
 SCF:
 * wall-time:     0 d,  0 h,  0 min,  0.040 sec
 *  cpu-time:     0 d,  0 h,  0 min,  0.284 sec
 * ratio c/w:     7.093 speedup


-------------------------   --------------------
FINAL SINGLE POINT ENERGY       -11.827167067200
-------------------------   --------------------


-------------
DIPOLE MOMENT
-------------
                                X             Y             Z
Total Dipole Moment    :     -0.00000       0.00000       2.71300
                        -----------------------------------------
Magnitude (a.u.)       :      2.71300
Magnitude (Debye)      :      6.89590


------------------
CARTESIAN GRADIENT
------------------

   1   C   :   -0.000024568    0.000130036   -0.000465038
   2   H   :    0.000006343   -0.000225997   -0.000169184
   3   H   :   -0.000142783    0.000053306   -0.000186673
   4   H   :    0.000158706    0.000055174   -0.000183146
   5   Br  :    0.000002207   -0.000011958    0.000329477
   6   I   :    0.000000095   -0.000000560    0.000674565

Difference to translation invariance:
           :   -0.0000000000    0.0000000000    0.0000000000

Difference to rotation invariance:
           :   -0.0000000059   -0.0000000009   -0.0000000000

Norm of the Cartesian gradient     ...    0.0009985498
RMS gradient                       ...    0.0002353604
MAX gradient                       ...    0.0006745647
------------------------------------------------------------------------------
                         ORCA GEOMETRY RELAXATION STEP
------------------------------------------------------------------------------

Reading the OPT-File                    .... done
Getting information on internals        .... done
Copying old internal coords+grads       .... done
Making the new internal coordinates     .... (2022 redundants) done
Validating the new internal coordinates .... (2022 redundants) done
Calculating the B-matrix                .... done
Calculating the G,G- and P matrices     .... done
Transforming gradient to internals      .... done
Projecting the internal gradient        .... done
Number of atoms                         ....   6
Number of internal coordinates          ....  17
Current Energy                          ....   -11.827167067 Eh
Current gradient norm                   ....     0.000998550 Eh/bohr
Maximum allowed component of the step   ....  0.300
Current trust radius                    ....  0.300
Updating the Hessian (BFGS)             .... done
Forming the augmented Hessian           .... done
Diagonalizing the augmented Hessian     .... done
Last element of RFO vector              ....  0.997747631
Lowest eigenvalues of augmented Hessian:
 -0.000024785  0.005359891  0.042341164  0.042383097  0.191080996
Length of the computed step             ....  0.067230976
The final length of the internal step   ....  0.067230976
Converting the step to Cartesian space:
 Initial RMS(Int)=    0.0163059067
Transforming coordinates:
 Iter   0:  RMS(Cart)=    0.0074411001 RMS(Int)=    0.0163098798
done
Storing new coordinates                 .... done
The predicted energy change is          ....    -0.000012449
Previously predicted energy change      ....    -0.000030330
Actually observed energy change         ....    -0.000043309
Ratio of predicted to observed change   ....     1.427897401
New trust radius                        ....     0.300000000

                                .--------------------.
          ----------------------|Geometry convergence|-------------------------
          Item                value                   Tolerance       Converged
          ---------------------------------------------------------------------
          Energy change      -0.0000433087            0.0000050000      NO
          RMS gradient        0.0001296481            0.0001000000      NO
          MAX gradient        0.0003294784            0.0003000000      NO
          RMS step            0.0163059067            0.0020000000      NO
          MAX step            0.0347488272            0.0040000000      NO
          -------------------------------------------------------------------------
          ........................................................
          Max(Bonds)      0.0184      Max(Angles)    0.03
          Max(Dihed)        0.00      Max(Improp)    0.00
          ---------------------------------------------------------------------

The optimization has not yet converged - more geometry cycles are needed


    ---------------------------------------------------------------------------
                         Redundant Internal Coordinates
                            (Angstroem and degrees)

        Definition                    Value    dE/dq     Step     New-Value
    ----------------------------------------------------------------------------
     1. B(H   1,C   0)                1.0802 -0.000157  0.0004    1.0806   
     2. B(H   2,C   0)                1.0803 -0.000079  0.0002    1.0805   
     3. B(H   3,C   0)                1.0803 -0.000094  0.0002    1.0806   
     4. B(Br  4,C   0)                1.9728  0.000329 -0.0012    1.9716   
     5. B(I   5,H   3)                3.0311 -0.000190  0.0176    3.0487   
     6. B(I   5,H   2)                3.0311 -0.000190  0.0176    3.0487   
     7. B(I   5,H   1)                3.0311 -0.000189  0.0175    3.0486   
     8. B(I   5,C   0)                3.1732 -0.000140  0.0184    3.1916   
     9. A(H   1,C   0,H   3)          111.49  0.000005    0.00    111.49   
    10. A(H   2,C   0,H   3)          111.45 -0.000067    0.03    111.48   
    11. A(H   1,C   0,Br  4)          107.40  0.000056   -0.02    107.37   
    12. A(H   2,C   0,Br  4)          107.38  0.000006   -0.01    107.37   
    13. A(H   3,C   0,Br  4)          107.38  0.000016   -0.01    107.37   
    14. A(H   1,C   0,I   5)           72.62 -0.000025    0.01     72.63   
    15. A(H   2,C   0,I   5)           72.62 -0.000027    0.01     72.63   
    16. A(H   3,C   0,I   5)           72.62 -0.000026    0.01     72.63   
    17. A(H   1,C   0,H   2)          111.48 -0.000009    0.01    111.49   
    ----------------------------------------------------------------------------

Geometry step timings:
Preparation and reading OPT file:      0.000 s ( 2.742 %)
Internal coordinates            :      0.000 s ( 4.243 %)
B/P matrices and projection     :      0.000 s (11.423 %)
Hessian update/contruction      :      0.000 s (29.700 %)
Making the step                 :      0.000 s ( 8.225 %)
Converting the step to Cartesian:      0.000 s ( 2.807 %)
Storing new data                :      0.000 s ( 7.833 %)
Checking convergence            :      0.000 s ( 7.637 %)
Final printing                  :      0.000 s (25.261 %)
Total time                      :      0.002 s

Time for energy+gradient        :      0.099 s
Time for complete geometry iter :      0.102 s

         *************************************************************
         *                GEOMETRY OPTIMIZATION CYCLE   3            *
         *************************************************************
---------------------------------
CARTESIAN COORDINATES (ANGSTROEM)
---------------------------------
  C    -0.000002    0.000027    0.384468
  H     0.000019    1.031363    0.061833
  H     0.893061   -0.515680    0.061922
  H    -0.893065   -0.515706    0.061904
  Br   -0.000001    0.000018    2.356058
  I    -0.000010    0.000062   -2.807081

----------------------------
CARTESIAN COORDINATES (A.U.)
----------------------------
  NO LB    ZA    FRAG    MASS        X           Y           Z
   0 C   6.0000    0    12.011   -0.000004    0.000051    0.726539
   1 H   1.0000    0     1.008    0.000036    1.948993    0.116847
   2 H   1.0000    0     1.008    1.687641   -0.974495    0.117016
   3 H   1.0000    0     1.008   -1.687649   -0.974542    0.116981
   4 Br 35.0000    0    79.900   -0.000003    0.000034    4.452305
   5 I  53.0000    0   126.900   -0.000019    0.000118   -5.304614

      -----------------------------------------------------------      
     |                   =====================                   |     
     |                           x T B                           |     
     |                   =====================                   |     
     |                         S. Grimme                         |     
     |          Mulliken Center for Theoretical Chemistry        |     
     |                    University of Bonn                     |     
      -----------------------------------------------------------      

   * xtb version 6.7.1 (edcfbbe) compiled by 'albert@albert-system' on 2024-07-22

   xtb is free software: you can redistribute it and/or modify it under
   the terms of the GNU Lesser General Public License as published by
   the Free Software Foundation, either version 3 of the License, or
   (at your option) any later version.
   
   xtb is distributed in the hope that it will be useful,
   but WITHOUT ANY WARRANTY; without even the implied warranty of
   MERCHANTABILITY or FITNESS FOR A PARTICULAR PURPOSE.  See the
   GNU Lesser General Public License for more details.
   
   Cite this work as:
   * C. Bannwarth, E. Caldeweyher, S. Ehlert, A. Hansen, P. Pracht,
     J. Seibert, S. Spicher, S. Grimme, WIREs Comput. Mol. Sci., 2020, 11,
     e01493. DOI: 10.1002/wcms.1493
   
   for GFN2-xTB:
   * C. Bannwarth, S. Ehlert and S. Grimme., J. Chem. Theory Comput., 2019,
     15, 1652-1671. DOI: 10.1021/acs.jctc.8b01176
   for GFN1-xTB:
   * S. Grimme, C. Bannwarth, P. Shushkov, J. Chem. Theory Comput., 2017,
     13, 1989-2009. DOI: 10.1021/acs.jctc.7b00118
   for GFN0-xTB:
   * P. Pracht, E. Caldeweyher, S. Ehlert, S. Grimme, ChemRxiv, 2019, preprint.
     DOI: 10.26434/chemrxiv.8326202.v1
   for GFN-FF:
   * S. Spicher and S. Grimme, Angew. Chem. Int. Ed., 2020, 59, 15665-15673.
     DOI: 10.1002/anie.202004239
   
   for ALPB and GBSA implicit solvation:
   * S. Ehlert, M. Stahn, S. Spicher, S. Grimme, J. Chem. Theory Comput.,
     2021, 17, 4250-4261. DOI: 10.1021/acs.jctc.1c00471
   
   for ddCOSMO and CPCM-X implicit solvation:
   * M. Stahn, S. Ehlert, S. Grimme, J. Phys. Chem. A,
     2023, XX, XXXX-XXXX. DOI: 10.1021/acs.jpca.3c04382
   
   for DFT-D4:
   * E. Caldeweyher, C. Bannwarth and S. Grimme, J. Chem. Phys., 2017,
     147, 034112. DOI: 10.1063/1.4993215
   * E. Caldeweyher, S. Ehlert, A. Hansen, H. Neugebauer, S. Spicher,
     C. Bannwarth and S. Grimme, J. Chem. Phys., 2019, 150, 154122.
     DOI: 10.1063/1.5090222
   * E. Caldeweyher, J.-M. Mewes, S. Ehlert and S. Grimme, Phys. Chem. Chem. Phys.
     2020, 22, 8499-8512. DOI: 10.1039/D0CP00502A
   
   for sTDA-xTB:
   * S. Grimme and C. Bannwarth, J. Chem. Phys., 2016, 145, 054103.
     DOI: 10.1063/1.4959605
   
   in the mass-spec context:
   * V. Asgeirsson, C. Bauer and S. Grimme, Chem. Sci., 2017, 8, 4879.
     DOI: 10.1039/c7sc00601b
   * J. Koopman and S. Grimme, ACS Omega 2019, 4, 12, 15120-15133.
     DOI: 10.1021/acsomega.9b02011
   
   for metadynamics refer to:
   * S. Grimme, J. Chem. Theory Comput., 2019, 155, 2847-2862
     DOI: 10.1021/acs.jctc.9b00143
   
   for SPH calculations refer to:
   * S. Spicher and S. Grimme, J. Chem. Theory Comput., 2021, 17, 1701-1714
     DOI: 10.1021/acs.jctc.0c01306
   
   for ONIOM refer to:
   * C. Plett, A. Katbashev, S. Ehlert, S. Grimme, M. Bursch,
     Phys. Chem. Chem. Phys., 2023, 25, 17860-17868. DOI: 10.1039/D3CP02178E
   
   for DIPRO refer to:
   * J. Kohn, N. Gildemeister, S. Grimme, D. Fazzi, A. Hansen,
     J. Chem. Phys., 2023, just accepted.
   
   for PTB refer to:
   * S. Grimme, M. Mueller, A. Hansen, J. Chem. Phys., 2023, 158, 124111.
     DOI: 10.1063/5.0137838
   
   with help from (in alphabetical order)
   P. Atkinson, C. Bannwarth, F. Bohle, G. Brandenburg, E. Caldeweyher
   M. Checinski, S. Dohm, S. Ehlert, S. Ehrlich, I. Gerasimov, C. Hölzer
   A. Katbashev, J. Kohn, J. Koopman, C. Lavigne, S. Lehtola, F. März, M. Müller,
   F. Musil, H. Neugebauer, J. Pisarek, C. Plett, P. Pracht, F. Pultar,
   J. Seibert, P. Shushkov, S. Spicher, M. Stahn, M. Steiner, T. Strunk,
   J. Stückrath, T. Rose, and J. Unsleber
   
 * started run on 2026/03/16 at 14:18:46.467     
   ID    Z sym.   atoms
    1    6 C      1
    2    1 H      2-4
    3   35 Br     5
    4   53 I      6

           -------------------------------------------------
          |                Calculation Setup                |
           -------------------------------------------------

          program call               : /software/orca-6.1.0-el8-x86_64/bin/otool_xtb product_optfreq_XTB.xyz --grad -c -1 -u 0 -P 8 --namespace product_optfreq --input product_optfreq_XTB.input.tmp --acc 0.200000
          hostname                   : midway3-login4.rcc.local
          calculation namespace      : product_optfreq
          coordinate file            : product_optfreq_XTB.xyz
          omp threads                :                     8


molecular fragmentation (1/2 indicates fragments):
111112
# atoms in fragment 1/2:     5     1
 fragment masses (1/2) :       94.94      126.90
CMA distance (Bohr)    :   9.147
constraining FC (au)   :  0.0500

           -------------------------------------------------
          |                 G F N 2 - x T B                 |
           -------------------------------------------------

        Reference                      10.1021/acs.jctc.8b01176
      * Hamiltonian:
        H0-scaling (s, p, d)           1.850000    2.230000    2.230000
        zeta-weighting                 0.500000
      * Dispersion:
        s8                             2.700000
        a1                             0.520000
        a2                             5.000000
        s9                             5.000000
      * Repulsion:
        kExp                           1.500000    1.000000
        rExp                           1.000000
      * Coulomb:
        alpha                          2.000000
        third order                    shell-resolved
        anisotropic                    true
        a3                             3.000000
        a5                             4.000000
        cn-shift                       1.200000
        cn-exp                         4.000000
        max-rad                        5.000000

q/qsh data taken from xtbrestart
CAMM data taken from xtbrestart

          ...................................................
          :                      SETUP                      :
          :.................................................:
          :  # basis functions                  27          :
          :  # atomic orbitals                  25          :
          :  # shells                           11          :
          :  # electrons                        22          :
          :  max. iterations                   250          :
          :  Hamiltonian                  GFN2-xTB          :
          :  restarted?                       true          :
          :  GBSA solvation                  false          :
          :  PC potential                    false          :
          :  electronic temp.          300.0000000     K    :
          :  accuracy                    0.2000000          :
          :  -> integral cutoff          0.3198970E+02      :
          :  -> integral neglect         0.2000000E-08      :
          :  -> SCF convergence          0.2000000E-06 Eh   :
          :  -> wf. convergence          0.2000000E-04 e    :
          :  Broyden damping             0.4000000          :
          :  net charge                         -1          :
          :  unpaired electrons                  0          :
          ...................................................

 iter      E             dE          RMSdq      gap      omega  full diag
   1    -11.8856026 -0.118856E+02  0.154E-01    2.20       0.0  T
   2    -11.8856052 -0.262396E-05  0.711E-02    2.18       1.0  T
   3    -11.8856055 -0.302304E-06  0.171E-02    2.18       2.4  T
   4    -11.8856056 -0.449515E-07  0.882E-03    2.18       4.6  T
   5    -11.8856056 -0.152168E-07  0.462E-03    2.18       8.8  T
   6    -11.8856056 -0.104015E-07  0.532E-04    2.18      76.7  T
   7    -11.8856056 -0.991704E-10  0.267E-04    2.18     153.2  T
   8    -11.8856056 -0.520330E-10  0.193E-04    2.18     211.0  T
   9    -11.8856056 -0.378702E-10  0.488E-05    2.18     835.9  T

   *** convergence criteria satisfied after 9 iterations ***

         #    Occupation            Energy/Eh            Energy/eV
      -------------------------------------------------------------
         1        2.0000           -0.7208892             -19.6164
       ...           ...                  ...                  ...
         5        2.0000           -0.3791471             -10.3171
         6        2.0000           -0.3628680              -9.8741
         7        2.0000           -0.2880756              -7.8389
         8        2.0000           -0.2880741              -7.8389
         9        2.0000           -0.1762021              -4.7947
        10        2.0000           -0.1712529              -4.6600
        11        2.0000           -0.1712529              -4.6600 (HOMO)
        12                         -0.0912129              -2.4820 (LUMO)
        13                          0.1614468               4.3932
        14                          0.1614470               4.3932
        15                          0.1767736               4.8103
        16                          0.1767769               4.8103
       ...                                ...                  ...
        25                          0.4857607              13.2182
      -------------------------------------------------------------
                  HL-Gap            0.0800400 Eh            2.1780 eV
             Fermi-level           -0.1312329 Eh           -3.5710 eV

 SCC (total)                   0 d,  0 h,  0 min,  0.036 sec
 SCC setup                      ...        0 min,  0.000 sec (  0.714%)
 Dispersion                     ...        0 min,  0.000 sec (  0.146%)
 classical contributions        ...        0 min,  0.000 sec (  0.083%)
 integral evaluation            ...        0 min,  0.034 sec ( 92.660%)
 iterations                     ...        0 min,  0.001 sec (  4.119%)
 molecular gradient             ...        0 min,  0.001 sec (  1.693%)
 printout                       ...        0 min,  0.000 sec (  0.538%)

         :::::::::::::::::::::::::::::::::::::::::::::::::::::
         ::                     SUMMARY                     ::
         :::::::::::::::::::::::::::::::::::::::::::::::::::::
         :: total energy             -11.827181186622 Eh    ::
         :: gradient norm              0.000650744899 Eh/a0 ::
         :: HOMO-LUMO gap              2.177998172286 eV    ::
         ::.................................................::
         :: SCC energy               -11.885606552903 Eh    ::
         :: -> isotropic ES            0.146295041378 Eh    ::
         :: -> anisotropic ES         -0.004623254894 Eh    ::
         :: -> anisotropic XC         -0.004914751541 Eh    ::
         :: -> dispersion             -0.003326209400 Eh    ::
         :: repulsion energy           0.058425366281 Eh    ::
         :: add. restraining           0.000000000000 Eh    ::
         :: total charge              -1.000000000000 e     ::
         :::::::::::::::::::::::::::::::::::::::::::::::::::::


Property printout bound to 'properties.out'

           -------------------------------------------------
          | TOTAL ENERGY              -11.827181186622 Eh   |
          | GRADIENT NORM               0.000650744899 Eh/α |
          | HOMO-LUMO GAP               2.177998172286 eV   |
           -------------------------------------------------

------------------------------------------------------------------------
 * finished run on 2026/03/16 at 14:18:46.550     
------------------------------------------------------------------------
 total:
 * wall-time:     0 d,  0 h,  0 min,  0.083 sec
 *  cpu-time:     0 d,  0 h,  0 min,  0.356 sec
 * ratio c/w:     4.297 speedup
 SCF:
 * wall-time:     0 d,  0 h,  0 min,  0.037 sec
 *  cpu-time:     0 d,  0 h,  0 min,  0.259 sec
 * ratio c/w:     7.104 speedup


-------------------------   --------------------
FINAL SINGLE POINT ENERGY       -11.827181186620
-------------------------   --------------------


-------------
DIPOLE MOMENT
-------------
                                X             Y             Z
Total Dipole Moment    :      0.00000      -0.00000       2.75500
                        -----------------------------------------
Magnitude (a.u.)       :      2.75500
Magnitude (Debye)      :      7.00265


------------------
CARTESIAN GRADIENT
------------------

   1   C   :    0.000005775   -0.000031283   -0.000482645
   2   H   :    0.000002759    0.000017341   -0.000017695
   3   H   :   -0.000043605    0.000012348    0.000000739
   4   H   :    0.000034636    0.000003984   -0.000002831
   5   Br  :    0.000000499   -0.000002700    0.000423531
   6   I   :   -0.000000064    0.000000310    0.000078901

Difference to translation invariance:
           :   -0.0000000000   -0.0000000000    0.0000000000

Difference to rotation invariance:
           :    0.0000000039    0.0000000038    0.0000000000

Norm of the Cartesian gradient     ...    0.0006507449
RMS gradient                       ...    0.0001533820
MAX gradient                       ...    0.0004826451
------------------------------------------------------------------------------
                         ORCA GEOMETRY RELAXATION STEP
------------------------------------------------------------------------------

Reading the OPT-File                    .... done
Getting information on internals        .... done
Copying old internal coords+grads       .... done
Making the new internal coordinates     .... (2022 redundants) done
Validating the new internal coordinates .... (2022 redundants) done
Calculating the B-matrix                .... done
Calculating the G,G- and P matrices     .... done
Transforming gradient to internals      .... done
Projecting the internal gradient        .... done
Number of atoms                         ....   6
Number of internal coordinates          ....  17
Current Energy                          ....   -11.827181187 Eh
Current gradient norm                   ....     0.000650745 Eh/bohr
Maximum allowed component of the step   ....  0.300
Current trust radius                    ....  0.300
Updating the Hessian (BFGS)             .... done
Forming the augmented Hessian           .... done
Diagonalizing the augmented Hessian     .... done
Last element of RFO vector              ....  0.999917539
Lowest eigenvalues of augmented Hessian:
 -0.000001456  0.004606324  0.042341169  0.042383150  0.191334893
Length of the computed step             ....  0.012843008
The final length of the internal step   ....  0.012843008
Converting the step to Cartesian space:
 Initial RMS(Int)=    0.0031148870
Transforming coordinates:
 Iter   0:  RMS(Cart)=    0.0014022352 RMS(Int)=    0.0031150268
done
Storing new coordinates                 .... done
The predicted energy change is          ....    -0.000000728
Previously predicted energy change      ....    -0.000012449
Actually observed energy change         ....    -0.000014119
Ratio of predicted to observed change   ....     1.134207742
New trust radius                        ....     0.450000000

                                .--------------------.
          ----------------------|Geometry convergence|-------------------------
          Item                value                   Tolerance       Converged
          ---------------------------------------------------------------------
          Energy change      -0.0000141194            0.0000050000      NO
          RMS gradient        0.0001043164            0.0001000000      NO
          MAX gradient        0.0004235308            0.0003000000      NO
          RMS step            0.0031148870            0.0020000000      NO
          MAX step            0.0066268797            0.0040000000      NO
          -------------------------------------------------------------------------
          ........................................................
          Max(Bonds)      0.0035      Max(Angles)    0.01
          Max(Dihed)        0.00      Max(Improp)    0.00
          ---------------------------------------------------------------------

The optimization has not yet converged - more geometry cycles are needed


    ---------------------------------------------------------------------------
                         Redundant Internal Coordinates
                            (Angstroem and degrees)

        Definition                    Value    dE/dq     Step     New-Value
    ----------------------------------------------------------------------------
     1. B(H   1,C   0)                1.0806  0.000023  0.0000    1.0806   
     2. B(H   2,C   0)                1.0805 -0.000041  0.0001    1.0806   
     3. B(H   3,C   0)                1.0806 -0.000029  0.0001    1.0806   
     4. B(Br  4,C   0)                1.9716  0.000424 -0.0012    1.9704   
     5. B(I   5,H   3)                3.0487 -0.000018  0.0033    3.0520   
     6. B(I   5,H   2)                3.0487 -0.000018  0.0033    3.0520   
     7. B(I   5,H   1)                3.0486 -0.000018  0.0033    3.0519   
     8. B(I   5,C   0)                3.1915 -0.000028  0.0035    3.1951   
     9. A(H   1,C   0,H   3)          111.49  0.000017   -0.00    111.49   
    10. A(H   2,C   0,H   3)          111.48 -0.000015    0.01    111.49   
    11. A(H   1,C   0,Br  4)          107.37  0.000002   -0.00    107.37   
    12. A(H   2,C   0,Br  4)          107.37 -0.000009    0.00    107.37   
    13. A(H   3,C   0,Br  4)          107.37 -0.000007    0.00    107.37   
    14. A(H   1,C   0,I   5)           72.63  0.000003   -0.00     72.63   
    15. A(H   2,C   0,I   5)           72.63  0.000005   -0.00     72.63   
    16. A(H   3,C   0,I   5)           72.63  0.000005   -0.00     72.63   
    17. A(H   1,C   0,H   2)          111.49  0.000010   -0.00    111.49   
    ----------------------------------------------------------------------------

Geometry step timings:
Preparation and reading OPT file:      0.000 s ( 3.365 %)
Internal coordinates            :      0.000 s ( 4.974 %)
B/P matrices and projection     :      0.000 s (12.729 %)
Hessian update/contruction      :      0.000 s (26.262 %)
Making the step                 :      0.000 s ( 8.193 %)
Converting the step to Cartesian:      0.000 s ( 2.560 %)
Storing new data                :      0.000 s ( 6.950 %)
Checking convergence            :      0.000 s ( 8.925 %)
Final printing                  :      0.000 s (26.042 %)
Total time                      :      0.001 s

Time for energy+gradient        :      0.095 s
Time for complete geometry iter :      0.098 s

         *************************************************************
         *                GEOMETRY OPTIMIZATION CYCLE   4            *
         *************************************************************
---------------------------------
CARTESIAN COORDINATES (ANGSTROEM)
---------------------------------
  C     0.000003    0.000001    0.385256
  H     0.000009    1.031359    0.062622
  H     0.893156   -0.515691    0.062669
  H    -0.893149   -0.515699    0.062659
  Br   -0.000006    0.000046    2.355696
  I    -0.000011    0.000069   -2.809799

----------------------------
CARTESIAN COORDINATES (A.U.)
----------------------------
  NO LB    ZA    FRAG    MASS        X           Y           Z
   0 C   6.0000    0    12.011    0.000005    0.000001    0.728029
   1 H   1.0000    0     1.008    0.000017    1.948985    0.118338
   2 H   1.0000    0     1.008    1.687820   -0.974515    0.118428
[...]
        25                          0.4876368              13.2693
      -------------------------------------------------------------
                  HL-Gap            0.0799755 Eh            2.1762 eV
             Fermi-level           -0.1310446 Eh           -3.5659 eV

 SCC (total)                   0 d,  0 h,  0 min,  0.051 sec
 SCC setup                      ...        0 min,  0.000 sec (  0.424%)
 Dispersion                     ...        0 min,  0.000 sec (  0.096%)
 classical contributions        ...        0 min,  0.000 sec (  0.057%)
 integral evaluation            ...        0 min,  0.049 sec ( 96.036%)
 iterations                     ...        0 min,  0.001 sec (  1.825%)
 molecular gradient             ...        0 min,  0.001 sec (  1.234%)
 printout                       ...        0 min,  0.000 sec (  0.292%)

         :::::::::::::::::::::::::::::::::::::::::::::::::::::
         ::                     SUMMARY                     ::
         :::::::::::::::::::::::::::::::::::::::::::::::::::::
         :: total energy             -11.827182464080 Eh    ::
         :: gradient norm              0.000300601321 Eh/a0 ::
         :: HOMO-LUMO gap              2.176244661121 eV    ::
         ::.................................................::
         :: SCC energy               -11.885631799026 Eh    ::
         :: -> isotropic ES            0.146491359144 Eh    ::
         :: -> anisotropic ES         -0.004646571773 Eh    ::
         :: -> anisotropic XC         -0.005010036428 Eh    ::
         :: -> dispersion             -0.003324177868 Eh    ::
         :: repulsion energy           0.058449334946 Eh    ::
         :: add. restraining           0.000000000000 Eh    ::
         :: total charge              -1.000000000000 e     ::
         :::::::::::::::::::::::::::::::::::::::::::::::::::::

           ------------------------------------------------- 
          |                Numerical Hessian                |
           ------------------------------------------------- 
step length          :   0.00500
SCC accuracy         :   0.30000
Hessian scale factor :   1.00000
frozen atoms in %    :   0.00000    0
RMS gradient         :   0.00030
estimated CPU  time      0.00 min
estimated wall time      0.00 min

writing file <hessian>.

 projected vibrational frequencies (cm⁻¹)
eigval :       -0.00    -0.00    -0.00     0.00     0.00     0.00
eigval :       88.39   103.70   103.72   456.75   949.34   949.35
eigval :     1275.10  1433.57  1433.59  3078.55  3101.77  3101.83

Property printout bound to 'properties.out'
Molecule has the following symmetry elements: (C3) 3*(sigma) 
It seems to be the C3v point group

           -------------------------------------------------
          | TOTAL ENERGY              -11.827182464080 Eh   |
          | TOTAL ENTHALPY            -11.784197333973 Eh   |
          | TOTAL FREE ENERGY         -11.821421547118 Eh   |
          | GRADIENT NORM               0.000300605962 Eh/α |
          | HOMO-LUMO GAP               2.176244710368 eV   |
           -------------------------------------------------

------------------------------------------------------------------------
 * finished run on 2026/03/16 at 14:18:46.769     
------------------------------------------------------------------------
 total:
 * wall-time:     0 d,  0 h,  0 min,  0.078 sec
 *  cpu-time:     0 d,  0 h,  0 min,  0.283 sec
 * ratio c/w:     3.609 speedup
 SCF:
 * wall-time:     0 d,  0 h,  0 min,  0.051 sec
 *  cpu-time:     0 d,  0 h,  0 min,  0.089 sec
 * ratio c/w:     1.736 speedup
 analytical hessian:
 * wall-time:     0 d,  0 h,  0 min,  0.015 sec
 *  cpu-time:     0 d,  0 h,  0 min,  0.118 sec
 * ratio c/w:     7.887 speedup


-------------------------   --------------------
FINAL SINGLE POINT ENERGY       -11.827182464080
-------------------------   --------------------


-------------
DIPOLE MOMENT
-------------
                                X             Y             Z
Total Dipole Moment    :      0.00000      -0.00000       2.76700
                        -----------------------------------------
Magnitude (a.u.)       :      2.76700
Magnitude (Debye)      :      7.03316


-----------------------
VIBRATIONAL FREQUENCIES
-----------------------

Scaling factor for frequencies =  1.000000000  (already applied!)

     0:       0.00 cm**-1
     1:       0.00 cm**-1
     2:       0.00 cm**-1
     3:       0.00 cm**-1
     4:       0.00 cm**-1
     5:       0.00 cm**-1
     6:      88.40 cm**-1
     7:     103.70 cm**-1
     8:     103.72 cm**-1
     9:     456.74 cm**-1
    10:     949.31 cm**-1
    11:     949.33 cm**-1
    12:    1275.06 cm**-1
    13:    1433.53 cm**-1
    14:    1433.55 cm**-1
    15:    3078.46 cm**-1
    16:    3101.68 cm**-1
    17:    3101.74 cm**-1


------------
NORMAL MODES
------------

These modes are the Cartesian displacements weighted by the diagonal matrix
M(i,i)=1/sqrt(m[i]) where m[i] is the mass of the displaced atom
Thus, these vectors are normalized but *not* orthogonal

                  0          1          2          3          4          5    
      0       0.000000   0.000000   0.000000   0.000000   0.000000   0.000000
      1       0.000000   0.000000   0.000000   0.000000   0.000000   0.000000
      2       0.000000   0.000000   0.000000   0.000000   0.000000   0.000000
      3       0.000000   0.000000   0.000000   0.000000   0.000000   0.000000
      4       0.000000   0.000000   0.000000   0.000000   0.000000   0.000000
      5       0.000000   0.000000   0.000000   0.000000   0.000000   0.000000
      6       0.000000   0.000000   0.000000   0.000000   0.000000   0.000000
      7       0.000000   0.000000   0.000000   0.000000   0.000000   0.000000
      8       0.000000   0.000000   0.000000   0.000000   0.000000   0.000000
      9       0.000000   0.000000   0.000000   0.000000   0.000000   0.000000
     10       0.000000   0.000000   0.000000   0.000000   0.000000   0.000000
     11       0.000000   0.000000   0.000000   0.000000   0.000000   0.000000
     12       0.000000   0.000000   0.000000   0.000000   0.000000   0.000000
     13       0.000000   0.000000   0.000000   0.000000   0.000000   0.000000
     14       0.000000   0.000000   0.000000   0.000000   0.000000   0.000000
     15       0.000000   0.000000   0.000000   0.000000   0.000000   0.000000
     16       0.000000   0.000000   0.000000   0.000000   0.000000   0.000000
     17       0.000000   0.000000   0.000000   0.000000   0.000000   0.000000
                  6          7          8          9         10         11    
      0       0.000044   0.422849   0.004244  -0.000003   0.104262  -0.003390
      1      -0.000258   0.004244  -0.422852   0.000031   0.003390   0.104264
      2       0.454616  -0.000003  -0.000010   0.674616   0.000001  -0.000006
      3       0.000051   0.494461   0.004939  -0.000002  -0.246000   0.008000
      4      -0.009131   0.004997  -0.497838  -0.053687  -0.004892  -0.150461
      5       0.402389   0.002316  -0.230891   0.417243  -0.024667  -0.758631
      6      -0.007588   0.496879   0.006514  -0.046509  -0.175684  -0.035718
      7       0.004105   0.003356  -0.495201   0.026866  -0.048613  -0.220780
      8       0.402641   0.198785   0.117435   0.417297  -0.644655   0.400665
      9       0.007691   0.496910   0.003484   0.046506  -0.172991   0.047052
     10       0.004105   0.006585  -0.495210   0.026866   0.034169  -0.223469
     11       0.402595  -0.201110   0.113420   0.417287   0.669326   0.357937
     12      -0.000005  -0.048902  -0.000491   0.000001  -0.008391   0.000273
     13       0.000028  -0.000491   0.048902  -0.000004  -0.000273  -0.008391
     14       0.443612  -0.000005  -0.000030  -0.117830  -0.000000   0.000001
     15      -0.000002  -0.021054  -0.000211  -0.000000   0.000138  -0.000005
     16       0.000014  -0.000211   0.021054  -0.000000   0.000005   0.000138
     17      -0.331933   0.000003   0.000020   0.000394  -0.000000   0.000000
                 12         13         14         15         16         17    
      0      -0.000000  -0.000821   0.072491  -0.000020   0.092161  -0.005091
      1      -0.000003  -0.072488  -0.000821   0.000158  -0.005091  -0.092160
      2      -0.088921   0.000003  -0.000000   0.035332   0.000012   0.000066
      3       0.000000   0.008475  -0.748368  -0.000010   0.041133  -0.002269
      4       0.173143  -0.121241  -0.001370   0.555054   0.042952   0.775166
      5       0.548344  -0.297235  -0.003366  -0.152409  -0.013353  -0.241067
      6       0.149955   0.377625  -0.091904   0.482578  -0.589670  -0.320642
      7      -0.086549   0.535231  -0.370528  -0.278547   0.361923   0.142676
      8       0.548381   0.145672   0.259073  -0.153063   0.215109   0.108586
      9      -0.149954  -0.375442  -0.100427  -0.482327  -0.550998   0.383655
     10      -0.086549   0.526708   0.382555  -0.278391  -0.344132   0.181675
     11       0.548379   0.151502  -0.255708  -0.152970  -0.201912   0.131623
     12       0.000000  -0.000011   0.000982  -0.000000   0.000053  -0.000003
     13      -0.000000  -0.000982  -0.000011   0.000000  -0.000003  -0.000053
     14      -0.006024   0.000000   0.000000   0.000330   0.000000   0.000001
     15      -0.000000   0.000000  -0.000007   0.000000  -0.000023   0.000001
     16       0.000000   0.000007   0.000000  -0.000000   0.000001   0.000023
     17      -0.000858   0.000000   0.000000   0.000089   0.000000   0.000000


The first frequency considered to be a vibration is 6
The total number of vibrations considered is 12


--------------------------
THERMOCHEMISTRY AT 298.15K
--------------------------

Temperature         ...   298.15 K
Pressure            ...     1.00 atm
Total Mass          ...   221.84 AMU
Quasi RRHO          ...     True
Cut-Off Frequency   ...     1.00 cm^-1

Throughout the following assumptions are being made:
  (1) The electronic state is orbitally nondegenerate
  (2) There are no thermally accessible electronically excited states
  (3) Hindered rotations indicated by low frequency modes are not
      treated as such but are treated as vibrations and this may
      cause some error
  (4) All equations used are the standard statistical mechanics
      equations for an ideal gas
  (5) All vibrations are strictly harmonic

freq.      88.40  E(vib)   ...       0.48 
freq.     103.70  E(vib)   ...       0.46 
freq.     103.72  E(vib)   ...       0.46 
freq.     456.74  E(vib)   ...       0.16 
freq.     949.31  E(vib)   ...       0.03 
freq.     949.33  E(vib)   ...       0.03 
freq.    1275.06  E(vib)   ...       0.01 
freq.    1433.53  E(vib)   ...       0.00 
freq.    1433.55  E(vib)   ...       0.00 
freq.    3078.46  E(vib)   ...       0.00 
freq.    3101.68  E(vib)   ...       0.00 
freq.    3101.74  E(vib)   ...       0.00 

------------
INNER ENERGY
------------

The inner energy is: U= E(el) + E(ZPE) + E(vib) + E(rot) + E(trans)
    E(el)   - is the total energy from the electronic structure calculation
              = E(kin-el) + E(nuc-el) + E(el-el) + E(nuc-nuc)
    E(ZPE)  - the the zero temperature vibrational energy from the frequency calculation
    E(vib)  - the the finite temperature correction to E(ZPE) due to population
              of excited vibrational states
    E(rot)  - is the rotational thermal energy
    E(trans)- is the translational thermal energy

Summary of contributions to the inner energy U:
Electronic energy                ...    -11.82718246 Eh
Zero point energy                ...      0.03662207 Eh      22.98 kcal/mol
Thermal vibrational correction   ...      0.00258527 Eh       1.62 kcal/mol
Thermal rotational correction    ...      0.00141627 Eh       0.89 kcal/mol
Thermal translational correction ...      0.00141627 Eh       0.89 kcal/mol
-----------------------------------------------------------------------
Total thermal energy                    -11.78514258 Eh


Summary of corrections to the electronic energy:
(perhaps to be used in another calculation)
Total thermal correction                  0.00541782 Eh       3.40 kcal/mol
Non-thermal (ZPE) correction              0.03662207 Eh      22.98 kcal/mol
-----------------------------------------------------------------------
Total correction                          0.04203989 Eh      26.38 kcal/mol


--------
ENTHALPY
--------

The enthalpy is H = U + kB*T
                kB is Boltzmann's constant
Total thermal energy              ...    -11.78514258 Eh 
Thermal Enthalpy correction       ...      0.00094421 Eh       0.59 kcal/mol
-----------------------------------------------------------------------
Total Enthalpy                    ...    -11.78419837 Eh


WARNING (ORCA/SYM): The number of Z matrix atoms does not agree with
the number of centers in the basis set. The point group will therefore
be determined without considering basis set information.


Note: Rotational entropy computed according to Herzberg 
Infrared and Raman Spectra, Chapter V,1, Van Nostrand Reinhold, 1945 
Point Group:  Cs, Symmetry Number:   1  
Rotational constants in cm-1:     5.241197     0.012691     0.012691 

Vibrational entropy computed according to the QRRHO of S. Grimme
Chem.Eur.J. 2012 18 9955 using a reference frequency of 100.0 cm-1


-------
ENTROPY
-------

The entropy contributions are T*S = T*(S(el)+S(vib)+S(rot)+S(trans))
     S(el)   - electronic entropy
     S(vib)  - vibrational entropy
     S(rot)  - rotational entropy
     S(trans)- translational entropy
The entropies will be listed as multiplied by the temperature to get
units of energy

Electronic entropy                ...      0.00000000 Eh      0.00 kcal/mol
Vibrational entropy               ...      0.00501785 Eh      3.15 kcal/mol
Rotational entropy                ...      0.01285185 Eh      8.06 kcal/mol
Translational entropy             ...      0.01999968 Eh     12.55 kcal/mol
-----------------------------------------------------------------------
Final entropy term                ...      0.03786938 Eh     23.76 kcal/mol

In case the symmetry of your molecule has not been determined correctly
or in case you have a reason to use a different symmetry number we print 
out the resulting rotational entropy values for sn=1,12:

 non-linear molecules -----------------------------------
|  sn= 1 | S(rot)=       0.01285185 Eh      8.06 kcal/mol|
|  sn= 2 | S(rot)=       0.01219740 Eh      7.65 kcal/mol|
|  sn= 3 | S(rot)=       0.01181456 Eh      7.41 kcal/mol|
|  sn= 4 | S(rot)=       0.01154294 Eh      7.24 kcal/mol|
|  sn= 5 | S(rot)=       0.01133225 Eh      7.11 kcal/mol|
|  sn= 6 | S(rot)=       0.01116011 Eh      7.00 kcal/mol|
|  sn= 7 | S(rot)=       0.01101456 Eh      6.91 kcal/mol|
|  sn= 8 | S(rot)=       0.01088848 Eh      6.83 kcal/mol|
|  sn= 9 | S(rot)=       0.01077728 Eh      6.76 kcal/mol|
|  sn=10 | S(rot)=       0.01067780 Eh      6.70 kcal/mol|
|  sn=11 | S(rot)=       0.01058781 Eh      6.64 kcal/mol|
|  sn=12 | S(rot)=       0.01050565 Eh      6.59 kcal/mol|
 linear molecules ---------------------------------------
|  Dinfh | S(rot)=       0.00944889 Eh      5.93 kcal/mol|
|  Cinfv | S(rot)=       0.01010335 Eh      6.34 kcal/mol|
 --------------------------------------------------------


-------------------
GIBBS FREE ENERGY
-------------------

The Gibbs free energy is G = H - T*S

Total enthalpy                    ...    -11.78419837 Eh 
Total entropy correction          ...     -0.03786938 Eh    -23.76 kcal/mol
-----------------------------------------------------------------------
Final Gibbs free energy         ...    -11.82206774 Eh

For completeness - the Gibbs free energy minus the electronic energy
G-E(el)                           ...      0.00511472 Eh      3.21 kcal/mol


--------------------------------
SUGGESTED CITATIONS FOR THIS RUN
--------------------------------

Below you find a list of papers that are relevant to this ORCA run
We neither can nor want to force you to cite these papers, but we appreciate if you do
You receive ORCA, which is the product of decades of hard work by many enthusiastic individuals, for free
The only thing we kindly ask in return is that you cite our papers,
We deeply appreciate it, if you show your appreciation for ORCA by not just citing the generic ORCA reference.

Please note that relegating all ORCA citations to the supporting information does *not* help us.
SI sections are not indexed - citations you put there will not count into any citation statistics
But we need these citations in order to attract the funding resources that allow us to do what we are doing

Therefore, if you are a happy ORCA user, please consider citing a few of the papers listed below in the main body of your paper

In addition to the list printed below, the program has created the file product_optfreq.bibtex that contains the list in bibtex format
You can import this file easily into all common literature databanks and citation aid programs


List of essential papers. We consider these as the minimum necessary citations

  1. Bannwarth, C.; Ehlert, S.; Grimme, S.
     GFN2-xTB—An Accurate and Broadly Parametrized Self-Consistent Tight-Binding Quantum Chemical Method with Multipole Electrostatics and Density-Dependent Dispersion Contributions
     J. Chem. Theory Comput. 2019 15(3), 1652-1671
     doi.org/10.1021/acs.jctc.8b01176
  2. Neese, F.
     Software update: the ORCA program system, version 6.0
     WIRES Comput. Molec. Sci. 2025 15(1), e70019
     doi.org/10.1002/wcms.7019

List of papers to cite with high priority. The work reported in these papers was absolutely
necessary for this run to complete.
Our perspective: the developers of density functionals and basis sets usually get cited in chemistry papers
Good! But without the algorithms to do something with them, the functionals or basis sets would not do anything.
Hence, in our opinion, the algorithm design and method developments papers are equally worthy of getting cited

  1. Bykov, D.; Petrenko, T.; Izsak, R.; Kossmann, S.; Becker, U.; Valeev, E.; Neese, F.
     Efficient implementation of the analytic second derivatives of Hartree-Fock and hybrid DFT energies: a detailed analysis of different approximations
     Molec. Phys. 2015 113 , 1961-1977
     doi.org/10.1080/00268976.2015.1025114
  2. Bannwarth, C.; Caldeweyher, E.; Ehlert, S.; Hansen, A.; Pracht, P.; Seibert, J.; Spicher, S.; Grimme, S.
     Extended tight-binding quantum chemistry methods
     WIRES Comput. Molec. Sci. 2020 11(2), e1493
     doi.org/10.1002/wcms.1493

List of suggested additional citations. These are papers that are important in the 'surrounding' of 
of this run, or papers that preceded the highly important papers. If you like your results we are grateful for a citation.

  1. Neese, F.
     The ORCA program system
     WIRES Comput. Molec. Sci. 2012 2(1), 73-78
     doi.org/10.1002/wcms.81
  2. Neese, F.
     Software update: the ORCA program system, version 4.0
     WIRES Comput. Molec. Sci. 2018 8(1), 1-6
     doi.org/10.1002/wcms.1327
  3. Neese, F.; Wennmohs, F.; Becker, U.; Riplinger, C.
     The ORCA quantum chemistry program package
     J. Chem. Phys. 2020 152(22), 224108
     doi.org/10.1063/5.0004608
  4. Neese, F.
     Software update: The ORCA program system—Version 5.0
     WIRES Comput. Molec. Sci. 2022 12(1), e1606
     doi.org/10.1002/wcms.1606

List of optional additional citations

  1. Neese, F.
     Approximate second-order SCF convergence for spin unrestricted wavefunctions
     Chem. Phys. Lett. 2000 325(1-3), 93-98
     doi.org/10.1016/s0009-2614(00)00662-x

Timings for individual modules:

Sum of individual times          ...        0.493 sec (=   0.008 min)
Geometry relaxation              ...        0.013 sec (=   0.000 min)   2.6 %
XTB module                       ...        0.480 sec (=   0.008 min)  97.4 %
                             ****ORCA TERMINATED NORMALLY****
TOTAL RUN TIME: 0 days 0 hours 0 minutes 0 seconds 889 msec
