
                                 *****************
                                 * O   R   C   A *
                                 *****************

                                            #,                                       
                                            ###                                      
                                            ####                                     
                                            #####                                    
                                            ######                                   
                                           ########,                                 
                                     ,,################,,,,,                         
                               ,,#################################,,                 
                          ,,##########################################,,             
                       ,#########################################, ''#####,          
                    ,#############################################,,   '####,        
                  ,##################################################,,,,####,       
                ,###########''''           ''''###############################       
              ,#####''   ,,,,##########,,,,          '''####'''          '####       
            ,##' ,,,,###########################,,,                        '##       
           ' ,,###''''                  '''############,,,                           
         ,,##''                                '''############,,,,        ,,,,,,###''
      ,#''                                            '''#######################'''  
     '                                                          ''''####''''         
             ,#######,   #######,   ,#######,      ##                                
            ,#'     '#,  ##    ##  ,#'     '#,    #''#        ,####,    ,#,          
            ##       ##  ##   ,#'  ##            #'  '#       #'       ,# #          
            ##       ##  #######   ##           ,######,      #####,      #          
            '#,     ,#'  ##    ##  '#,     ,#' ,#      #,     #,   #      #          
             '#######'   ##     ##  '#######'  #'      '#     '####' #    #          



                #########################################################
                #                        -***-                          #
                #          Department of theory and spectroscopy        #
                #                                                       #
                #                      Frank Neese                      #
                #                                                       #
                #     Directorship, Architecture, Infrastructure        #
                #                    SHARK, DRIVERS                     #
                #        Core code/Algorithms in most modules           #
                #                                                       #
                #        Max Planck Institute fuer Kohlenforschung      #
                #                Kaiser Wilhelm Platz 1                 #
                #                 D-45470 Muelheim/Ruhr                 #
                #                      Germany                          #
                #                                                       #
                #                  All rights reserved                  #
                #                        -***-                          #
                #########################################################


                         Program Version 6.1.0  -  RELEASE   -
                                (GIT: $679e74b$)
                          ($2025-06-10 18:02:51 +0200$)


 With contributions from (in alphabetic order):
[Max-Planck-Institut fuer Kohlenforschung]                               
  Daniel Aravena         : Magnetic Suceptibility                        
  Michael Atanasov       : Ab Initio Ligand Field Theory (pilot matlab implementation)
  Alexander A. Auer      : GIAO ZORA, VPT2 properties, NMR spectrum      
  Ute Becker             : All parallelization in ORCA, NUMFREQ, NUMCALC 
  Giovanni Bistoni       : ED, misc. LED, open-shell LED, HFLD           
  Dmytro Bykov           : pre 5.0 version of the SCF Hessian            
  Marcos Casanova-Páez   : Triplet and SCS-CIS(D). UHF-(DLPNO)-IP/EA/STEOM-CCSD. UHF-CVS-IP/STEOM-CCSD   
  Vijay G. Chilkuri      : MRCI spin determinant printing, contributions to CSF-ICE 
  Pauline Colinet        : FMM embedding                                 
  Dipayan Datta          : RHF DLPNO-CCSD density                        
  Achintya Kumar Dutta   : EOM-CC, STEOM-CC                              
  Nicolas Foglia         : Exact transition moments, OPA infrastructure, MCD improvements    
  Dmitry Ganyushin       : Spin-Orbit,Spin-Spin,Magnetic field MRCI      
  Miquel Garcia-Rates    : C-PCM and meta-GGA Hessian, CCSD/C-PCM, Gaussian charge scheme 
  Tiago L. C. Gouveia    : GS-ROHF, GS-ROCIS                             
  Yang Guo               : DLPNO-NEVPT2, F12-NEVPT2, CIM, IAO-localization        
  Andreas Hansen         : Spin unrestricted coupled pair/coupled cluster methods 
  Ingolf Harden          : AUTO-CI MPn and infrastructure                
  Benjamin Helmich-Paris : MC-RPA, TRAH-(SCF,CASSCF), AVAS, COSX integrals, SCF dyn. polar., MC-PDFT, srDFT 
  Lee Huntington         : MR-EOM, pCC                                   
  Robert Izsak           : Overlap fitted RIJCOSX, COSX-SCS-MP3, EOM     
  Riya Kayal             : Wick's Theorem for AUTO-CI, AUTO-CI UHF-CCSDT 
  Emily Kempfer          : AUTO-CI RHF CISDT and CCSDT, approximate NEVPT4
  Christian Kollmar      : KDIIS, OOCD, Brueckner-CCSD(T), CCSD density, CASPT2, CASPT2-K, improved NEVPT2 
  Axel Koslowski         : Symmetry handling                             
  Simone Kossmann        : meta-GGA functionals, TD-DFT gradient, OOMP2, (MP2 Hessian; deprecated post 5.0) 
  Lucas Lang             : DCDCAS, Hyperfine gauge corrections, ICE-SOC+SSC
  Marvin Lechner         : AUTO-CI (C++ implementation), FIC-MRCC        
  Spencer Leger          : CASSCF response                               
  Dagmar Lenk            : GEPOL surface, SMD, ORCA-2-JSON               
  Dimitrios Liakos       : Extrapolation schemes; Compound Job, Property file
  Dimitrios Manganas     : Further ROCIS development; embedding schemes. LFT, Crystal Embedding 
  Dimitrios Pantazis     : SARC Basis sets                               
  Anastasios Papadopoulos: AUTO-CI, single reference methods and gradients 
  Taras Petrenko         : pre 6.0 DFT Hessian and TD-DFT gradient,  ECA, NRVS 
  Petra Pikulova         : Analytic Raman intensities                    
  Peter Pinski           : DLPNO-MP2, DLPNO-MP2 Gradient                 
  Shashank Vittal Rao    : ES-AILFT, MagRelax                            
  Christoph Reimann      : Effective Core Potentials                     
  Marius Retegan         : Local ZFS, SOC                                
  Christoph Riplinger    : Optimizer, TS searches, QM/MM, DLPNO-CCSD(T), (RO)-DLPNO pert. Triples 
  Michael Roemelt        : Original ROCIS implementation, recursive CI coupling coefficients
  Masaaki Saitow         : Open-shell DLPNO-CCSD energy and density      
  Barbara Sandhoefer     : DKH picture change effects                    
  Yorick L. A. Schmerwitz: GMF and freeze-and-release deltaSCF, NEB S-IDPP initial path                    
  Kantharuban Sivalingam : CASSCF convergence/infrastructure, NEVPT2, NEVPT3, NEVPT4(SD), FIC-MRCI and CEPA variants
  Bernardo de Souza      : ESD, SOC TD-DFT                               
  Georgi L. Stoychev     : AutoAux, RI-MP2 NMR, DLPNO-MP2 response, X2C  
  Van Anh Tran           : RI-MP2 g-tensors                              
  Willem Van den Heuvel  : Paramagnetic NMR                              
  Zikuan Wang            : NOTCH, Electric field optimization            
  Frank Wennmohs         : Technical directorship and infrastructure     
  Hang Xu                : AUTO-CI-Response properties                   
                                                                         
[FACCTs GmbH]                                                            
  Markus Bursch, Nicolas Foglia, Miquel Garcia-Rates, Ingolf Harden, Hagen Neugebauer, Anastasios Papadopoulos, 
  Christoph Riplinger, Bernardo de Souza, Georgi L. Stoychev                                                    
                                                                 
  APM, various basis sets, CI-OPT, improved COSX, DLPNO-Multilevel,           
  DOCKER, DRACO, updates on ESD, Fragmentator, GOAT, IRC, LR-CPCM, L-BFGS, MBIS, meta-GGA TD-DFT gradient, ML-optimized integration grids, 
  MM, NACMEs, nearIR, NEB, NEB-TS, NL-DFT gradient (VV10), 2- and 3-layer-ONIOM, interface openCOSMO-RS, QMMM,   
  Crystal-QMMM, RESP, rigid body optimization, SF, symmetry and pop. for TD-DFT, various functionals, SOLVATOR                                   
                                                                         
[Other institutions]                                                     
  V. Asgeirsson          : NEB                                           
  Christoph Bannwarth    : sTDA-DFT, sTD-DFT, PBEh-3c, B97-3c, D3        
  Giovanni Bistoni       : ETS/NOCV, ADLD/ADEX, COVALED                  
  Martin Brehm           : Molecular dynamics                            
  Ronald Cardenas        : ETS/NOCV                                      
  Martina Colucci        : COVALED                                       
  Sebastian Ehlert       : rSCAN, r2SCAN, r2SCAN-3c, D4, dhf basis sets  
  Marvin Friede          : D4 for Fr, Ra, Ac-Lr                          
  Lars Goerigk           : TD-DFT with DH, B97 family of functionals     
  Stefan Grimme          : VdW corrections, initial TS optimization, DFT functionals, gCP, sTDA/sTD-DF 
  Waldemar Hujo          : DFT-NL                                        
  H. Jonsson             : NEB                                           
  Holger Kruse           : gCP                                           
  Marcel Mueller         : wB97X-3c, vDZP basis set                      
  Hagen Neugebauer       : wr2SCAN, Native XTB                           
  Gianluca Regni         : ADLD/ADEX                                     
  Tobias Risthaus        : pre 6.0 range-separated hybrid DFT and stability analysis
  Lukas Wittmann         : regularized MP2, r2SCAN double-hybrids, wr2SCAN        
                                                                         
We gratefully acknowledge several colleagues who have allowed us to      
interface, adapt or use parts of their codes:                            
  Ed Valeev, F. Pavosevic, A. Kumar             : LibInt (2-el integral package), F12 methods 
  Garnet Chan, S. Sharma, J. Yang, R. Olivares  : DMRG                   
  Ulf Ekstrom                                   : XCFun DFT Library      
  Mihaly Kallay                                 : mrcc  (arbitrary order and MRCC methods)
  Frank Weinhold                                : gennbo (NPA and NBO analysis)           
  Simon Mueller                                 : openCOSMO-RS                            
  Christopher J. Cramer and Donald G. Truhlar   : smd solvation model                     
  S Lehtola, MJT Oliveira, MAL Marques          : LibXC Library                           
  Liviu Ungur et al                             : ANISO software                          


 Your calculation uses the libint2 library for the computation of 2-el integrals
 For citations please refer to: http://libint.valeyev.net

 Your ORCA version has been built with support for libXC version: 7.0.0
 For citations please refer to: https://libxc.gitlab.io

 This ORCA versions uses:
   CBLAS   interface :  Fast vector & matrix operations
   LAPACKE interface :  Fast linear algebra routines
   SCALAPACK package :  Parallel linear algebra routines
   Shared memory     :  Shared parallel matrices
   BLAS/LAPACK       :  OpenBLAS 0.3.29  USE64BITINT DYNAMIC_ARCH NO_AFFINITY SkylakeX SINGLE_THREADED
        Core in use  :  SkylakeX
   Copyright (c) 2011-2014, The OpenBLAS Project


  ***********************************
  * Starting time: Thu Mar 12 12:40:51 2026
  * Host name:     midway3-login4.rcc.local
  * Process ID:    2748096
  * Working dir.:  /home/rzhu16/orca_TS_search/sn2_br_i/geo_opt_reactant_product
  ***********************************

Your calculation utilizes the semiempirical GFN2-xTB method
Please cite in your paper:
Bannwarth, C.; Ehlert S.; Grimme, S. J. Chem. Theory Comput. 2019, 15, 1652.
   

================================================================================

cite the ECPs for I  [Def2-ECP] as follows:
Ce-Yb(ecp-28): M. Dolg, H. Stoll, H.Preuss, J. Chem. Phys., 1989, 90, 1730-1734.
Y-Cd(ecp-28), Hf-Hg(ecp-46): D. Andrae,U. Haeussermann, M. Dolg, H. Stoll, H. Preuss, Theor. Chim. Acta, 1990, 77, 123-141.
In-Sb(ecp-28), Tl-Bi(ecp-46): B. Metz, H. Stoll, M. Dolg, J. Chem. Phys., 2000, 113, 2563-2569.
Te-Xe(ecp-28), Po-Rn(ecp-46): K. A. Peterson, D. Figgen, E. Goll, H. Stoll, M. Dolg, J. Chem. Phys., 2003, 119, 11113-11123.
Rb(ecp-28), Cs(ecp-46): T. Leininger, A. Nicklass, W. Kuechle, H. Stoll, M. Dolg, A. Bergner, Chem. Phys. Lett., 1996, 255, 274-280.
Sr(ecp-28), Ba(ecp-46): M. Kaupp, P. V. Schleyer, H. Stoll and H. Preuss, J. Chem. Phys., 1991, 94, 1360-1366.
La(ecp-46): M. Dolg, H. Stoll, A. Savin, H. Preuss, Theor. Chim. Acta, 1989, 75, 173-194.
Lu(ecp-28): X. Cao, M. Dolg, J. Chem. Phys., 2001, 115, 7348-7355.

ECP parameters for I  [Def2-ECP] have been obtained from:
TURBOMOLE (7.0.2)

================================================================================
                                        WARNINGS
                       Please study these warnings very carefully!
================================================================================


WARNING: Analytical Hessian for XTB is limited in the analysis of the data.
       : If you want to obtain extensive IR and deltaG analysis, please use ! XTB NumFreq. 


WARNING: Geometry Optimization
  ===> : Switching off AutoStart
         For restart on a previous wavefunction, please use MOREAD

WARNING: Found dipole moment calculation with XTB calculation
  ===> : Switching off dipole moment calculation


WARNING: Found frequency calculation in combination with XTB calculation
  ===> : Need to redirect dipole moment calculation to properties.out


================================================================================
                                       INPUT FILE
================================================================================
NAME = product_optfreq.inp
|  1> ! XTB2 Opt Freq PAL8
|  2> 
|  3> * xyz -1 1
|  4>   C      -0.000263     -0.000268      0.378005
|  5>   H       0.000029      1.031131      0.055165
|  6>   H       0.892887     -0.515463      0.055197
|  7>   H      -0.892559     -0.515306      0.055280
|  8>   Br      0.000019      0.000018      2.350096
|  9>   I       0.000003      0.000003     -2.774278
| 10> *
| 11> 
| 12>                          ****END OF INPUT****
================================================================================

                       *****************************
                       * Geometry Optimization Run *
                       *****************************

Geometry optimization settings:
Update method            Update   .... BFGS
Choice of coordinates    CoordSys .... (2022) Redundant Internals
Initial Hessian          InHess   .... Almloef's Model
Max. no of cycles        MaxIter  .... 50

Convergence Tolerances:
Energy Change            TolE     ....  5.0000e-06 Eh
Max. Gradient            TolMAXG  ....  3.0000e-04 Eh/bohr
RMS Gradient             TolRMSG  ....  1.0000e-04 Eh/bohr
Max. Displacement        TolMAXD  ....  4.0000e-03 bohr
RMS Displacement         TolRMSD  ....  2.0000e-03 bohr
Strict Convergence                .... False

------------------------------------------------------------------------------
                        ORCA OPTIMIZATION COORDINATE SETUP
------------------------------------------------------------------------------

The optimization will be done in redundant internal coordinates (2022)
Making redundant internal coordinates   ...  (2022 redundants) done
Evaluating the initial hessian          ...  (Almloef) done
Evaluating the coordinates              ...  done
Calculating the B-matrix                .... done
Calculating the G-matrix                .... done
The number of degrees of freedom        ....   17

    -----------------------------------------------------------------
                    Redundant Internal Coordinates


    -----------------------------------------------------------------
         Definition                    Initial Value    Approx d2E/dq
    -----------------------------------------------------------------
      1. B(H   1,C   0)                  1.0807         0.372554   
      2. B(H   2,C   0)                  1.0804         0.372973   
      3. B(H   3,C   0)                  1.0796         0.374079   
      4. B(Br  4,C   0)                  1.9721         0.247482   
      5. B(I   5,H   2)                  3.0115         0.010000   
      6. B(I   5,H   1)                  3.0115         0.010000   
      7. B(I   5,H   3)                  3.0114         0.010000   
      8. B(I   5,C   0)                  3.1523         0.010000   
      9. A(H   1,C   0,H   3)          111.4813         0.294159   
     10. A(H   2,C   0,H   3)          111.4955         0.294212   
     11. A(H   1,C   0,Br  4)          107.3724         0.323389   
     12. A(H   2,C   0,Br  4)          107.3811         0.323448   
     13. A(H   3,C   0,Br  4)          107.4041         0.323605   
     14. A(H   1,C   0,I   5)           72.6143         0.176854   
     15. A(H   2,C   0,I   5)           72.6142         0.176876   
     16. A(H   3,C   0,I   5)           72.6138         0.176935   
     17. A(H   1,C   0,H   2)          111.4441         0.294022   
    -----------------------------------------------------------------

Number of atoms                         .... 6
Number of degrees of freedom            .... 17


         *************************************************************
         *                GEOMETRY OPTIMIZATION CYCLE   1            *
         *************************************************************
---------------------------------
CARTESIAN COORDINATES (ANGSTROEM)
---------------------------------
  C    -0.000263   -0.000268    0.378005
  H     0.000029    1.031131    0.055165
  H     0.892887   -0.515463    0.055197
  H    -0.892559   -0.515306    0.055280
  Br    0.000019    0.000018    2.350096
  I     0.000003    0.000003   -2.774278

----------------------------
CARTESIAN COORDINATES (A.U.)
----------------------------
  NO LB    ZA    FRAG    MASS        X           Y           Z
   0 C   6.0000    0    12.011   -0.000497   -0.000506    0.714326
   1 H   1.0000    0     1.008    0.000055    1.948555    0.104247
   2 H   1.0000    0     1.008    1.687312   -0.974084    0.104307
   3 H   1.0000    0     1.008   -1.686692   -0.973787    0.104464
   4 Br 35.0000    0    79.900    0.000036    0.000034    4.441038
   5 I  53.0000    0   126.900    0.000006    0.000006   -5.242626

      -----------------------------------------------------------      
     |                   =====================                   |     
     |                           x T B                           |     
     |                   =====================                   |     
     |                         S. Grimme                         |     
     |          Mulliken Center for Theoretical Chemistry        |     
     |                    University of Bonn                     |     
      -----------------------------------------------------------      

   * xtb version 6.7.1 (edcfbbe) compiled by 'albert@albert-system' on 2024-07-22

   xtb is free software: you can redistribute it and/or modify it under
   the terms of the GNU Lesser General Public License as published by
   the Free Software Foundation, either version 3 of the License, or
   (at your option) any later version.
   
   xtb is distributed in the hope that it will be useful,
   but WITHOUT ANY WARRANTY; without even the implied warranty of
   MERCHANTABILITY or FITNESS FOR A PARTICULAR PURPOSE.  See the
   GNU Lesser General Public License for more details.
   
   Cite this work as:
   * C. Bannwarth, E. Caldeweyher, S. Ehlert, A. Hansen, P. Pracht,
     J. Seibert, S. Spicher, S. Grimme, WIREs Comput. Mol. Sci., 2020, 11,
     e01493. DOI: 10.1002/wcms.1493
   
   for GFN2-xTB:
   * C. Bannwarth, S. Ehlert and S. Grimme., J. Chem. Theory Comput., 2019,
     15, 1652-1671. DOI: 10.1021/acs.jctc.8b01176
   for GFN1-xTB:
   * S. Grimme, C. Bannwarth, P. Shushkov, J. Chem. Theory Comput., 2017,
     13, 1989-2009. DOI: 10.1021/acs.jctc.7b00118
   for GFN0-xTB:
   * P. Pracht, E. Caldeweyher, S. Ehlert, S. Grimme, ChemRxiv, 2019, preprint.
     DOI: 10.26434/chemrxiv.8326202.v1
   for GFN-FF:
   * S. Spicher and S. Grimme, Angew. Chem. Int. Ed., 2020, 59, 15665-15673.
     DOI: 10.1002/anie.202004239
   
   for ALPB and GBSA implicit solvation:
   * S. Ehlert, M. Stahn, S. Spicher, S. Grimme, J. Chem. Theory Comput.,
     2021, 17, 4250-4261. DOI: 10.1021/acs.jctc.1c00471
   
   for ddCOSMO and CPCM-X implicit solvation:
   * M. Stahn, S. Ehlert, S. Grimme, J. Phys. Chem. A,
     2023, XX, XXXX-XXXX. DOI: 10.1021/acs.jpca.3c04382
   
   for DFT-D4:
   * E. Caldeweyher, C. Bannwarth and S. Grimme, J. Chem. Phys., 2017,
     147, 034112. DOI: 10.1063/1.4993215
   * E. Caldeweyher, S. Ehlert, A. Hansen, H. Neugebauer, S. Spicher,
     C. Bannwarth and S. Grimme, J. Chem. Phys., 2019, 150, 154122.
     DOI: 10.1063/1.5090222
   * E. Caldeweyher, J.-M. Mewes, S. Ehlert and S. Grimme, Phys. Chem. Chem. Phys.
     2020, 22, 8499-8512. DOI: 10.1039/D0CP00502A
   
   for sTDA-xTB:
   * S. Grimme and C. Bannwarth, J. Chem. Phys., 2016, 145, 054103.
     DOI: 10.1063/1.4959605
   
   in the mass-spec context:
   * V. Asgeirsson, C. Bauer and S. Grimme, Chem. Sci., 2017, 8, 4879.
     DOI: 10.1039/c7sc00601b
   * J. Koopman and S. Grimme, ACS Omega 2019, 4, 12, 15120-15133.
     DOI: 10.1021/acsomega.9b02011
   
   for metadynamics refer to:
   * S. Grimme, J. Chem. Theory Comput., 2019, 155, 2847-2862
     DOI: 10.1021/acs.jctc.9b00143
   
   for SPH calculations refer to:
   * S. Spicher and S. Grimme, J. Chem. Theory Comput., 2021, 17, 1701-1714
     DOI: 10.1021/acs.jctc.0c01306
   
   for ONIOM refer to:
   * C. Plett, A. Katbashev, S. Ehlert, S. Grimme, M. Bursch,
     Phys. Chem. Chem. Phys., 2023, 25, 17860-17868. DOI: 10.1039/D3CP02178E
   
   for DIPRO refer to:
   * J. Kohn, N. Gildemeister, S. Grimme, D. Fazzi, A. Hansen,
     J. Chem. Phys., 2023, just accepted.
   
   for PTB refer to:
   * S. Grimme, M. Mueller, A. Hansen, J. Chem. Phys., 2023, 158, 124111.
     DOI: 10.1063/5.0137838
   
   with help from (in alphabetical order)
   P. Atkinson, C. Bannwarth, F. Bohle, G. Brandenburg, E. Caldeweyher
   M. Checinski, S. Dohm, S. Ehlert, S. Ehrlich, I. Gerasimov, C. Hölzer
   A. Katbashev, J. Kohn, J. Koopman, C. Lavigne, S. Lehtola, F. März, M. Müller,
   F. Musil, H. Neugebauer, J. Pisarek, C. Plett, P. Pracht, F. Pultar,
   J. Seibert, P. Shushkov, S. Spicher, M. Stahn, M. Steiner, T. Strunk,
   J. Stückrath, T. Rose, and J. Unsleber
   
 * started run on 2026/03/12 at 12:40:52.147     
   ID    Z sym.   atoms
    1    6 C      1
    2    1 H      2-4
    3   35 Br     5
    4   53 I      6

           -------------------------------------------------
          |                Calculation Setup                |
           -------------------------------------------------

          program call               : /software/orca-6.1.0-el8-x86_64/bin/otool_xtb product_optfreq_XTB.xyz --grad -c -1 -u 0 -P 8 --namespace product_optfreq --input product_optfreq_XTB.input.tmp --acc 0.200000
          hostname                   : midway3-login4.rcc.local
          calculation namespace      : product_optfreq
          coordinate file            : product_optfreq_XTB.xyz
          omp threads                :                     8


molecular fragmentation (1/2 indicates fragments):
111112
# atoms in fragment 1/2:     5     1
 fragment masses (1/2) :       94.94      126.90
CMA distance (Bohr)    :   9.074
constraining FC (au)   :  0.0500

           -------------------------------------------------
          |                 G F N 2 - x T B                 |
           -------------------------------------------------

        Reference                      10.1021/acs.jctc.8b01176
      * Hamiltonian:
        H0-scaling (s, p, d)           1.850000    2.230000    2.230000
        zeta-weighting                 0.500000
      * Dispersion:
        s8                             2.700000
        a1                             0.520000
        a2                             5.000000
        s9                             5.000000
      * Repulsion:
        kExp                           1.500000    1.000000
        rExp                           1.000000
      * Coulomb:
        alpha                          2.000000
        third order                    shell-resolved
        anisotropic                    true
        a3                             3.000000
        a5                             4.000000
        cn-shift                       1.200000
        cn-exp                         4.000000
        max-rad                        5.000000


          ...................................................
          :                      SETUP                      :
          :.................................................:
          :  # basis functions                  27          :
          :  # atomic orbitals                  25          :
          :  # shells                           11          :
          :  # electrons                        22          :
          :  max. iterations                   250          :
          :  Hamiltonian                  GFN2-xTB          :
          :  restarted?                      false          :
          :  GBSA solvation                  false          :
          :  PC potential                    false          :
          :  electronic temp.          300.0000000     K    :
          :  accuracy                    0.2000000          :
          :  -> integral cutoff          0.3198970E+02      :
          :  -> integral neglect         0.2000000E-08      :
          :  -> SCF convergence          0.2000000E-06 Eh   :
          :  -> wf. convergence          0.2000000E-04 e    :
          :  Broyden damping             0.4000000          :
          :  net charge                         -1          :
          :  unpaired electrons                  0          :
          ...................................................

 iter      E             dE          RMSdq      gap      omega  full diag
   1    -11.8673834 -0.118674E+02  0.717E+00    2.94       0.0  T
   2    -11.8815380 -0.141547E-01  0.454E+00    2.31       1.0  T
   3    -11.8820410 -0.503005E-03  0.175E+00    2.45       1.0  T
   4    -11.8846875 -0.264641E-02  0.102E+00    2.36       1.0  T
   5    -11.8853055 -0.618030E-03  0.548E-01    2.37       1.0  T
   6    -11.8856107 -0.305215E-03  0.248E-01    2.26       1.0  T
   7    -11.8856507 -0.400330E-04  0.823E-02    2.29       1.0  T
   8    -11.8856595 -0.876636E-05  0.365E-02    2.26       1.1  T
   9    -11.8856598 -0.288505E-06  0.818E-03    2.27       5.0  T
  10    -11.8856599 -0.146104E-06  0.234E-03    2.27      17.5  T
  11    -11.8856599 -0.765274E-09  0.206E-04    2.27     198.3  T
  12    -11.8856599  0.833111E-11  0.700E-05    2.27     583.0  T
  13    -11.8856599 -0.120455E-10  0.124E-05    2.27    3299.3  T

   *** convergence criteria satisfied after 13 iterations ***

         #    Occupation            Energy/Eh            Energy/eV
      -------------------------------------------------------------
         1        2.0000           -0.7193775             -19.5753
       ...           ...                  ...                  ...
         5        2.0000           -0.3776245             -10.2757
         6        2.0000           -0.3612140              -9.8291
         7        2.0000           -0.2864609              -7.7950
         8        2.0000           -0.2864537              -7.7948
         9        2.0000           -0.1776150              -4.8332
        10        2.0000           -0.1725402              -4.6951
        11        2.0000           -0.1725401              -4.6951 (HOMO)
        12                         -0.0892210              -2.4278 (LUMO)
        13                          0.1630845               4.4378
        14                          0.1631430               4.4393
        15                          0.1783158               4.8522
        16                          0.1783209               4.8524
       ...                                ...                  ...
        25                          0.4871027              13.2547
      -------------------------------------------------------------
                  HL-Gap            0.0833191 Eh            2.2672 eV
             Fermi-level           -0.1308805 Eh           -3.5614 eV

 SCC (total)                   0 d,  0 h,  0 min,  0.101 sec
 SCC setup                      ...        0 min,  0.000 sec (  0.181%)
 Dispersion                     ...        0 min,  0.000 sec (  0.045%)
 classical contributions        ...        0 min,  0.000 sec (  0.040%)
 integral evaluation            ...        0 min,  0.097 sec ( 96.301%)
 iterations                     ...        0 min,  0.003 sec (  2.623%)
 molecular gradient             ...        0 min,  0.001 sec (  0.620%)
 printout                       ...        0 min,  0.000 sec (  0.174%)

         :::::::::::::::::::::::::::::::::::::::::::::::::::::
         ::                     SUMMARY                     ::
         :::::::::::::::::::::::::::::::::::::::::::::::::::::
         :: total energy             -11.827124658546 Eh    ::
         :: gradient norm              0.001816712320 Eh/a0 ::
         :: HOMO-LUMO gap              2.267227201157 eV    ::
         ::.................................................::
         :: SCC energy               -11.885660815351 Eh    ::
         :: -> isotropic ES            0.145227148878 Eh    ::
         :: -> anisotropic ES         -0.004703285427 Eh    ::
         :: -> anisotropic XC         -0.005010328281 Eh    ::
         :: -> dispersion             -0.003355077839 Eh    ::
         :: repulsion energy           0.058536156805 Eh    ::
         :: add. restraining           0.000000000000 Eh    ::
         :: total charge              -1.000000000000 e     ::
         :::::::::::::::::::::::::::::::::::::::::::::::::::::


Property printout bound to 'properties.out'

           -------------------------------------------------
          | TOTAL ENERGY              -11.827124658546 Eh   |
          | GRADIENT NORM               0.001816712320 Eh/α |
          | HOMO-LUMO GAP               2.267227201157 eV   |
           -------------------------------------------------

------------------------------------------------------------------------
 * finished run on 2026/03/12 at 12:40:52.268     
------------------------------------------------------------------------
 total:
 * wall-time:     0 d,  0 h,  0 min,  0.121 sec
 *  cpu-time:     0 d,  0 h,  0 min,  0.544 sec
 * ratio c/w:     4.494 speedup
 SCF:
 * wall-time:     0 d,  0 h,  0 min,  0.101 sec
 *  cpu-time:     0 d,  0 h,  0 min,  0.479 sec
 * ratio c/w:     4.743 speedup


-------------------------   --------------------
FINAL SINGLE POINT ENERGY       -11.827124658550
-------------------------   --------------------


-------------
DIPOLE MOMENT
-------------
                                X             Y             Z
Total Dipole Moment    :     -0.00000      -0.00000       2.66700
                        -----------------------------------------
Magnitude (a.u.)       :      2.66700
Magnitude (Debye)      :      6.77898


------------------
CARTESIAN GRADIENT
------------------

   1   C   :   -0.000439613   -0.000446103   -0.000142229
   2   H   :    0.000015699    0.000133135   -0.000423010
   3   H   :   -0.000026848    0.000040572   -0.000370867
   4   H   :    0.000438828    0.000260301   -0.000233321
   5   Br  :    0.000010299    0.000010435   -0.000296298
   6   I   :    0.000001634    0.000001661    0.001465725

Difference to translation invariance:
           :    0.0000000000   -0.0000000000   -0.0000000000

Difference to rotation invariance:
           :   -0.0000000032    0.0000000031   -0.0000000000

Norm of the Cartesian gradient     ...    0.0018167123
RMS gradient                       ...    0.0004282032
MAX gradient                       ...    0.0014657252
------------------------------------------------------------------------------
                         ORCA GEOMETRY RELAXATION STEP
------------------------------------------------------------------------------

Reading the OPT-File                    .... done
Getting information on internals        .... done
Copying old internal coords+grads       .... done
Making the new internal coordinates     .... (2022 redundants) done
Validating the new internal coordinates .... (2022 redundants) done
Calculating the B-matrix                .... done
Calculating the G,G- and P matrices     .... done
Transforming gradient to internals      .... done
Projecting the internal gradient        .... done
Number of atoms                         ....   6
Number of internal coordinates          ....  17
Current Energy                          ....   -11.827124659 Eh
Current gradient norm                   ....     0.001816712 Eh/bohr
Maximum allowed component of the step   ....  0.300
Current trust radius                    ....  0.300
Evaluating the initial hessian          ....  (Almloef) done
Projecting the Hessian                  .... done
Forming the augmented Hessian           .... done
Diagonalizing the augmented Hessian     .... done
Last element of RFO vector              ....  0.997101585
Lowest eigenvalues of augmented Hessian:
 -0.000059547  0.010058536  0.042325696  0.042366614  0.190772540
Length of the computed step             ....  0.076302881
The final length of the internal step   ....  0.076302881
Converting the step to Cartesian space:
 Initial RMS(Int)=    0.0185061668
Transforming coordinates:
 Iter   0:  RMS(Cart)=    0.0086518335 RMS(Int)=    0.0185119903
done
Storing new coordinates                 .... done

                                .--------------------.
          ----------------------|Geometry convergence|-------------------------
          Item                value                   Tolerance       Converged
          ---------------------------------------------------------------------
          RMS gradient        0.0002327652            0.0001000000      NO
          MAX gradient        0.0004081732            0.0003000000      NO
          RMS step            0.0185061668            0.0020000000      NO
          MAX step            0.0399706489            0.0040000000      NO
          -------------------------------------------------------------------------
          ........................................................
          Max(Bonds)      0.0212      Max(Angles)    0.01
          Max(Dihed)        0.00      Max(Improp)    0.00
          ---------------------------------------------------------------------

The optimization has not yet converged - more geometry cycles are needed


    ---------------------------------------------------------------------------
                         Redundant Internal Coordinates
                            (Angstroem and degrees)

        Definition                    Value    dE/dq     Step     New-Value
    ----------------------------------------------------------------------------
     1. B(H   1,C   0)                1.0807  0.000271 -0.0004    1.0804   
     2. B(H   2,C   0)                1.0804  0.000087 -0.0001    1.0803   
     3. B(H   3,C   0)                1.0796 -0.000400  0.0006    1.0802   
     4. B(Br  4,C   0)                1.9721 -0.000296  0.0006    1.9727   
     5. B(I   5,H   2)                3.0115 -0.000375  0.0199    3.0313   
     6. B(I   5,H   1)                3.0115 -0.000375  0.0199    3.0313   
     7. B(I   5,H   3)                3.0114 -0.000375  0.0198    3.0312   
     8. B(I   5,C   0)                3.1523 -0.000408  0.0212    3.1734   
     9. A(H   1,C   0,H   3)          111.48  0.000011   -0.00    111.48   
    10. A(H   2,C   0,H   3)          111.50  0.000025   -0.01    111.49   
    11. A(H   1,C   0,Br  4)          107.37 -0.000030    0.01    107.38   
    12. A(H   2,C   0,Br  4)          107.38 -0.000014    0.00    107.38   
    13. A(H   3,C   0,Br  4)          107.40  0.000031   -0.00    107.40   
    14. A(H   1,C   0,I   5)           72.61 -0.000002    0.00     72.61   
    15. A(H   2,C   0,I   5)           72.61  0.000002   -0.00     72.61   
    16. A(H   3,C   0,I   5)           72.61  0.000013   -0.00     72.61   
    17. A(H   1,C   0,H   2)          111.44 -0.000025    0.00    111.45   
    ----------------------------------------------------------------------------

Geometry step timings:
Preparation and reading OPT file:      0.000 s ( 1.567 %)
Internal coordinates            :      0.000 s ( 1.770 %)
B/P matrices and projection     :      0.000 s ( 6.208 %)
Hessian update/contruction      :      0.002 s (57.905 %)
Making the step                 :      0.000 s ( 5.686 %)
Converting the step to Cartesian:      0.000 s ( 1.857 %)
Storing new data                :      0.000 s ( 3.539 %)
Checking convergence            :      0.000 s ( 2.495 %)
Final printing                  :      0.001 s (18.799 %)
Total time                      :      0.003 s

Time for energy+gradient        :      0.130 s
Time for complete geometry iter :      0.138 s

         *************************************************************
         *                GEOMETRY OPTIMIZATION CYCLE   2            *
         *************************************************************
---------------------------------
CARTESIAN COORDINATES (ANGSTROEM)
---------------------------------
  C    -0.000106   -0.000108    0.381440
  H     0.000130    1.030909    0.058669
  H     0.892895   -0.515307    0.058636
  H    -0.892859   -0.515435    0.058547
  Br    0.000058    0.000058    2.354164
  I    -0.000002   -0.000002   -2.791990

----------------------------
CARTESIAN COORDINATES (A.U.)
----------------------------
  NO LB    ZA    FRAG    MASS        X           Y           Z
   0 C   6.0000    0    12.011   -0.000200   -0.000205    0.720816
   1 H   1.0000    0     1.008    0.000246    1.948136    0.110868
   2 H   1.0000    0     1.008    1.687327   -0.973788    0.110805
   3 H   1.0000    0     1.008   -1.687259   -0.974031    0.110638
   4 Br 35.0000    0    79.900    0.000109    0.000109    4.448725
   5 I  53.0000    0   126.900   -0.000003   -0.000003   -5.276097

      -----------------------------------------------------------      
     |                   =====================                   |     
     |                           x T B                           |     
     |                   =====================                   |     
     |                         S. Grimme                         |     
     |          Mulliken Center for Theoretical Chemistry        |     
     |                    University of Bonn                     |     
      -----------------------------------------------------------      

   * xtb version 6.7.1 (edcfbbe) compiled by 'albert@albert-system' on 2024-07-22

   xtb is free software: you can redistribute it and/or modify it under
   the terms of the GNU Lesser General Public License as published by
   the Free Software Foundation, either version 3 of the License, or
   (at your option) any later version.
   
   xtb is distributed in the hope that it will be useful,
   but WITHOUT ANY WARRANTY; without even the implied warranty of
   MERCHANTABILITY or FITNESS FOR A PARTICULAR PURPOSE.  See the
   GNU Lesser General Public License for more details.
   
   Cite this work as:
   * C. Bannwarth, E. Caldeweyher, S. Ehlert, A. Hansen, P. Pracht,
     J. Seibert, S. Spicher, S. Grimme, WIREs Comput. Mol. Sci., 2020, 11,
     e01493. DOI: 10.1002/wcms.1493
   
   for GFN2-xTB:
   * C. Bannwarth, S. Ehlert and S. Grimme., J. Chem. Theory Comput., 2019,
     15, 1652-1671. DOI: 10.1021/acs.jctc.8b01176
   for GFN1-xTB:
   * S. Grimme, C. Bannwarth, P. Shushkov, J. Chem. Theory Comput., 2017,
     13, 1989-2009. DOI: 10.1021/acs.jctc.7b00118
   for GFN0-xTB:
   * P. Pracht, E. Caldeweyher, S. Ehlert, S. Grimme, ChemRxiv, 2019, preprint.
     DOI: 10.26434/chemrxiv.8326202.v1
   for GFN-FF:
   * S. Spicher and S. Grimme, Angew. Chem. Int. Ed., 2020, 59, 15665-15673.
     DOI: 10.1002/anie.202004239
   
   for ALPB and GBSA implicit solvation:
   * S. Ehlert, M. Stahn, S. Spicher, S. Grimme, J. Chem. Theory Comput.,
     2021, 17, 4250-4261. DOI: 10.1021/acs.jctc.1c00471
   
   for ddCOSMO and CPCM-X implicit solvation:
   * M. Stahn, S. Ehlert, S. Grimme, J. Phys. Chem. A,
     2023, XX, XXXX-XXXX. DOI: 10.1021/acs.jpca.3c04382
   
   for DFT-D4:
   * E. Caldeweyher, C. Bannwarth and S. Grimme, J. Chem. Phys., 2017,
     147, 034112. DOI: 10.1063/1.4993215
   * E. Caldeweyher, S. Ehlert, A. Hansen, H. Neugebauer, S. Spicher,
     C. Bannwarth and S. Grimme, J. Chem. Phys., 2019, 150, 154122.
     DOI: 10.1063/1.5090222
   * E. Caldeweyher, J.-M. Mewes, S. Ehlert and S. Grimme, Phys. Chem. Chem. Phys.
     2020, 22, 8499-8512. DOI: 10.1039/D0CP00502A
   
   for sTDA-xTB:
   * S. Grimme and C. Bannwarth, J. Chem. Phys., 2016, 145, 054103.
     DOI: 10.1063/1.4959605
   
   in the mass-spec context:
   * V. Asgeirsson, C. Bauer and S. Grimme, Chem. Sci., 2017, 8, 4879.
     DOI: 10.1039/c7sc00601b
   * J. Koopman and S. Grimme, ACS Omega 2019, 4, 12, 15120-15133.
     DOI: 10.1021/acsomega.9b02011
   
   for metadynamics refer to:
   * S. Grimme, J. Chem. Theory Comput., 2019, 155, 2847-2862
     DOI: 10.1021/acs.jctc.9b00143
   
   for SPH calculations refer to:
   * S. Spicher and S. Grimme, J. Chem. Theory Comput., 2021, 17, 1701-1714
     DOI: 10.1021/acs.jctc.0c01306
   
   for ONIOM refer to:
   * C. Plett, A. Katbashev, S. Ehlert, S. Grimme, M. Bursch,
     Phys. Chem. Chem. Phys., 2023, 25, 17860-17868. DOI: 10.1039/D3CP02178E
   
   for DIPRO refer to:
   * J. Kohn, N. Gildemeister, S. Grimme, D. Fazzi, A. Hansen,
     J. Chem. Phys., 2023, just accepted.
   
   for PTB refer to:
   * S. Grimme, M. Mueller, A. Hansen, J. Chem. Phys., 2023, 158, 124111.
     DOI: 10.1063/5.0137838
   
   with help from (in alphabetical order)
   P. Atkinson, C. Bannwarth, F. Bohle, G. Brandenburg, E. Caldeweyher
   M. Checinski, S. Dohm, S. Ehlert, S. Ehrlich, I. Gerasimov, C. Hölzer
   A. Katbashev, J. Kohn, J. Koopman, C. Lavigne, S. Lehtola, F. März, M. Müller,
   F. Musil, H. Neugebauer, J. Pisarek, C. Plett, P. Pracht, F. Pultar,
   J. Seibert, P. Shushkov, S. Spicher, M. Stahn, M. Steiner, T. Strunk,
   J. Stückrath, T. Rose, and J. Unsleber
   
 * started run on 2026/03/12 at 12:40:52.285     
   ID    Z sym.   atoms
    1    6 C      1
    2    1 H      2-4
    3   35 Br     5
    4   53 I      6

           -------------------------------------------------
          |                Calculation Setup                |
           -------------------------------------------------

          program call               : /software/orca-6.1.0-el8-x86_64/bin/otool_xtb product_optfreq_XTB.xyz --grad -c -1 -u 0 -P 8 --namespace product_optfreq --input product_optfreq_XTB.input.tmp --acc 0.200000
          hostname                   : midway3-login4.rcc.local
          calculation namespace      : product_optfreq
          coordinate file            : product_optfreq_XTB.xyz
          omp threads                :                     8


molecular fragmentation (1/2 indicates fragments):
111112
# atoms in fragment 1/2:     5     1
 fragment masses (1/2) :       94.94      126.90
CMA distance (Bohr)    :   9.115
constraining FC (au)   :  0.0500

           -------------------------------------------------
          |                 G F N 2 - x T B                 |
           -------------------------------------------------

        Reference                      10.1021/acs.jctc.8b01176
      * Hamiltonian:
        H0-scaling (s, p, d)           1.850000    2.230000    2.230000
        zeta-weighting                 0.500000
      * Dispersion:
        s8                             2.700000
        a1                             0.520000
        a2                             5.000000
        s9                             5.000000
      * Repulsion:
        kExp                           1.500000    1.000000
        rExp                           1.000000
      * Coulomb:
        alpha                          2.000000
        third order                    shell-resolved
        anisotropic                    true
        a3                             3.000000
        a5                             4.000000
        cn-shift                       1.200000
        cn-exp                         4.000000
        max-rad                        5.000000

q/qsh data taken from xtbrestart
CAMM data taken from xtbrestart

          ...................................................
          :                      SETUP                      :
          :.................................................:
          :  # basis functions                  27          :
          :  # atomic orbitals                  25          :
          :  # shells                           11          :
          :  # electrons                        22          :
          :  max. iterations                   250          :
          :  Hamiltonian                  GFN2-xTB          :
          :  restarted?                       true          :
          :  GBSA solvation                  false          :
          :  PC potential                    false          :
          :  electronic temp.          300.0000000     K    :
          :  accuracy                    0.2000000          :
          :  -> integral cutoff          0.3198970E+02      :
          :  -> integral neglect         0.2000000E-08      :
          :  -> SCF convergence          0.2000000E-06 Eh   :
          :  -> wf. convergence          0.2000000E-04 e    :
          :  Broyden damping             0.4000000          :
          :  net charge                         -1          :
          :  unpaired electrons                  0          :
          ...................................................

 iter      E             dE          RMSdq      gap      omega  full diag
   1    -11.8856718 -0.118857E+02  0.174E-01    2.24       0.0  T
   2    -11.8856745 -0.269875E-05  0.847E-02    2.22       1.0  T
   3    -11.8856749 -0.347993E-06  0.198E-02    2.21       2.1  T
   4    -11.8856750 -0.905873E-07  0.122E-02    2.21       3.3  T
   5    -11.8856750 -0.392316E-07  0.592E-03    2.21       6.9  T
   6    -11.8856750 -0.164983E-07  0.131E-03    2.21      31.2  T
   7    -11.8856750 -0.939485E-09  0.638E-04    2.21      64.0  T
   8    -11.8856750 -0.353603E-09  0.355E-04    2.21     115.1  T
   9    -11.8856750 -0.124269E-09  0.657E-05    2.21     621.6  T
  10    -11.8856750 -0.111555E-11  0.186E-06    2.21   21956.4  T

   *** convergence criteria satisfied after 10 iterations ***

         #    Occupation            Energy/Eh            Energy/eV
      -------------------------------------------------------------
         1        2.0000           -0.7201155             -19.5953
       ...           ...                  ...                  ...
         5        2.0000           -0.3783890             -10.2965
         6        2.0000           -0.3620138              -9.8509
         7        2.0000           -0.2872861              -7.8175
         8        2.0000           -0.2872807              -7.8173
         9        2.0000           -0.1768947              -4.8136
        10        2.0000           -0.1718757              -4.6770
        11        2.0000           -0.1718755              -4.6770 (HOMO)
        12                         -0.0904783              -2.4620 (LUMO)
        13                          0.1622957               4.4163
        14                          0.1623137               4.4168
        15                          0.1775014               4.8301
        16                          0.1775079               4.8302
       ...                                ...                  ...
        25                          0.4854848              13.2107
      -------------------------------------------------------------
                  HL-Gap            0.0813972 Eh            2.2149 eV
             Fermi-level           -0.1311769 Eh           -3.5695 eV

 SCC (total)                   0 d,  0 h,  0 min,  0.083 sec
 SCC setup                      ...        0 min,  0.000 sec (  0.219%)
 Dispersion                     ...        0 min,  0.000 sec (  0.051%)
 classical contributions        ...        0 min,  0.000 sec (  0.048%)
 integral evaluation            ...        0 min,  0.080 sec ( 96.791%)
 iterations                     ...        0 min,  0.002 sec (  2.004%)
 molecular gradient             ...        0 min,  0.001 sec (  0.733%)
 printout                       ...        0 min,  0.000 sec (  0.136%)

         :::::::::::::::::::::::::::::::::::::::::::::::::::::
         ::                     SUMMARY                     ::
         :::::::::::::::::::::::::::::::::::::::::::::::::::::
         :: total energy             -11.827167373265 Eh    ::
         :: gradient norm              0.000980906878 Eh/a0 ::
         :: HOMO-LUMO gap              2.214930986765 eV    ::
         ::.................................................::
         :: SCC energy               -11.885675921552 Eh    ::
         :: -> isotropic ES            0.145769806357 Eh    ::
         :: -> anisotropic ES         -0.004643096234 Eh    ::
         :: -> anisotropic XC         -0.004908389120 Eh    ::
         :: -> dispersion             -0.003338964775 Eh    ::
         :: repulsion energy           0.058508548288 Eh    ::
         :: add. restraining           0.000000000000 Eh    ::
         :: total charge              -1.000000000000 e     ::
         :::::::::::::::::::::::::::::::::::::::::::::::::::::


Property printout bound to 'properties.out'

           -------------------------------------------------
          | TOTAL ENERGY              -11.827167373265 Eh   |
          | GRADIENT NORM               0.000980906878 Eh/α |
          | HOMO-LUMO GAP               2.214930986765 eV   |
           -------------------------------------------------

------------------------------------------------------------------------
 * finished run on 2026/03/12 at 12:40:52.391     
------------------------------------------------------------------------
 total:
 * wall-time:     0 d,  0 h,  0 min,  0.105 sec
 *  cpu-time:     0 d,  0 h,  0 min,  0.485 sec
 * ratio c/w:     4.622 speedup
 SCF:
 * wall-time:     0 d,  0 h,  0 min,  0.083 sec
 *  cpu-time:     0 d,  0 h,  0 min,  0.426 sec
 * ratio c/w:     5.119 speedup


-------------------------   --------------------
FINAL SINGLE POINT ENERGY       -11.827167373260
-------------------------   --------------------


-------------
DIPOLE MOMENT
-------------
                                X             Y             Z
Total Dipole Moment    :     -0.00000      -0.00000       2.71300
                        -----------------------------------------
Magnitude (a.u.)       :      2.71300
Magnitude (Debye)      :      6.89590


------------------
CARTESIAN GRADIENT
------------------

   1   C   :   -0.000093397   -0.000094942   -0.000440558
   2   H   :    0.000024421   -0.000143353   -0.000191037
   3   H   :   -0.000125429    0.000111414   -0.000186080
   4   H   :    0.000185599    0.000117954   -0.000173204
   5   Br  :    0.000008511    0.000008627    0.000321498
   6   I   :    0.000000295    0.000000300    0.000669380

Difference to translation invariance:
           :    0.0000000000   -0.0000000000   -0.0000000000

Difference to rotation invariance:
           :    0.0000000043   -0.0000000042   -0.0000000000

Norm of the Cartesian gradient     ...    0.0009809069
RMS gradient                       ...    0.0002312020
MAX gradient                       ...    0.0006693802
------------------------------------------------------------------------------
                         ORCA GEOMETRY RELAXATION STEP
------------------------------------------------------------------------------

Reading the OPT-File                    .... done
Getting information on internals        .... done
Copying old internal coords+grads       .... done
Making the new internal coordinates     .... (2022 redundants) done
Validating the new internal coordinates .... (2022 redundants) done
Calculating the B-matrix                .... done
Calculating the G,G- and P matrices     .... done
Transforming gradient to internals      .... done
Projecting the internal gradient        .... done
Number of atoms                         ....   6
Number of internal coordinates          ....  17
Current Energy                          ....   -11.827167373 Eh
Current gradient norm                   ....     0.000980907 Eh/bohr
Maximum allowed component of the step   ....  0.300
Current trust radius                    ....  0.300
Updating the Hessian (BFGS)             .... done
Forming the augmented Hessian           .... done
Diagonalizing the augmented Hessian     .... done
Last element of RFO vector              ....  0.997784449
Lowest eigenvalues of augmented Hessian:
 -0.000024359  0.005358920  0.042325697  0.042366619  0.191102669
Length of the computed step             ....  0.066677365
The final length of the internal step   ....  0.066677365
Converting the step to Cartesian space:
 Initial RMS(Int)=    0.0161716364
Transforming coordinates:
 Iter   0:  RMS(Cart)=    0.0073817467 RMS(Int)=    0.0161755671
done
Storing new coordinates                 .... done
The predicted energy change is          ....    -0.000012233
Previously predicted energy change      ....    -0.000029947
Actually observed energy change         ....    -0.000042715
Ratio of predicted to observed change   ....     1.426345120
New trust radius                        ....     0.300000000

                                .--------------------.
          ----------------------|Geometry convergence|-------------------------
          Item                value                   Tolerance       Converged
          ---------------------------------------------------------------------
          Energy change      -0.0000427147            0.0000050000      NO
          RMS gradient        0.0001275130            0.0001000000      NO
          MAX gradient        0.0003214996            0.0003000000      NO
          RMS step            0.0161716364            0.0020000000      NO
          MAX step            0.0344358989            0.0040000000      NO
          -------------------------------------------------------------------------
          ........................................................
          Max(Bonds)      0.0182      Max(Angles)    0.03
          Max(Dihed)        0.00      Max(Improp)    0.00
          ---------------------------------------------------------------------

The optimization has not yet converged - more geometry cycles are needed


    ---------------------------------------------------------------------------
                         Redundant Internal Coordinates
                            (Angstroem and degrees)

        Definition                    Value    dE/dq     Step     New-Value
    ----------------------------------------------------------------------------
     1. B(H   1,C   0)                1.0804 -0.000071  0.0002    1.0805   
     2. B(H   2,C   0)                1.0803 -0.000093  0.0002    1.0805   
     3. B(H   3,C   0)                1.0802 -0.000150  0.0004    1.0806   
     4. B(Br  4,C   0)                1.9727  0.000321 -0.0012    1.9715   
     5. B(I   5,H   2)                3.0313 -0.000189  0.0174    3.0487   
     6. B(I   5,H   1)                3.0313 -0.000189  0.0174    3.0488   
     7. B(I   5,H   3)                3.0312 -0.000189  0.0174    3.0487   
     8. B(I   5,C   0)                3.1734 -0.000136  0.0182    3.1917   
     9. A(H   1,C   0,H   3)          111.48 -0.000014    0.01    111.49   
    10. A(H   2,C   0,H   3)          111.49  0.000008    0.00    111.49   
    11. A(H   1,C   0,Br  4)          107.38  0.000006   -0.01    107.37   
    12. A(H   2,C   0,Br  4)          107.38  0.000020   -0.01    107.37   
    13. A(H   3,C   0,Br  4)          107.40  0.000057   -0.02    107.37   
    14. A(H   1,C   0,I   5)           72.61 -0.000029    0.02     72.63   
    15. A(H   2,C   0,I   5)           72.61 -0.000028    0.02     72.63   
    16. A(H   3,C   0,I   5)           72.61 -0.000027    0.01     72.62   
    17. A(H   1,C   0,H   2)          111.45 -0.000070    0.03    111.48   
    ----------------------------------------------------------------------------

Geometry step timings:
Preparation and reading OPT file:      0.000 s ( 3.321 %)
Internal coordinates            :      0.000 s ( 3.321 %)
B/P matrices and projection     :      0.000 s (12.823 %)
Hessian update/contruction      :      0.000 s (32.841 %)
Making the step                 :      0.000 s ( 8.303 %)
Converting the step to Cartesian:      0.000 s ( 2.860 %)
Storing new data                :      0.000 s ( 7.565 %)
Checking convergence            :      0.000 s ( 6.550 %)
Final printing                  :      0.000 s (22.417 %)
Total time                      :      0.001 s

Time for energy+gradient        :      0.114 s
Time for complete geometry iter :      0.117 s

         *************************************************************
         *                GEOMETRY OPTIMIZATION CYCLE   3            *
         *************************************************************
---------------------------------
CARTESIAN COORDINATES (ANGSTROEM)
---------------------------------
  C     0.000013    0.000013    0.384581
  H     0.000096    1.031258    0.061994
  H     0.893169   -0.515519    0.061964
  H    -0.893139   -0.515612    0.061882
  Br    0.000005    0.000005    2.356108
  I    -0.000029   -0.000029   -2.807065

----------------------------
CARTESIAN COORDINATES (A.U.)
----------------------------
  NO LB    ZA    FRAG    MASS        X           Y           Z
   0 C   6.0000    0    12.011    0.000025    0.000024    0.726753
   1 H   1.0000    0     1.008    0.000182    1.948794    0.117152
   2 H   1.0000    0     1.008    1.687844   -0.974190    0.117094
   3 H   1.0000    0     1.008   -1.687787   -0.974365    0.116941
   4 Br 35.0000    0    79.900    0.000010    0.000009    4.452399
   5 I  53.0000    0   126.900   -0.000054   -0.000054   -5.304583

      -----------------------------------------------------------      
     |                   =====================                   |     
     |                           x T B                           |     
     |                   =====================                   |     
     |                         S. Grimme                         |     
     |          Mulliken Center for Theoretical Chemistry        |     
     |                    University of Bonn                     |     
      -----------------------------------------------------------      

   * xtb version 6.7.1 (edcfbbe) compiled by 'albert@albert-system' on 2024-07-22

   xtb is free software: you can redistribute it and/or modify it under
   the terms of the GNU Lesser General Public License as published by
   the Free Software Foundation, either version 3 of the License, or
   (at your option) any later version.
   
   xtb is distributed in the hope that it will be useful,
   but WITHOUT ANY WARRANTY; without even the implied warranty of
   MERCHANTABILITY or FITNESS FOR A PARTICULAR PURPOSE.  See the
   GNU Lesser General Public License for more details.
   
   Cite this work as:
   * C. Bannwarth, E. Caldeweyher, S. Ehlert, A. Hansen, P. Pracht,
     J. Seibert, S. Spicher, S. Grimme, WIREs Comput. Mol. Sci., 2020, 11,
     e01493. DOI: 10.1002/wcms.1493
   
   for GFN2-xTB:
   * C. Bannwarth, S. Ehlert and S. Grimme., J. Chem. Theory Comput., 2019,
     15, 1652-1671. DOI: 10.1021/acs.jctc.8b01176
   for GFN1-xTB:
   * S. Grimme, C. Bannwarth, P. Shushkov, J. Chem. Theory Comput., 2017,
     13, 1989-2009. DOI: 10.1021/acs.jctc.7b00118
   for GFN0-xTB:
   * P. Pracht, E. Caldeweyher, S. Ehlert, S. Grimme, ChemRxiv, 2019, preprint.
     DOI: 10.26434/chemrxiv.8326202.v1
   for GFN-FF:
   * S. Spicher and S. Grimme, Angew. Chem. Int. Ed., 2020, 59, 15665-15673.
     DOI: 10.1002/anie.202004239
   
   for ALPB and GBSA implicit solvation:
   * S. Ehlert, M. Stahn, S. Spicher, S. Grimme, J. Chem. Theory Comput.,
     2021, 17, 4250-4261. DOI: 10.1021/acs.jctc.1c00471
   
   for ddCOSMO and CPCM-X implicit solvation:
   * M. Stahn, S. Ehlert, S. Grimme, J. Phys. Chem. A,
     2023, XX, XXXX-XXXX. DOI: 10.1021/acs.jpca.3c04382
   
   for DFT-D4:
   * E. Caldeweyher, C. Bannwarth and S. Grimme, J. Chem. Phys., 2017,
     147, 034112. DOI: 10.1063/1.4993215
   * E. Caldeweyher, S. Ehlert, A. Hansen, H. Neugebauer, S. Spicher,
     C. Bannwarth and S. Grimme, J. Chem. Phys., 2019, 150, 154122.
     DOI: 10.1063/1.5090222
   * E. Caldeweyher, J.-M. Mewes, S. Ehlert and S. Grimme, Phys. Chem. Chem. Phys.
     2020, 22, 8499-8512. DOI: 10.1039/D0CP00502A
   
   for sTDA-xTB:
   * S. Grimme and C. Bannwarth, J. Chem. Phys., 2016, 145, 054103.
     DOI: 10.1063/1.4959605
   
   in the mass-spec context:
   * V. Asgeirsson, C. Bauer and S. Grimme, Chem. Sci., 2017, 8, 4879.
     DOI: 10.1039/c7sc00601b
   * J. Koopman and S. Grimme, ACS Omega 2019, 4, 12, 15120-15133.
     DOI: 10.1021/acsomega.9b02011
   
   for metadynamics refer to:
   * S. Grimme, J. Chem. Theory Comput., 2019, 155, 2847-2862
     DOI: 10.1021/acs.jctc.9b00143
   
   for SPH calculations refer to:
   * S. Spicher and S. Grimme, J. Chem. Theory Comput., 2021, 17, 1701-1714
     DOI: 10.1021/acs.jctc.0c01306
   
   for ONIOM refer to:
   * C. Plett, A. Katbashev, S. Ehlert, S. Grimme, M. Bursch,
     Phys. Chem. Chem. Phys., 2023, 25, 17860-17868. DOI: 10.1039/D3CP02178E
   
   for DIPRO refer to:
   * J. Kohn, N. Gildemeister, S. Grimme, D. Fazzi, A. Hansen,
     J. Chem. Phys., 2023, just accepted.
   
   for PTB refer to:
   * S. Grimme, M. Mueller, A. Hansen, J. Chem. Phys., 2023, 158, 124111.
     DOI: 10.1063/5.0137838
   
   with help from (in alphabetical order)
   P. Atkinson, C. Bannwarth, F. Bohle, G. Brandenburg, E. Caldeweyher
   M. Checinski, S. Dohm, S. Ehlert, S. Ehrlich, I. Gerasimov, C. Hölzer
   A. Katbashev, J. Kohn, J. Koopman, C. Lavigne, S. Lehtola, F. März, M. Müller,
   F. Musil, H. Neugebauer, J. Pisarek, C. Plett, P. Pracht, F. Pultar,
   J. Seibert, P. Shushkov, S. Spicher, M. Stahn, M. Steiner, T. Strunk,
   J. Stückrath, T. Rose, and J. Unsleber
   
 * started run on 2026/03/12 at 12:40:52.403     
   ID    Z sym.   atoms
    1    6 C      1
    2    1 H      2-4
    3   35 Br     5
    4   53 I      6

           -------------------------------------------------
          |                Calculation Setup                |
           -------------------------------------------------

          program call               : /software/orca-6.1.0-el8-x86_64/bin/otool_xtb product_optfreq_XTB.xyz --grad -c -1 -u 0 -P 8 --namespace product_optfreq --input product_optfreq_XTB.input.tmp --acc 0.200000
          hostname                   : midway3-login4.rcc.local
          calculation namespace      : product_optfreq
          coordinate file            : product_optfreq_XTB.xyz
          omp threads                :                     8


molecular fragmentation (1/2 indicates fragments):
111112
# atoms in fragment 1/2:     5     1
 fragment masses (1/2) :       94.94      126.90
CMA distance (Bohr)    :   9.148
constraining FC (au)   :  0.0500

           -------------------------------------------------
          |                 G F N 2 - x T B                 |
           -------------------------------------------------

        Reference                      10.1021/acs.jctc.8b01176
      * Hamiltonian:
        H0-scaling (s, p, d)           1.850000    2.230000    2.230000
        zeta-weighting                 0.500000
      * Dispersion:
        s8                             2.700000
        a1                             0.520000
        a2                             5.000000
        s9                             5.000000
      * Repulsion:
        kExp                           1.500000    1.000000
        rExp                           1.000000
      * Coulomb:
        alpha                          2.000000
        third order                    shell-resolved
        anisotropic                    true
        a3                             3.000000
        a5                             4.000000
        cn-shift                       1.200000
        cn-exp                         4.000000
        max-rad                        5.000000

q/qsh data taken from xtbrestart
CAMM data taken from xtbrestart

          ...................................................
          :                      SETUP                      :
          :.................................................:
          :  # basis functions                  27          :
          :  # atomic orbitals                  25          :
          :  # shells                           11          :
          :  # electrons                        22          :
          :  max. iterations                   250          :
          :  Hamiltonian                  GFN2-xTB          :
          :  restarted?                       true          :
          :  GBSA solvation                  false          :
          :  PC potential                    false          :
          :  electronic temp.          300.0000000     K    :
          :  accuracy                    0.2000000          :
          :  -> integral cutoff          0.3198970E+02      :
          :  -> integral neglect         0.2000000E-08      :
          :  -> SCF convergence          0.2000000E-06 Eh   :
          :  -> wf. convergence          0.2000000E-04 e    :
          :  Broyden damping             0.4000000          :
          :  net charge                         -1          :
          :  unpaired electrons                  0          :
          ...................................................

 iter      E             dE          RMSdq      gap      omega  full diag
   1    -11.8856083 -0.118856E+02  0.152E-01    2.20       0.0  T
   2    -11.8856108 -0.256420E-05  0.705E-02    2.18       1.0  T
   3    -11.8856111 -0.295984E-06  0.169E-02    2.18       2.4  T
   4    -11.8856112 -0.441518E-07  0.875E-03    2.18       4.7  T
   5    -11.8856112 -0.150235E-07  0.458E-03    2.18       8.9  T
   6    -11.8856112 -0.101824E-07  0.523E-04    2.18      78.0  T
   7    -11.8856112 -0.936957E-10  0.258E-04    2.18     158.2  T
   8    -11.8856112 -0.481020E-10  0.187E-04    2.18     218.7  T
   9    -11.8856112 -0.353690E-10  0.484E-05    2.18     844.2  T

   *** convergence criteria satisfied after 9 iterations ***

         #    Occupation            Energy/Eh            Energy/eV
      -------------------------------------------------------------
         1        2.0000           -0.7208972             -19.6166
       ...           ...                  ...                  ...
         5        2.0000           -0.3791509             -10.3172
         6        2.0000           -0.3628808              -9.8745
         7        2.0000           -0.2880826              -7.8391
         8        2.0000           -0.2880810              -7.8391
         9        2.0000           -0.1761967              -4.7946
        10        2.0000           -0.1712484              -4.6599
        11        2.0000           -0.1712483              -4.6599 (HOMO)
        12                         -0.0912064              -2.4819 (LUMO)
        13                          0.1614371               4.3929
        14                          0.1614375               4.3929
        15                          0.1767656               4.8100
        16                          0.1767689               4.8101
       ...                                ...                  ...
        25                          0.4858180              13.2198
      -------------------------------------------------------------
                  HL-Gap            0.0800418 Eh            2.1780 eV
             Fermi-level           -0.1312274 Eh           -3.5709 eV

 SCC (total)                   0 d,  0 h,  0 min,  0.212 sec
 SCC setup                      ...        0 min,  0.000 sec (  0.112%)
 Dispersion                     ...        0 min,  0.000 sec (  0.041%)
 classical contributions        ...        0 min,  0.000 sec (  0.036%)
 integral evaluation            ...        0 min,  0.209 sec ( 98.532%)
 iterations                     ...        0 min,  0.002 sec (  0.901%)
 molecular gradient             ...        0 min,  0.001 sec (  0.293%)
 printout                       ...        0 min,  0.000 sec (  0.075%)

         :::::::::::::::::::::::::::::::::::::::::::::::::::::
         ::                     SUMMARY                     ::
         :::::::::::::::::::::::::::::::::::::::::::::::::::::
         :: total energy             -11.827181245691 Eh    ::
         :: gradient norm              0.000640125270 Eh/a0 ::
         :: HOMO-LUMO gap              2.178049167754 eV    ::
         ::.................................................::
         :: SCC energy               -11.885612128058 Eh    ::
         :: -> isotropic ES            0.146298986802 Eh    ::
         :: -> anisotropic ES         -0.004623794484 Eh    ::
         :: -> anisotropic XC         -0.004917112274 Eh    ::
         :: -> dispersion             -0.003326192944 Eh    ::
         :: repulsion energy           0.058430882367 Eh    ::
         :: add. restraining           0.000000000000 Eh    ::
         :: total charge              -1.000000000000 e     ::
         :::::::::::::::::::::::::::::::::::::::::::::::::::::


Property printout bound to 'properties.out'

           -------------------------------------------------
          | TOTAL ENERGY              -11.827181245691 Eh   |
          | GRADIENT NORM               0.000640125270 Eh/α |
          | HOMO-LUMO GAP               2.178049167754 eV   |
           -------------------------------------------------

------------------------------------------------------------------------
 * finished run on 2026/03/12 at 12:40:52.667     
------------------------------------------------------------------------
 total:
 * wall-time:     0 d,  0 h,  0 min,  0.264 sec
 *  cpu-time:     0 d,  0 h,  0 min,  0.663 sec
 * ratio c/w:     2.512 speedup
 SCF:
 * wall-time:     0 d,  0 h,  0 min,  0.213 sec
 *  cpu-time:     0 d,  0 h,  0 min,  0.584 sec
 * ratio c/w:     2.747 speedup


-------------------------   --------------------
FINAL SINGLE POINT ENERGY       -11.827181245690
-------------------------   --------------------


-------------
DIPOLE MOMENT
-------------
                                X             Y             Z
Total Dipole Moment    :      0.00000       0.00000       2.75500
                        -----------------------------------------
Magnitude (a.u.)       :      2.75500
Magnitude (Debye)      :      7.00265


------------------
CARTESIAN GRADIENT
------------------

   1   C   :    0.000021126    0.000021504   -0.000472973
   2   H   :    0.000010499   -0.000054707    0.000000542
   3   H   :   -0.000025408    0.000031435   -0.000004593
   4   H   :   -0.000007864    0.000000103   -0.000018145
   5   Br  :    0.000001937    0.000001959    0.000416988
   6   I   :   -0.000000292   -0.000000295    0.000078181

Difference to translation invariance:
           :    0.0000000000   -0.0000000000    0.0000000000

Difference to rotation invariance:
           :   -0.0000000025    0.0000000025    0.0000000000

Norm of the Cartesian gradient     ...    0.0006401253
RMS gradient                       ...    0.0001508790
MAX gradient                       ...    0.0004729726
------------------------------------------------------------------------------
                         ORCA GEOMETRY RELAXATION STEP
------------------------------------------------------------------------------

Reading the OPT-File                    .... done
Getting information on internals        .... done
Copying old internal coords+grads       .... done
Making the new internal coordinates     .... (2022 redundants) done
Validating the new internal coordinates .... (2022 redundants) done
Calculating the B-matrix                .... done
Calculating the G,G- and P matrices     .... done
Transforming gradient to internals      .... done
Projecting the internal gradient        .... done
Number of atoms                         ....   6
Number of internal coordinates          ....  17
Current Energy                          ....   -11.827181246 Eh
Current gradient norm                   ....     0.000640125 Eh/bohr
Maximum allowed component of the step   ....  0.300
Current trust radius                    ....  0.300
Updating the Hessian (BFGS)             .... done
Forming the augmented Hessian           .... done
Diagonalizing the augmented Hessian     .... done
Last element of RFO vector              ....  0.999919632
Lowest eigenvalues of augmented Hessian:
 -0.000001417  0.004607962  0.042325707  0.042366678  0.191314646
Length of the computed step             ....  0.012678915
The final length of the internal step   ....  0.012678915
Converting the step to Cartesian space:
 Initial RMS(Int)=    0.0030750886
Transforming coordinates:
 Iter   0:  RMS(Cart)=    0.0013837893 RMS(Int)=    0.0030752223
done
Storing new coordinates                 .... done
The predicted energy change is          ....    -0.000000709
Previously predicted energy change      ....    -0.000012233
Actually observed energy change         ....    -0.000013872
Ratio of predicted to observed change   ....     1.133980083
New trust radius                        ....     0.450000000

                                .--------------------.
          ----------------------|Geometry convergence|-------------------------
          Item                value                   Tolerance       Converged
          ---------------------------------------------------------------------
          Energy change      -0.0000138724            0.0000050000      NO
          RMS gradient        0.0001029701            0.0001000000      NO
          MAX gradient        0.0004169882            0.0003000000      NO
          RMS step            0.0030750886            0.0020000000      NO
          MAX step            0.0065226471            0.0040000000      NO
          -------------------------------------------------------------------------
          ........................................................
          Max(Bonds)      0.0035      Max(Angles)    0.01
          Max(Dihed)        0.00      Max(Improp)    0.00
          ---------------------------------------------------------------------

The optimization has not yet converged - more geometry cycles are needed


    ---------------------------------------------------------------------------
                         Redundant Internal Coordinates
                            (Angstroem and degrees)

        Definition                    Value    dE/dq     Step     New-Value
    ----------------------------------------------------------------------------
     1. B(H   1,C   0)                1.0805 -0.000052  0.0001    1.0806   
     2. B(H   2,C   0)                1.0805 -0.000034  0.0001    1.0806   
     3. B(H   3,C   0)                1.0806  0.000013  0.0000    1.0806   
     4. B(Br  4,C   0)                1.9715  0.000417 -0.0011    1.9704   
     5. B(I   5,H   2)                3.0487 -0.000019  0.0033    3.0520   
     6. B(I   5,H   1)                3.0488 -0.000019  0.0033    3.0520   
     7. B(I   5,H   3)                3.0487 -0.000019  0.0033    3.0519   
     8. B(I   5,C   0)                3.1916 -0.000024  0.0035    3.1951   
     9. A(H   1,C   0,H   3)          111.49  0.000007   -0.00    111.49   
    10. A(H   2,C   0,H   3)          111.49  0.000016   -0.00    111.49   
    11. A(H   1,C   0,Br  4)          107.37 -0.000007    0.00    107.37   
    12. A(H   2,C   0,Br  4)          107.37 -0.000004    0.00    107.37   
    13. A(H   3,C   0,Br  4)          107.37  0.000004   -0.00    107.37   
    14. A(H   1,C   0,I   5)           72.63  0.000003    0.00     72.63   
    15. A(H   2,C   0,I   5)           72.63  0.000003    0.00     72.63   
    16. A(H   3,C   0,I   5)           72.62  0.000002    0.00     72.62   
    17. A(H   1,C   0,H   2)          111.48 -0.000017    0.01    111.48   
    ----------------------------------------------------------------------------

Geometry step timings:
Preparation and reading OPT file:      0.000 s ( 3.265 %)
Internal coordinates            :      0.000 s ( 3.638 %)
B/P matrices and projection     :      0.000 s (13.153 %)
Hessian update/contruction      :      0.000 s (29.944 %)
Making the step                 :      0.000 s ( 8.302 %)
Converting the step to Cartesian:      0.000 s ( 2.892 %)
Storing new data                :      0.000 s ( 7.369 %)
Checking convergence            :      0.000 s ( 7.183 %)
Final printing                  :      0.000 s (24.160 %)
Total time                      :      0.001 s

Time for energy+gradient        :      0.274 s
Time for complete geometry iter :      0.276 s

         *************************************************************
         *                GEOMETRY OPTIMIZATION CYCLE   4            *
         *************************************************************
---------------------------------
CARTESIAN COORDINATES (ANGSTROEM)
---------------------------------
  C     0.000032    0.000031    0.385351
  H     0.000059    1.031359    0.062732
  H     0.893208   -0.515602    0.062714
  H    -0.893139   -0.515629    0.062665
  Br   -0.000013   -0.000014    2.355749
  I    -0.000031   -0.000031   -2.809746

----------------------------
CARTESIAN COORDINATES (A.U.)
----------------------------
  NO LB    ZA    FRAG    MASS        X           Y           Z
   0 C   6.0000    0    12.011    0.000060    0.000059    0.728208
   1 H   1.0000    0     1.008    0.000111    1.948985    0.118546
   2 H   1.0000    0     1.008    1.687919   -0.974346    0.118512
   3 H   1.0000    0     1.008   -1.687789   -0.974397    0.118420
[...]
        25                          0.4876501              13.2696
      -------------------------------------------------------------
                  HL-Gap            0.0799783 Eh            2.1763 eV
             Fermi-level           -0.1310433 Eh           -3.5659 eV

 SCC (total)                   0 d,  0 h,  0 min,  0.149 sec
 SCC setup                      ...        0 min,  0.000 sec (  0.112%)
 Dispersion                     ...        0 min,  0.000 sec (  0.035%)
 classical contributions        ...        0 min,  0.000 sec (  0.022%)
 integral evaluation            ...        0 min,  0.146 sec ( 97.623%)
 iterations                     ...        0 min,  0.002 sec (  1.092%)
 molecular gradient             ...        0 min,  0.001 sec (  0.994%)
 printout                       ...        0 min,  0.000 sec (  0.108%)

         :::::::::::::::::::::::::::::::::::::::::::::::::::::
         ::                     SUMMARY                     ::
         :::::::::::::::::::::::::::::::::::::::::::::::::::::
         :: total energy             -11.827182477773 Eh    ::
         :: gradient norm              0.000292602824 Eh/a0 ::
         :: HOMO-LUMO gap              2.176320004804 eV    ::
         ::.................................................::
         :: SCC energy               -11.885631500617 Eh    ::
         :: -> isotropic ES            0.146491261925 Eh    ::
         :: -> anisotropic ES         -0.004646708009 Eh    ::
         :: -> anisotropic XC         -0.005010337416 Eh    ::
         :: -> dispersion             -0.003324199312 Eh    ::
         :: repulsion energy           0.058449022844 Eh    ::
         :: add. restraining           0.000000000000 Eh    ::
         :: total charge              -1.000000000000 e     ::
         :::::::::::::::::::::::::::::::::::::::::::::::::::::

           ------------------------------------------------- 
          |                Numerical Hessian                |
           ------------------------------------------------- 
step length          :   0.00500
SCC accuracy         :   0.30000
Hessian scale factor :   1.00000
frozen atoms in %    :   0.00000    0
RMS gradient         :   0.00029
estimated CPU  time      0.00 min
estimated wall time      0.00 min

writing file <hessian>.

 projected vibrational frequencies (cm⁻¹)
eigval :       -0.00    -0.00     0.00     0.00     0.00     0.00
eigval :       88.40   103.70   103.72   456.78   949.33   949.33
eigval :     1275.13  1433.58  1433.60  3078.54  3101.77  3101.79

Property printout bound to 'properties.out'
Molecule has the following symmetry elements: (C3) 3*(sigma) 
It seems to be the C3v point group

           -------------------------------------------------
          | TOTAL ENERGY              -11.827182477773 Eh   |
          | TOTAL ENTHALPY            -11.784197373645 Eh   |
          | TOTAL FREE ENERGY         -11.821421466640 Eh   |
          | GRADIENT NORM               0.000292607123 Eh/α |
          | HOMO-LUMO GAP               2.176320059977 eV   |
           -------------------------------------------------

------------------------------------------------------------------------
 * finished run on 2026/03/12 at 12:40:53.180     
------------------------------------------------------------------------
 total:
 * wall-time:     0 d,  0 h,  0 min,  0.192 sec
 *  cpu-time:     0 d,  0 h,  0 min,  0.782 sec
 * ratio c/w:     4.073 speedup
 SCF:
 * wall-time:     0 d,  0 h,  0 min,  0.150 sec
 *  cpu-time:     0 d,  0 h,  0 min,  0.534 sec
 * ratio c/w:     3.569 speedup
 analytical hessian:
 * wall-time:     0 d,  0 h,  0 min,  0.024 sec
 *  cpu-time:     0 d,  0 h,  0 min,  0.182 sec
 * ratio c/w:     7.726 speedup


-------------------------   --------------------
FINAL SINGLE POINT ENERGY       -11.827182477770
-------------------------   --------------------


-------------
DIPOLE MOMENT
-------------
                                X             Y             Z
Total Dipole Moment    :      0.00000       0.00000       2.76700
                        -----------------------------------------
Magnitude (a.u.)       :      2.76700
Magnitude (Debye)      :      7.03316


-----------------------
VIBRATIONAL FREQUENCIES
-----------------------

Scaling factor for frequencies =  1.000000000  (already applied!)

     0:       0.00 cm**-1
     1:       0.00 cm**-1
     2:       0.00 cm**-1
     3:       0.00 cm**-1
     4:       0.00 cm**-1
     5:       0.00 cm**-1
     6:      88.40 cm**-1
     7:     103.70 cm**-1
     8:     103.72 cm**-1
     9:     456.77 cm**-1
    10:     949.30 cm**-1
    11:     949.31 cm**-1
    12:    1275.09 cm**-1
    13:    1433.54 cm**-1
    14:    1433.56 cm**-1
    15:    3078.45 cm**-1
    16:    3101.68 cm**-1
    17:    3101.70 cm**-1


------------
NORMAL MODES
------------

These modes are the Cartesian displacements weighted by the diagonal matrix
M(i,i)=1/sqrt(m[i]) where m[i] is the mass of the displaced atom
Thus, these vectors are normalized but *not* orthogonal

                  0          1          2          3          4          5    
      0       0.000000   0.000000   0.000000   0.000000   0.000000   0.000000
      1       0.000000   0.000000   0.000000   0.000000   0.000000   0.000000
      2       0.000000   0.000000   0.000000   0.000000   0.000000   0.000000
      3       0.000000   0.000000   0.000000   0.000000   0.000000   0.000000
      4       0.000000   0.000000   0.000000   0.000000   0.000000   0.000000
      5       0.000000   0.000000   0.000000   0.000000   0.000000   0.000000
      6       0.000000   0.000000   0.000000   0.000000   0.000000   0.000000
      7       0.000000   0.000000   0.000000   0.000000   0.000000   0.000000
      8       0.000000   0.000000   0.000000   0.000000   0.000000   0.000000
      9       0.000000   0.000000   0.000000   0.000000   0.000000   0.000000
     10       0.000000   0.000000   0.000000   0.000000   0.000000   0.000000
     11       0.000000   0.000000   0.000000   0.000000   0.000000   0.000000
     12       0.000000   0.000000   0.000000   0.000000   0.000000   0.000000
     13       0.000000   0.000000   0.000000   0.000000   0.000000   0.000000
     14       0.000000   0.000000   0.000000   0.000000   0.000000   0.000000
     15       0.000000   0.000000   0.000000   0.000000   0.000000   0.000000
     16       0.000000   0.000000   0.000000   0.000000   0.000000   0.000000
     17       0.000000   0.000000   0.000000   0.000000   0.000000   0.000000
                  6          7          8          9         10         11    
      0      -0.000215   0.422735   0.010574  -0.000023  -0.096851   0.038767
      1      -0.000163   0.010573  -0.422739  -0.000023  -0.038768  -0.096849
      2      -0.454606  -0.000009   0.000003   0.674590  -0.000006  -0.000003
      3      -0.000254   0.494098   0.012251  -0.000014   0.228511  -0.091485
      4       0.008627   0.012449  -0.497701  -0.053711   0.055940   0.139751
      5      -0.402638   0.005765  -0.230813   0.417309   0.282068   0.704666
      6       0.007385   0.496841   0.013998  -0.046518   0.177327  -0.026380
      7      -0.004602   0.010961  -0.495019   0.026832   0.121013   0.190959
      8      -0.402601   0.196998   0.120412   0.417300   0.469221  -0.596607
      9      -0.007897   0.496923   0.010965   0.046491   0.146573  -0.103256
     10      -0.004605   0.013805  -0.495140   0.026833   0.044173   0.221712
     11      -0.402379  -0.202795   0.110413   0.417264  -0.751295  -0.108046
     12       0.000023  -0.048889  -0.001223   0.000004   0.007794  -0.003120
     13       0.000017  -0.001223   0.048889   0.000004   0.003120   0.007794
     14      -0.443623  -0.000025   0.000019  -0.117824   0.000001   0.000000
     15       0.000012  -0.021048  -0.000526   0.000000  -0.000128   0.000051
     16       0.000009  -0.000526   0.021048   0.000000  -0.000051  -0.000129
     17       0.331939   0.000017  -0.000012   0.000392   0.000000   0.000000
                 12         13         14         15         16         17    
      0      -0.000001  -0.003092  -0.072428  -0.000076   0.063267   0.067206
      1      -0.000000  -0.072427   0.003092  -0.000025  -0.067206   0.063267
      2       0.088925   0.000002  -0.000000   0.035334   0.000014   0.000031
      3       0.000006   0.031925   0.747727  -0.000034   0.028239   0.029991
      4      -0.173140  -0.121129   0.005169   0.556589   0.564755  -0.530986
      5      -0.548355  -0.296979   0.012688  -0.152879  -0.175642   0.165165
      6      -0.149959   0.380324   0.080029   0.482219  -0.648773  -0.173139
      7       0.086572   0.546571   0.353586  -0.278437   0.360876   0.145523
      8      -0.548375   0.137503  -0.263503  -0.152962   0.230887   0.069287
      9       0.149971  -0.372119   0.112137  -0.481278  -0.134281  -0.658655
     10       0.086572   0.514457  -0.398883  -0.277854  -0.123831  -0.369344
     11      -0.548362   0.159450   0.250831  -0.152631  -0.055426  -0.234861
     12      -0.000000  -0.000042  -0.000981  -0.000000   0.000037   0.000039
     13      -0.000000  -0.000981   0.000042  -0.000000  -0.000039   0.000037
     14       0.006023   0.000000  -0.000000   0.000330   0.000000   0.000000
     15       0.000000   0.000000   0.000007   0.000000  -0.000016  -0.000017
     16       0.000000   0.000007  -0.000000   0.000000   0.000017  -0.000016
     17       0.000858  -0.000000  -0.000000   0.000089   0.000000   0.000000


The first frequency considered to be a vibration is 6
The total number of vibrations considered is 12


--------------------------
THERMOCHEMISTRY AT 298.15K
--------------------------

Temperature         ...   298.15 K
Pressure            ...     1.00 atm
Total Mass          ...   221.84 AMU
Quasi RRHO          ...     True
Cut-Off Frequency   ...     1.00 cm^-1

Throughout the following assumptions are being made:
  (1) The electronic state is orbitally nondegenerate
  (2) There are no thermally accessible electronically excited states
  (3) Hindered rotations indicated by low frequency modes are not
      treated as such but are treated as vibrations and this may
      cause some error
  (4) All equations used are the standard statistical mechanics
      equations for an ideal gas
  (5) All vibrations are strictly harmonic

freq.      88.40  E(vib)   ...       0.48 
freq.     103.70  E(vib)   ...       0.46 
freq.     103.72  E(vib)   ...       0.46 
freq.     456.77  E(vib)   ...       0.16 
freq.     949.30  E(vib)   ...       0.03 
freq.     949.31  E(vib)   ...       0.03 
freq.    1275.09  E(vib)   ...       0.01 
freq.    1433.54  E(vib)   ...       0.00 
freq.    1433.56  E(vib)   ...       0.00 
freq.    3078.45  E(vib)   ...       0.00 
freq.    3101.68  E(vib)   ...       0.00 
freq.    3101.70  E(vib)   ...       0.00 

------------
INNER ENERGY
------------

The inner energy is: U= E(el) + E(ZPE) + E(vib) + E(rot) + E(trans)
    E(el)   - is the total energy from the electronic structure calculation
              = E(kin-el) + E(nuc-el) + E(el-el) + E(nuc-nuc)
    E(ZPE)  - the the zero temperature vibrational energy from the frequency calculation
    E(vib)  - the the finite temperature correction to E(ZPE) due to population
              of excited vibrational states
    E(rot)  - is the rotational thermal energy
    E(trans)- is the translational thermal energy

Summary of contributions to the inner energy U:
Electronic energy                ...    -11.82718248 Eh
Zero point energy                ...      0.03662208 Eh      22.98 kcal/mol
Thermal vibrational correction   ...      0.00258524 Eh       1.62 kcal/mol
Thermal rotational correction    ...      0.00141627 Eh       0.89 kcal/mol
Thermal translational correction ...      0.00141627 Eh       0.89 kcal/mol
-----------------------------------------------------------------------
Total thermal energy                    -11.78514262 Eh


Summary of corrections to the electronic energy:
(perhaps to be used in another calculation)
Total thermal correction                  0.00541778 Eh       3.40 kcal/mol
Non-thermal (ZPE) correction              0.03662208 Eh      22.98 kcal/mol
-----------------------------------------------------------------------
Total correction                          0.04203986 Eh      26.38 kcal/mol


--------
ENTHALPY
--------

The enthalpy is H = U + kB*T
                kB is Boltzmann's constant
Total thermal energy              ...    -11.78514262 Eh 
Thermal Enthalpy correction       ...      0.00094421 Eh       0.59 kcal/mol
-----------------------------------------------------------------------
Total Enthalpy                    ...    -11.78419841 Eh


WARNING (ORCA/SYM): The number of Z matrix atoms does not agree with
the number of centers in the basis set. The point group will therefore
be determined without considering basis set information.


Note: Rotational entropy computed according to Herzberg 
Infrared and Raman Spectra, Chapter V,1, Van Nostrand Reinhold, 1945 
Point Group:  Cs, Symmetry Number:   1  
Rotational constants in cm-1:     5.241264     0.012691     0.012691 

Vibrational entropy computed according to the QRRHO of S. Grimme
Chem.Eur.J. 2012 18 9955 using a reference frequency of 100.0 cm-1


-------
ENTROPY
-------

The entropy contributions are T*S = T*(S(el)+S(vib)+S(rot)+S(trans))
     S(el)   - electronic entropy
     S(vib)  - vibrational entropy
     S(rot)  - rotational entropy
     S(trans)- translational entropy
The entropies will be listed as multiplied by the temperature to get
units of energy

Electronic entropy                ...      0.00000000 Eh      0.00 kcal/mol
Vibrational entropy               ...      0.00501778 Eh      3.15 kcal/mol
Rotational entropy                ...      0.01285184 Eh      8.06 kcal/mol
Translational entropy             ...      0.01999968 Eh     12.55 kcal/mol
-----------------------------------------------------------------------
Final entropy term                ...      0.03786930 Eh     23.76 kcal/mol

In case the symmetry of your molecule has not been determined correctly
or in case you have a reason to use a different symmetry number we print 
out the resulting rotational entropy values for sn=1,12:

 non-linear molecules -----------------------------------
|  sn= 1 | S(rot)=       0.01285184 Eh      8.06 kcal/mol|
|  sn= 2 | S(rot)=       0.01219738 Eh      7.65 kcal/mol|
|  sn= 3 | S(rot)=       0.01181455 Eh      7.41 kcal/mol|
|  sn= 4 | S(rot)=       0.01154293 Eh      7.24 kcal/mol|
|  sn= 5 | S(rot)=       0.01133224 Eh      7.11 kcal/mol|
|  sn= 6 | S(rot)=       0.01116010 Eh      7.00 kcal/mol|
|  sn= 7 | S(rot)=       0.01101455 Eh      6.91 kcal/mol|
|  sn= 8 | S(rot)=       0.01088847 Eh      6.83 kcal/mol|
|  sn= 9 | S(rot)=       0.01077726 Eh      6.76 kcal/mol|
|  sn=10 | S(rot)=       0.01067778 Eh      6.70 kcal/mol|
|  sn=11 | S(rot)=       0.01058779 Eh      6.64 kcal/mol|
|  sn=12 | S(rot)=       0.01050564 Eh      6.59 kcal/mol|
 linear molecules ---------------------------------------
|  Dinfh | S(rot)=       0.00944888 Eh      5.93 kcal/mol|
|  Cinfv | S(rot)=       0.01010334 Eh      6.34 kcal/mol|
 --------------------------------------------------------


-------------------
GIBBS FREE ENERGY
-------------------

The Gibbs free energy is G = H - T*S

Total enthalpy                    ...    -11.78419841 Eh 
Total entropy correction          ...     -0.03786930 Eh    -23.76 kcal/mol
-----------------------------------------------------------------------
Final Gibbs free energy         ...    -11.82206770 Eh

For completeness - the Gibbs free energy minus the electronic energy
G-E(el)                           ...      0.00511477 Eh      3.21 kcal/mol


--------------------------------
SUGGESTED CITATIONS FOR THIS RUN
--------------------------------

Below you find a list of papers that are relevant to this ORCA run
We neither can nor want to force you to cite these papers, but we appreciate if you do
You receive ORCA, which is the product of decades of hard work by many enthusiastic individuals, for free
The only thing we kindly ask in return is that you cite our papers,
We deeply appreciate it, if you show your appreciation for ORCA by not just citing the generic ORCA reference.

Please note that relegating all ORCA citations to the supporting information does *not* help us.
SI sections are not indexed - citations you put there will not count into any citation statistics
But we need these citations in order to attract the funding resources that allow us to do what we are doing

Therefore, if you are a happy ORCA user, please consider citing a few of the papers listed below in the main body of your paper

In addition to the list printed below, the program has created the file product_optfreq.bibtex that contains the list in bibtex format
You can import this file easily into all common literature databanks and citation aid programs


List of essential papers. We consider these as the minimum necessary citations

  1. Bannwarth, C.; Ehlert, S.; Grimme, S.
     GFN2-xTB—An Accurate and Broadly Parametrized Self-Consistent Tight-Binding Quantum Chemical Method with Multipole Electrostatics and Density-Dependent Dispersion Contributions
     J. Chem. Theory Comput. 2019 15(3), 1652-1671
     doi.org/10.1021/acs.jctc.8b01176
  2. Neese, F.
     Software update: the ORCA program system, version 6.0
     WIRES Comput. Molec. Sci. 2025 15(1), e70019
     doi.org/10.1002/wcms.7019

List of papers to cite with high priority. The work reported in these papers was absolutely
necessary for this run to complete.
Our perspective: the developers of density functionals and basis sets usually get cited in chemistry papers
Good! But without the algorithms to do something with them, the functionals or basis sets would not do anything.
Hence, in our opinion, the algorithm design and method developments papers are equally worthy of getting cited

  1. Bykov, D.; Petrenko, T.; Izsak, R.; Kossmann, S.; Becker, U.; Valeev, E.; Neese, F.
     Efficient implementation of the analytic second derivatives of Hartree-Fock and hybrid DFT energies: a detailed analysis of different approximations
     Molec. Phys. 2015 113 , 1961-1977
     doi.org/10.1080/00268976.2015.1025114
  2. Bannwarth, C.; Caldeweyher, E.; Ehlert, S.; Hansen, A.; Pracht, P.; Seibert, J.; Spicher, S.; Grimme, S.
     Extended tight-binding quantum chemistry methods
     WIRES Comput. Molec. Sci. 2020 11(2), e1493
     doi.org/10.1002/wcms.1493

List of suggested additional citations. These are papers that are important in the 'surrounding' of 
of this run, or papers that preceded the highly important papers. If you like your results we are grateful for a citation.

  1. Neese, F.
     The ORCA program system
     WIRES Comput. Molec. Sci. 2012 2(1), 73-78
     doi.org/10.1002/wcms.81
  2. Neese, F.
     Software update: the ORCA program system, version 4.0
     WIRES Comput. Molec. Sci. 2018 8(1), 1-6
     doi.org/10.1002/wcms.1327
  3. Neese, F.; Wennmohs, F.; Becker, U.; Riplinger, C.
     The ORCA quantum chemistry program package
     J. Chem. Phys. 2020 152(22), 224108
     doi.org/10.1063/5.0004608
  4. Neese, F.
     Software update: The ORCA program system—Version 5.0
     WIRES Comput. Molec. Sci. 2022 12(1), e1606
     doi.org/10.1002/wcms.1606

List of optional additional citations

  1. Neese, F.
     Approximate second-order SCF convergence for spin unrestricted wavefunctions
     Chem. Phys. Lett. 2000 325(1-3), 93-98
     doi.org/10.1016/s0009-2614(00)00662-x

Timings for individual modules:

Sum of individual times          ...        1.032 sec (=   0.017 min)
Geometry relaxation              ...        0.012 sec (=   0.000 min)   1.1 %
XTB module                       ...        1.020 sec (=   0.017 min)  98.9 %
                             ****ORCA TERMINATED NORMALLY****
TOTAL RUN TIME: 0 days 0 hours 0 minutes 1 seconds 407 msec
