
                                 *****************
                                 * O   R   C   A *
                                 *****************

                                            #,                                       
                                            ###                                      
                                            ####                                     
                                            #####                                    
                                            ######                                   
                                           ########,                                 
                                     ,,################,,,,,                         
                               ,,#################################,,                 
                          ,,##########################################,,             
                       ,#########################################, ''#####,          
                    ,#############################################,,   '####,        
                  ,##################################################,,,,####,       
                ,###########''''           ''''###############################       
              ,#####''   ,,,,##########,,,,          '''####'''          '####       
            ,##' ,,,,###########################,,,                        '##       
           ' ,,###''''                  '''############,,,                           
         ,,##''                                '''############,,,,        ,,,,,,###''
      ,#''                                            '''#######################'''  
     '                                                          ''''####''''         
             ,#######,   #######,   ,#######,      ##                                
            ,#'     '#,  ##    ##  ,#'     '#,    #''#        ,####,    ,#,          
            ##       ##  ##   ,#'  ##            #'  '#       #'       ,# #          
            ##       ##  #######   ##           ,######,      #####,      #          
            '#,     ,#'  ##    ##  '#,     ,#' ,#      #,     #,   #      #          
             '#######'   ##     ##  '#######'  #'      '#     '####' #    #          



                #########################################################
                #                        -***-                          #
                #          Department of theory and spectroscopy        #
                #                                                       #
                #                      Frank Neese                      #
                #                                                       #
                #     Directorship, Architecture, Infrastructure        #
                #                    SHARK, DRIVERS                     #
                #        Core code/Algorithms in most modules           #
                #                                                       #
                #        Max Planck Institute fuer Kohlenforschung      #
                #                Kaiser Wilhelm Platz 1                 #
                #                 D-45470 Muelheim/Ruhr                 #
                #                      Germany                          #
                #                                                       #
                #                  All rights reserved                  #
                #                        -***-                          #
                #########################################################


                         Program Version 6.1.0  -  RELEASE   -
                                (GIT: $679e74b$)
                          ($2025-06-10 18:02:51 +0200$)


 With contributions from (in alphabetic order):
[Max-Planck-Institut fuer Kohlenforschung]                               
  Daniel Aravena         : Magnetic Suceptibility                        
  Michael Atanasov       : Ab Initio Ligand Field Theory (pilot matlab implementation)
  Alexander A. Auer      : GIAO ZORA, VPT2 properties, NMR spectrum      
  Ute Becker             : All parallelization in ORCA, NUMFREQ, NUMCALC 
  Giovanni Bistoni       : ED, misc. LED, open-shell LED, HFLD           
  Dmytro Bykov           : pre 5.0 version of the SCF Hessian            
  Marcos Casanova-Páez   : Triplet and SCS-CIS(D). UHF-(DLPNO)-IP/EA/STEOM-CCSD. UHF-CVS-IP/STEOM-CCSD   
  Vijay G. Chilkuri      : MRCI spin determinant printing, contributions to CSF-ICE 
  Pauline Colinet        : FMM embedding                                 
  Dipayan Datta          : RHF DLPNO-CCSD density                        
  Achintya Kumar Dutta   : EOM-CC, STEOM-CC                              
  Nicolas Foglia         : Exact transition moments, OPA infrastructure, MCD improvements    
  Dmitry Ganyushin       : Spin-Orbit,Spin-Spin,Magnetic field MRCI      
  Miquel Garcia-Rates    : C-PCM and meta-GGA Hessian, CCSD/C-PCM, Gaussian charge scheme 
  Tiago L. C. Gouveia    : GS-ROHF, GS-ROCIS                             
  Yang Guo               : DLPNO-NEVPT2, F12-NEVPT2, CIM, IAO-localization        
  Andreas Hansen         : Spin unrestricted coupled pair/coupled cluster methods 
  Ingolf Harden          : AUTO-CI MPn and infrastructure                
  Benjamin Helmich-Paris : MC-RPA, TRAH-(SCF,CASSCF), AVAS, COSX integrals, SCF dyn. polar., MC-PDFT, srDFT 
  Lee Huntington         : MR-EOM, pCC                                   
  Robert Izsak           : Overlap fitted RIJCOSX, COSX-SCS-MP3, EOM     
  Riya Kayal             : Wick's Theorem for AUTO-CI, AUTO-CI UHF-CCSDT 
  Emily Kempfer          : AUTO-CI RHF CISDT and CCSDT, approximate NEVPT4
  Christian Kollmar      : KDIIS, OOCD, Brueckner-CCSD(T), CCSD density, CASPT2, CASPT2-K, improved NEVPT2 
  Axel Koslowski         : Symmetry handling                             
  Simone Kossmann        : meta-GGA functionals, TD-DFT gradient, OOMP2, (MP2 Hessian; deprecated post 5.0) 
  Lucas Lang             : DCDCAS, Hyperfine gauge corrections, ICE-SOC+SSC
  Marvin Lechner         : AUTO-CI (C++ implementation), FIC-MRCC        
  Spencer Leger          : CASSCF response                               
  Dagmar Lenk            : GEPOL surface, SMD, ORCA-2-JSON               
  Dimitrios Liakos       : Extrapolation schemes; Compound Job, Property file
  Dimitrios Manganas     : Further ROCIS development; embedding schemes. LFT, Crystal Embedding 
  Dimitrios Pantazis     : SARC Basis sets                               
  Anastasios Papadopoulos: AUTO-CI, single reference methods and gradients 
  Taras Petrenko         : pre 6.0 DFT Hessian and TD-DFT gradient,  ECA, NRVS 
  Petra Pikulova         : Analytic Raman intensities                    
  Peter Pinski           : DLPNO-MP2, DLPNO-MP2 Gradient                 
  Shashank Vittal Rao    : ES-AILFT, MagRelax                            
  Christoph Reimann      : Effective Core Potentials                     
  Marius Retegan         : Local ZFS, SOC                                
  Christoph Riplinger    : Optimizer, TS searches, QM/MM, DLPNO-CCSD(T), (RO)-DLPNO pert. Triples 
  Michael Roemelt        : Original ROCIS implementation, recursive CI coupling coefficients
  Masaaki Saitow         : Open-shell DLPNO-CCSD energy and density      
  Barbara Sandhoefer     : DKH picture change effects                    
  Yorick L. A. Schmerwitz: GMF and freeze-and-release deltaSCF, NEB S-IDPP initial path                    
  Kantharuban Sivalingam : CASSCF convergence/infrastructure, NEVPT2, NEVPT3, NEVPT4(SD), FIC-MRCI and CEPA variants
  Bernardo de Souza      : ESD, SOC TD-DFT                               
  Georgi L. Stoychev     : AutoAux, RI-MP2 NMR, DLPNO-MP2 response, X2C  
  Van Anh Tran           : RI-MP2 g-tensors                              
  Willem Van den Heuvel  : Paramagnetic NMR                              
  Zikuan Wang            : NOTCH, Electric field optimization            
  Frank Wennmohs         : Technical directorship and infrastructure     
  Hang Xu                : AUTO-CI-Response properties                   
                                                                         
[FACCTs GmbH]                                                            
  Markus Bursch, Nicolas Foglia, Miquel Garcia-Rates, Ingolf Harden, Hagen Neugebauer, Anastasios Papadopoulos, 
  Christoph Riplinger, Bernardo de Souza, Georgi L. Stoychev                                                    
                                                                 
  APM, various basis sets, CI-OPT, improved COSX, DLPNO-Multilevel,           
  DOCKER, DRACO, updates on ESD, Fragmentator, GOAT, IRC, LR-CPCM, L-BFGS, MBIS, meta-GGA TD-DFT gradient, ML-optimized integration grids, 
  MM, NACMEs, nearIR, NEB, NEB-TS, NL-DFT gradient (VV10), 2- and 3-layer-ONIOM, interface openCOSMO-RS, QMMM,   
  Crystal-QMMM, RESP, rigid body optimization, SF, symmetry and pop. for TD-DFT, various functionals, SOLVATOR                                   
                                                                         
[Other institutions]                                                     
  V. Asgeirsson          : NEB                                           
  Christoph Bannwarth    : sTDA-DFT, sTD-DFT, PBEh-3c, B97-3c, D3        
  Giovanni Bistoni       : ETS/NOCV, ADLD/ADEX, COVALED                  
  Martin Brehm           : Molecular dynamics                            
  Ronald Cardenas        : ETS/NOCV                                      
  Martina Colucci        : COVALED                                       
  Sebastian Ehlert       : rSCAN, r2SCAN, r2SCAN-3c, D4, dhf basis sets  
  Marvin Friede          : D4 for Fr, Ra, Ac-Lr                          
  Lars Goerigk           : TD-DFT with DH, B97 family of functionals     
  Stefan Grimme          : VdW corrections, initial TS optimization, DFT functionals, gCP, sTDA/sTD-DF 
  Waldemar Hujo          : DFT-NL                                        
  H. Jonsson             : NEB                                           
  Holger Kruse           : gCP                                           
  Marcel Mueller         : wB97X-3c, vDZP basis set                      
  Hagen Neugebauer       : wr2SCAN, Native XTB                           
  Gianluca Regni         : ADLD/ADEX                                     
  Tobias Risthaus        : pre 6.0 range-separated hybrid DFT and stability analysis
  Lukas Wittmann         : regularized MP2, r2SCAN double-hybrids, wr2SCAN        
                                                                         
We gratefully acknowledge several colleagues who have allowed us to      
interface, adapt or use parts of their codes:                            
  Ed Valeev, F. Pavosevic, A. Kumar             : LibInt (2-el integral package), F12 methods 
  Garnet Chan, S. Sharma, J. Yang, R. Olivares  : DMRG                   
  Ulf Ekstrom                                   : XCFun DFT Library      
  Mihaly Kallay                                 : mrcc  (arbitrary order and MRCC methods)
  Frank Weinhold                                : gennbo (NPA and NBO analysis)           
  Simon Mueller                                 : openCOSMO-RS                            
  Christopher J. Cramer and Donald G. Truhlar   : smd solvation model                     
  S Lehtola, MJT Oliveira, MAL Marques          : LibXC Library                           
  Liviu Ungur et al                             : ANISO software                          


 Your calculation uses the libint2 library for the computation of 2-el integrals
 For citations please refer to: http://libint.valeyev.net

 Your ORCA version has been built with support for libXC version: 7.0.0
 For citations please refer to: https://libxc.gitlab.io

 This ORCA versions uses:
   CBLAS   interface :  Fast vector & matrix operations
   LAPACKE interface :  Fast linear algebra routines
   SCALAPACK package :  Parallel linear algebra routines
   Shared memory     :  Shared parallel matrices
   BLAS/LAPACK       :  OpenBLAS 0.3.29  USE64BITINT DYNAMIC_ARCH NO_AFFINITY SkylakeX SINGLE_THREADED
        Core in use  :  SkylakeX
   Copyright (c) 2011-2014, The OpenBLAS Project


  ***********************************
  * Starting time: Mon Mar 16 14:18:44 2026
  * Host name:     midway3-login4.rcc.local
  * Process ID:    114737
  * Working dir.:  /home/rzhu16/evans-polanyi-principle-validation/runs/sn2_br_i/geo_opt_reactant_product
  ***********************************

Your calculation utilizes the semiempirical GFN2-xTB method
Please cite in your paper:
Bannwarth, C.; Ehlert S.; Grimme, S. J. Chem. Theory Comput. 2019, 15, 1652.
   

================================================================================

cite the ECPs for I  [Def2-ECP] as follows:
Ce-Yb(ecp-28): M. Dolg, H. Stoll, H.Preuss, J. Chem. Phys., 1989, 90, 1730-1734.
Y-Cd(ecp-28), Hf-Hg(ecp-46): D. Andrae,U. Haeussermann, M. Dolg, H. Stoll, H. Preuss, Theor. Chim. Acta, 1990, 77, 123-141.
In-Sb(ecp-28), Tl-Bi(ecp-46): B. Metz, H. Stoll, M. Dolg, J. Chem. Phys., 2000, 113, 2563-2569.
Te-Xe(ecp-28), Po-Rn(ecp-46): K. A. Peterson, D. Figgen, E. Goll, H. Stoll, M. Dolg, J. Chem. Phys., 2003, 119, 11113-11123.
Rb(ecp-28), Cs(ecp-46): T. Leininger, A. Nicklass, W. Kuechle, H. Stoll, M. Dolg, A. Bergner, Chem. Phys. Lett., 1996, 255, 274-280.
Sr(ecp-28), Ba(ecp-46): M. Kaupp, P. V. Schleyer, H. Stoll and H. Preuss, J. Chem. Phys., 1991, 94, 1360-1366.
La(ecp-46): M. Dolg, H. Stoll, A. Savin, H. Preuss, Theor. Chim. Acta, 1989, 75, 173-194.
Lu(ecp-28): X. Cao, M. Dolg, J. Chem. Phys., 2001, 115, 7348-7355.

ECP parameters for I  [Def2-ECP] have been obtained from:
TURBOMOLE (7.0.2)

================================================================================
                                        WARNINGS
                       Please study these warnings very carefully!
================================================================================


WARNING: Analytical Hessian for XTB is limited in the analysis of the data.
       : If you want to obtain extensive IR and deltaG analysis, please use ! XTB NumFreq. 


WARNING: Geometry Optimization
  ===> : Switching off AutoStart
         For restart on a previous wavefunction, please use MOREAD

WARNING: Found dipole moment calculation with XTB calculation
  ===> : Switching off dipole moment calculation


WARNING: Found frequency calculation in combination with XTB calculation
  ===> : Need to redirect dipole moment calculation to properties.out


================================================================================
                                       INPUT FILE
================================================================================
NAME = reactant_optfreq.inp
|  1> ! XTB2 Opt Freq PAL8
|  2> 
|  3> %geom
|  4>   MaxIter 500
|  5> end
|  6> 
|  7> * xyz -1 1
|  8>   C       0.000040     -0.000490     -0.317150
|  9>   H      -0.000000      1.031140     -0.002861
| 10>   H       0.892614     -0.515362     -0.003003
| 11>   H      -0.892651     -0.515383     -0.002990
| 12>   Br      0.000000     -0.000005      2.627969
| 13>   I      -0.000003      0.000016     -2.519068
| 14> *
| 15> 
| 16>                          ****END OF INPUT****
================================================================================

                       *****************************
                       * Geometry Optimization Run *
                       *****************************

Geometry optimization settings:
Update method            Update   .... BFGS
Choice of coordinates    CoordSys .... (2022) Redundant Internals
Initial Hessian          InHess   .... Almloef's Model
Max. no of cycles        MaxIter  .... 500

Convergence Tolerances:
Energy Change            TolE     ....  5.0000e-06 Eh
Max. Gradient            TolMAXG  ....  3.0000e-04 Eh/bohr
RMS Gradient             TolRMSG  ....  1.0000e-04 Eh/bohr
Max. Displacement        TolMAXD  ....  4.0000e-03 bohr
RMS Displacement         TolRMSD  ....  2.0000e-03 bohr
Strict Convergence                .... False

------------------------------------------------------------------------------
                        ORCA OPTIMIZATION COORDINATE SETUP
------------------------------------------------------------------------------

The optimization will be done in redundant internal coordinates (2022)
Making redundant internal coordinates   ...  (2022 redundants) done
Evaluating the initial hessian          ...  (Almloef) done
Evaluating the coordinates              ...  done
Calculating the B-matrix                .... done
Calculating the G-matrix                .... done
The number of degrees of freedom        ....   17

    -----------------------------------------------------------------
                    Redundant Internal Coordinates


    -----------------------------------------------------------------
         Definition                    Initial Value    Approx d2E/dq
    -----------------------------------------------------------------
      1. B(H   1,C   0)                  1.0784         0.375718   
      2. B(H   2,C   0)                  1.0773         0.377366   
      3. B(H   3,C   0)                  1.0774         0.377213   
      4. B(Br  4,H   3)                  2.8257         0.010000   
      5. B(Br  4,H   2)                  2.8257         0.010000   
      6. B(Br  4,H   1)                  2.8257         0.010000   
      7. B(Br  4,C   0)                  2.9451         0.010000   
      8. B(I   5,C   0)                  2.2019         0.106382   
      9. A(H   1,C   0,H   3)          111.8491         0.294941   
     10. A(H   2,C   0,H   3)          111.9059         0.295145   
     11. A(H   1,C   0,I   5)          106.9303         0.282988   
     12. A(H   2,C   0,I   5)          106.9625         0.283181   
     13. A(H   3,C   0,I   5)          106.9595         0.283163   
     14. A(H   1,C   0,Br  4)           73.0471         0.193569   
     15. A(H   2,C   0,Br  4)           73.0505         0.193672   
     16. A(H   3,C   0,Br  4)           73.0502         0.193662   
     17. A(H   1,C   0,H   2)          111.8543         0.294960   
    -----------------------------------------------------------------

Number of atoms                         .... 6
Number of degrees of freedom            .... 17


         *************************************************************
         *                GEOMETRY OPTIMIZATION CYCLE   1            *
         *************************************************************
---------------------------------
CARTESIAN COORDINATES (ANGSTROEM)
---------------------------------
  C     0.000040   -0.000490   -0.317150
  H    -0.000000    1.031140   -0.002861
  H     0.892614   -0.515362   -0.003003
  H    -0.892651   -0.515383   -0.002990
  Br    0.000000   -0.000005    2.627969
  I    -0.000003    0.000016   -2.519068

----------------------------
CARTESIAN COORDINATES (A.U.)
----------------------------
  NO LB    ZA    FRAG    MASS        X           Y           Z
   0 C   6.0000    0    12.011    0.000076   -0.000926   -0.599327
   1 H   1.0000    0     1.008   -0.000000    1.948572   -0.005407
   2 H   1.0000    0     1.008    1.686796   -0.973893   -0.005675
   3 H   1.0000    0     1.008   -1.686866   -0.973933   -0.005650
   4 Br 35.0000    0    79.900    0.000000   -0.000009    4.966142
   5 I  53.0000    0   126.900   -0.000006    0.000030   -4.760349

      -----------------------------------------------------------      
     |                   =====================                   |     
     |                           x T B                           |     
     |                   =====================                   |     
     |                         S. Grimme                         |     
     |          Mulliken Center for Theoretical Chemistry        |     
     |                    University of Bonn                     |     
      -----------------------------------------------------------      

   * xtb version 6.7.1 (edcfbbe) compiled by 'albert@albert-system' on 2024-07-22

   xtb is free software: you can redistribute it and/or modify it under
   the terms of the GNU Lesser General Public License as published by
   the Free Software Foundation, either version 3 of the License, or
   (at your option) any later version.
   
   xtb is distributed in the hope that it will be useful,
   but WITHOUT ANY WARRANTY; without even the implied warranty of
   MERCHANTABILITY or FITNESS FOR A PARTICULAR PURPOSE.  See the
   GNU Lesser General Public License for more details.
   
   Cite this work as:
   * C. Bannwarth, E. Caldeweyher, S. Ehlert, A. Hansen, P. Pracht,
     J. Seibert, S. Spicher, S. Grimme, WIREs Comput. Mol. Sci., 2020, 11,
     e01493. DOI: 10.1002/wcms.1493
   
   for GFN2-xTB:
   * C. Bannwarth, S. Ehlert and S. Grimme., J. Chem. Theory Comput., 2019,
     15, 1652-1671. DOI: 10.1021/acs.jctc.8b01176
   for GFN1-xTB:
   * S. Grimme, C. Bannwarth, P. Shushkov, J. Chem. Theory Comput., 2017,
     13, 1989-2009. DOI: 10.1021/acs.jctc.7b00118
   for GFN0-xTB:
   * P. Pracht, E. Caldeweyher, S. Ehlert, S. Grimme, ChemRxiv, 2019, preprint.
     DOI: 10.26434/chemrxiv.8326202.v1
   for GFN-FF:
   * S. Spicher and S. Grimme, Angew. Chem. Int. Ed., 2020, 59, 15665-15673.
     DOI: 10.1002/anie.202004239
   
   for ALPB and GBSA implicit solvation:
   * S. Ehlert, M. Stahn, S. Spicher, S. Grimme, J. Chem. Theory Comput.,
     2021, 17, 4250-4261. DOI: 10.1021/acs.jctc.1c00471
   
   for ddCOSMO and CPCM-X implicit solvation:
   * M. Stahn, S. Ehlert, S. Grimme, J. Phys. Chem. A,
     2023, XX, XXXX-XXXX. DOI: 10.1021/acs.jpca.3c04382
   
   for DFT-D4:
   * E. Caldeweyher, C. Bannwarth and S. Grimme, J. Chem. Phys., 2017,
     147, 034112. DOI: 10.1063/1.4993215
   * E. Caldeweyher, S. Ehlert, A. Hansen, H. Neugebauer, S. Spicher,
     C. Bannwarth and S. Grimme, J. Chem. Phys., 2019, 150, 154122.
     DOI: 10.1063/1.5090222
   * E. Caldeweyher, J.-M. Mewes, S. Ehlert and S. Grimme, Phys. Chem. Chem. Phys.
     2020, 22, 8499-8512. DOI: 10.1039/D0CP00502A
   
   for sTDA-xTB:
   * S. Grimme and C. Bannwarth, J. Chem. Phys., 2016, 145, 054103.
     DOI: 10.1063/1.4959605
   
   in the mass-spec context:
   * V. Asgeirsson, C. Bauer and S. Grimme, Chem. Sci., 2017, 8, 4879.
     DOI: 10.1039/c7sc00601b
   * J. Koopman and S. Grimme, ACS Omega 2019, 4, 12, 15120-15133.
     DOI: 10.1021/acsomega.9b02011
   
   for metadynamics refer to:
   * S. Grimme, J. Chem. Theory Comput., 2019, 155, 2847-2862
     DOI: 10.1021/acs.jctc.9b00143
   
   for SPH calculations refer to:
   * S. Spicher and S. Grimme, J. Chem. Theory Comput., 2021, 17, 1701-1714
     DOI: 10.1021/acs.jctc.0c01306
   
   for ONIOM refer to:
   * C. Plett, A. Katbashev, S. Ehlert, S. Grimme, M. Bursch,
     Phys. Chem. Chem. Phys., 2023, 25, 17860-17868. DOI: 10.1039/D3CP02178E
   
   for DIPRO refer to:
   * J. Kohn, N. Gildemeister, S. Grimme, D. Fazzi, A. Hansen,
     J. Chem. Phys., 2023, just accepted.
   
   for PTB refer to:
   * S. Grimme, M. Mueller, A. Hansen, J. Chem. Phys., 2023, 158, 124111.
     DOI: 10.1063/5.0137838
   
   with help from (in alphabetical order)
   P. Atkinson, C. Bannwarth, F. Bohle, G. Brandenburg, E. Caldeweyher
   M. Checinski, S. Dohm, S. Ehlert, S. Ehrlich, I. Gerasimov, C. Hölzer
   A. Katbashev, J. Kohn, J. Koopman, C. Lavigne, S. Lehtola, F. März, M. Müller,
   F. Musil, H. Neugebauer, J. Pisarek, C. Plett, P. Pracht, F. Pultar,
   J. Seibert, P. Shushkov, S. Spicher, M. Stahn, M. Steiner, T. Strunk,
   J. Stückrath, T. Rose, and J. Unsleber
   
 * started run on 2026/03/16 at 14:18:45.316     
   ID    Z sym.   atoms
    1    6 C      1
    2    1 H      2-4
    3   35 Br     5
    4   53 I      6

           -------------------------------------------------
          |                Calculation Setup                |
           -------------------------------------------------

          program call               : /software/orca-6.1.0-el8-x86_64/bin/otool_xtb reactant_optfreq_XTB.xyz --grad -c -1 -u 0 -P 8 --namespace reactant_optfreq --input reactant_optfreq_XTB.input.tmp --acc 0.200000
          hostname                   : midway3-login4.rcc.local
          calculation namespace      : reactant_optfreq
          coordinate file            : reactant_optfreq_XTB.xyz
          omp threads                :                     8


molecular fragmentation (1/2 indicates fragments):
111121
# atoms in fragment 1/2:     5     1
 fragment masses (1/2) :      141.94       79.90
CMA distance (Bohr)    :   9.273
constraining FC (au)   :  0.0500

           -------------------------------------------------
          |                 G F N 2 - x T B                 |
           -------------------------------------------------

        Reference                      10.1021/acs.jctc.8b01176
      * Hamiltonian:
        H0-scaling (s, p, d)           1.850000    2.230000    2.230000
        zeta-weighting                 0.500000
      * Dispersion:
        s8                             2.700000
        a1                             0.520000
        a2                             5.000000
        s9                             5.000000
      * Repulsion:
        kExp                           1.500000    1.000000
        rExp                           1.000000
      * Coulomb:
        alpha                          2.000000
        third order                    shell-resolved
        anisotropic                    true
        a3                             3.000000
        a5                             4.000000
        cn-shift                       1.200000
        cn-exp                         4.000000
        max-rad                        5.000000


          ...................................................
          :                      SETUP                      :
          :.................................................:
          :  # basis functions                  27          :
          :  # atomic orbitals                  25          :
          :  # shells                           11          :
          :  # electrons                        22          :
          :  max. iterations                   250          :
          :  Hamiltonian                  GFN2-xTB          :
          :  restarted?                      false          :
          :  GBSA solvation                  false          :
          :  PC potential                    false          :
          :  electronic temp.          300.0000000     K    :
          :  accuracy                    0.2000000          :
          :  -> integral cutoff          0.3198970E+02      :
          :  -> integral neglect         0.2000000E-08      :
          :  -> SCF convergence          0.2000000E-06 Eh   :
          :  -> wf. convergence          0.2000000E-04 e    :
          :  Broyden damping             0.4000000          :
          :  net charge                         -1          :
          :  unpaired electrons                  0          :
          ...................................................

 iter      E             dE          RMSdq      gap      omega  full diag
   1    -11.8649963 -0.118650E+02  0.121E+01    4.91       0.0  T
   2    -11.8823182 -0.173218E-01  0.500E+00    3.00       1.0  T
   3    -11.8860583 -0.374018E-02  0.177E+00    1.83       1.0  T
   4    -11.8863003 -0.241979E-03  0.128E+00    2.17       1.0  T
   5    -11.8868039 -0.503614E-03  0.498E-01    1.90       1.0  T
   6    -11.8868823 -0.784051E-04  0.164E-01    1.82       1.0  T
   7    -11.8868925 -0.102032E-04  0.136E-01    1.84       1.0  T
   8    -11.8869033 -0.107746E-04  0.219E-02    1.87       1.9  T
   9    -11.8869034 -0.988797E-07  0.172E-02    1.88       2.4  T
  10    -11.8869035 -0.719643E-07  0.129E-02    1.87       3.2  T
  11    -11.8869037 -0.252772E-06  0.676E-04    1.88      60.4  T
  12    -11.8869037  0.293095E-09  0.788E-04    1.88      51.8  T
  13    -11.8869037 -0.145435E-08  0.422E-05    1.88     968.4  T
  14    -11.8869037 -0.220446E-11  0.804E-06    1.88    5076.3  T

   *** convergence criteria satisfied after 14 iterations ***

         #    Occupation            Energy/Eh            Energy/eV
      -------------------------------------------------------------
         1        2.0000           -0.6041019             -16.4384
       ...           ...                  ...                  ...
         5        2.0000           -0.3635569              -9.8929
         6        2.0000           -0.3430156              -9.3339
         7        2.0000           -0.2797340              -7.6119
         8        2.0000           -0.2797259              -7.6117
         9        2.0000           -0.1737641              -4.7284
        10        2.0000           -0.1679637              -4.5705
        11        2.0000           -0.1679635              -4.5705 (HOMO)
        12                         -0.0990229              -2.6945 (LUMO)
        13                          0.1643324               4.4717
        14                          0.1643719               4.4728
        15                          0.1898580               5.1663
        16                          0.1898746               5.1668
       ...                                ...                  ...
        25                          0.4642035              12.6316
      -------------------------------------------------------------
                  HL-Gap            0.0689406 Eh            1.8760 eV
             Fermi-level           -0.1334932 Eh           -3.6325 eV

 SCC (total)                   0 d,  0 h,  0 min,  0.016 sec
 SCC setup                      ...        0 min,  0.000 sec (  1.381%)
 Dispersion                     ...        0 min,  0.000 sec (  0.400%)
 classical contributions        ...        0 min,  0.000 sec (  0.234%)
 integral evaluation            ...        0 min,  0.013 sec ( 77.680%)
 iterations                     ...        0 min,  0.002 sec ( 13.823%)
 molecular gradient             ...        0 min,  0.001 sec (  5.350%)
 printout                       ...        0 min,  0.000 sec (  1.011%)

         :::::::::::::::::::::::::::::::::::::::::::::::::::::
         ::                     SUMMARY                     ::
         :::::::::::::::::::::::::::::::::::::::::::::::::::::
         :: total energy             -11.826742755035 Eh    ::
         :: gradient norm              0.001854273451 Eh/a0 ::
         :: HOMO-LUMO gap              1.875970120838 eV    ::
         ::.................................................::
         :: SCC energy               -11.886904707049 Eh    ::
         :: -> isotropic ES            0.152263677658 Eh    ::
         :: -> anisotropic ES         -0.005716119755 Eh    ::
         :: -> anisotropic XC         -0.001353896264 Eh    ::
         :: -> dispersion             -0.003295048769 Eh    ::
         :: repulsion energy           0.060161952014 Eh    ::
         :: add. restraining           0.000000000000 Eh    ::
         :: total charge              -1.000000000000 e     ::
         :::::::::::::::::::::::::::::::::::::::::::::::::::::


Property printout bound to 'properties.out'

           -------------------------------------------------
          | TOTAL ENERGY              -11.826742755035 Eh   |
          | GRADIENT NORM               0.001854273451 Eh/α |
          | HOMO-LUMO GAP               1.875970120838 eV   |
           -------------------------------------------------

------------------------------------------------------------------------
 * finished run on 2026/03/16 at 14:18:45.361     
------------------------------------------------------------------------
 total:
 * wall-time:     0 d,  0 h,  0 min,  0.045 sec
 *  cpu-time:     0 d,  0 h,  0 min,  0.215 sec
 * ratio c/w:     4.825 speedup
 SCF:
 * wall-time:     0 d,  0 h,  0 min,  0.016 sec
 *  cpu-time:     0 d,  0 h,  0 min,  0.120 sec
 * ratio c/w:     7.268 speedup


-------------------------   --------------------
FINAL SINGLE POINT ENERGY       -11.826742755030
-------------------------   --------------------


-------------
DIPOLE MOMENT
-------------
                                X             Y             Z
Total Dipole Moment    :      0.00000      -0.00000      -2.00900
                        -----------------------------------------
Magnitude (a.u.)       :      2.00900
Magnitude (Debye)      :      5.10647


------------------
CARTESIAN GRADIENT
------------------

   1   C   :    0.000061398   -0.000724536    0.000703834
   2   H   :   -0.000002200    0.000575808    0.000431058
   3   H   :   -0.000096601    0.000080907    0.000228167
   4   H   :    0.000038909    0.000050146    0.000247071
   5   Br  :   -0.000000267    0.000003107   -0.001288470
   6   I   :   -0.000001239    0.000014568   -0.000321660

Difference to translation invariance:
           :    0.0000000000    0.0000000000    0.0000000000

Difference to rotation invariance:
           :   -0.0000000002   -0.0000000317   -0.0000000117

Norm of the Cartesian gradient     ...    0.0018542735
RMS gradient                       ...    0.0004370564
MAX gradient                       ...    0.0012884699
------------------------------------------------------------------------------
                         ORCA GEOMETRY RELAXATION STEP
------------------------------------------------------------------------------

Reading the OPT-File                    .... done
Getting information on internals        .... done
Copying old internal coords+grads       .... done
Making the new internal coordinates     .... (2022 redundants) done
Validating the new internal coordinates .... (2022 redundants) done
Calculating the B-matrix                .... done
Calculating the G,G- and P matrices     .... done
Transforming gradient to internals      .... done
Projecting the internal gradient        .... done
Number of atoms                         ....   6
Number of internal coordinates          ....  17
Current Energy                          ....   -11.826742755 Eh
Current gradient norm                   ....     0.001854273 Eh/bohr
Maximum allowed component of the step   ....  0.300
Current trust radius                    ....  0.300
Evaluating the initial hessian          ....  (Almloef) done
Projecting the Hessian                  .... done
Forming the augmented Hessian           .... done
Diagonalizing the augmented Hessian     .... done
Last element of RFO vector              ....  0.997717960
Lowest eigenvalues of augmented Hessian:
 -0.000048304  0.010045884  0.045803242  0.045855942  0.106383189
Length of the computed step             ....  0.067673863
The final length of the internal step   ....  0.067673863
Converting the step to Cartesian space:
 Initial RMS(Int)=    0.0164133226
Transforming coordinates:
 Iter   0:  RMS(Cart)=    0.0076187265 RMS(Int)=    0.0164195692
done
Storing new coordinates                 .... done

                                .--------------------.
          ----------------------|Geometry convergence|-------------------------
          Item                value                   Tolerance       Converged
          ---------------------------------------------------------------------
          RMS gradient        0.0002523592            0.0001000000      NO
          MAX gradient        0.0007000335            0.0003000000      NO
          RMS step            0.0164133226            0.0020000000      NO
          MAX step            0.0360077345            0.0040000000      NO
          -------------------------------------------------------------------------
          ........................................................
          Max(Bonds)      0.0191      Max(Angles)    0.02
          Max(Dihed)        0.00      Max(Improp)    0.00
          ---------------------------------------------------------------------

The optimization has not yet converged - more geometry cycles are needed


    ---------------------------------------------------------------------------
                         Redundant Internal Coordinates
                            (Angstroem and degrees)

        Definition                    Value    dE/dq     Step     New-Value
    ----------------------------------------------------------------------------
     1. B(H   1,C   0)                1.0784  0.000700 -0.0010    1.0775   
     2. B(H   2,C   0)                1.0773 -0.000028  0.0000    1.0773   
     3. B(H   3,C   0)                1.0774  0.000040 -0.0001    1.0773   
     4. B(Br  4,H   3)                2.8257 -0.000307  0.0175    2.8431   
     5. B(Br  4,H   2)                2.8257 -0.000307  0.0175    2.8431   
     6. B(Br  4,H   1)                2.8257 -0.000304  0.0175    2.8432   
     7. B(Br  4,C   0)                2.9451 -0.000434  0.0191    2.9642   
     8. B(I   5,C   0)                2.2019  0.000322 -0.0016    2.2003   
     9. A(H   1,C   0,H   3)          111.85  0.000016   -0.01    111.84   
    10. A(H   2,C   0,H   3)          111.91  0.000070   -0.02    111.89   
    11. A(H   1,C   0,I   5)          106.93 -0.000079    0.02    106.95   
    12. A(H   2,C   0,I   5)          106.96 -0.000016    0.01    106.97   
    13. A(H   3,C   0,I   5)          106.96 -0.000022    0.01    106.97   
    14. A(H   1,C   0,Br  4)           73.05  0.000023   -0.01     73.04   
    15. A(H   2,C   0,Br  4)           73.05  0.000049   -0.01     73.04   
    16. A(H   3,C   0,Br  4)           73.05  0.000046   -0.01     73.04   
    17. A(H   1,C   0,H   2)          111.85  0.000020   -0.01    111.85   
    ----------------------------------------------------------------------------

Geometry step timings:
Preparation and reading OPT file:      0.000 s ( 2.761 %)
Internal coordinates            :      0.000 s ( 2.941 %)
B/P matrices and projection     :      0.000 s (11.405 %)
Hessian update/contruction      :      0.001 s (34.274 %)
Making the step                 :      0.000 s (10.504 %)
Converting the step to Cartesian:      0.000 s ( 3.361 %)
Storing new data                :      0.000 s ( 5.822 %)
Checking convergence            :      0.000 s ( 4.742 %)
Final printing                  :      0.000 s (23.770 %)
Total time                      :      0.002 s

Time for energy+gradient        :      0.057 s
Time for complete geometry iter :      0.060 s

         *************************************************************
         *                GEOMETRY OPTIMIZATION CYCLE   2            *
         *************************************************************
---------------------------------
CARTESIAN COORDINATES (ANGSTROEM)
---------------------------------
  C     0.000017   -0.000223   -0.320661
  H    -0.000015    1.030377   -0.006382
  H     0.892527   -0.515147   -0.006290
  H    -0.892525   -0.515129   -0.006299
  Br    0.000001   -0.000020    2.643508
  I    -0.000006    0.000058   -2.520979

----------------------------
CARTESIAN COORDINATES (A.U.)
----------------------------
  NO LB    ZA    FRAG    MASS        X           Y           Z
   0 C   6.0000    0    12.011    0.000033   -0.000421   -0.605961
   1 H   1.0000    0     1.008   -0.000028    1.947130   -0.012061
   2 H   1.0000    0     1.008    1.686631   -0.973487   -0.011886
   3 H   1.0000    0     1.008   -1.686627   -0.973452   -0.011903
   4 Br 35.0000    0    79.900    0.000003   -0.000038    4.995505
   5 I  53.0000    0   126.900   -0.000012    0.000110   -4.763961

      -----------------------------------------------------------      
     |                   =====================                   |     
     |                           x T B                           |     
     |                   =====================                   |     
     |                         S. Grimme                         |     
     |          Mulliken Center for Theoretical Chemistry        |     
     |                    University of Bonn                     |     
      -----------------------------------------------------------      

   * xtb version 6.7.1 (edcfbbe) compiled by 'albert@albert-system' on 2024-07-22

   xtb is free software: you can redistribute it and/or modify it under
   the terms of the GNU Lesser General Public License as published by
   the Free Software Foundation, either version 3 of the License, or
   (at your option) any later version.
   
   xtb is distributed in the hope that it will be useful,
   but WITHOUT ANY WARRANTY; without even the implied warranty of
   MERCHANTABILITY or FITNESS FOR A PARTICULAR PURPOSE.  See the
   GNU Lesser General Public License for more details.
   
   Cite this work as:
   * C. Bannwarth, E. Caldeweyher, S. Ehlert, A. Hansen, P. Pracht,
     J. Seibert, S. Spicher, S. Grimme, WIREs Comput. Mol. Sci., 2020, 11,
     e01493. DOI: 10.1002/wcms.1493
   
   for GFN2-xTB:
   * C. Bannwarth, S. Ehlert and S. Grimme., J. Chem. Theory Comput., 2019,
     15, 1652-1671. DOI: 10.1021/acs.jctc.8b01176
   for GFN1-xTB:
   * S. Grimme, C. Bannwarth, P. Shushkov, J. Chem. Theory Comput., 2017,
     13, 1989-2009. DOI: 10.1021/acs.jctc.7b00118
   for GFN0-xTB:
   * P. Pracht, E. Caldeweyher, S. Ehlert, S. Grimme, ChemRxiv, 2019, preprint.
     DOI: 10.26434/chemrxiv.8326202.v1
   for GFN-FF:
   * S. Spicher and S. Grimme, Angew. Chem. Int. Ed., 2020, 59, 15665-15673.
     DOI: 10.1002/anie.202004239
   
   for ALPB and GBSA implicit solvation:
   * S. Ehlert, M. Stahn, S. Spicher, S. Grimme, J. Chem. Theory Comput.,
     2021, 17, 4250-4261. DOI: 10.1021/acs.jctc.1c00471
   
   for ddCOSMO and CPCM-X implicit solvation:
   * M. Stahn, S. Ehlert, S. Grimme, J. Phys. Chem. A,
     2023, XX, XXXX-XXXX. DOI: 10.1021/acs.jpca.3c04382
   
   for DFT-D4:
   * E. Caldeweyher, C. Bannwarth and S. Grimme, J. Chem. Phys., 2017,
     147, 034112. DOI: 10.1063/1.4993215
   * E. Caldeweyher, S. Ehlert, A. Hansen, H. Neugebauer, S. Spicher,
     C. Bannwarth and S. Grimme, J. Chem. Phys., 2019, 150, 154122.
     DOI: 10.1063/1.5090222
   * E. Caldeweyher, J.-M. Mewes, S. Ehlert and S. Grimme, Phys. Chem. Chem. Phys.
     2020, 22, 8499-8512. DOI: 10.1039/D0CP00502A
   
   for sTDA-xTB:
   * S. Grimme and C. Bannwarth, J. Chem. Phys., 2016, 145, 054103.
     DOI: 10.1063/1.4959605
   
   in the mass-spec context:
   * V. Asgeirsson, C. Bauer and S. Grimme, Chem. Sci., 2017, 8, 4879.
     DOI: 10.1039/c7sc00601b
   * J. Koopman and S. Grimme, ACS Omega 2019, 4, 12, 15120-15133.
     DOI: 10.1021/acsomega.9b02011
   
   for metadynamics refer to:
   * S. Grimme, J. Chem. Theory Comput., 2019, 155, 2847-2862
     DOI: 10.1021/acs.jctc.9b00143
   
   for SPH calculations refer to:
   * S. Spicher and S. Grimme, J. Chem. Theory Comput., 2021, 17, 1701-1714
     DOI: 10.1021/acs.jctc.0c01306
   
   for ONIOM refer to:
   * C. Plett, A. Katbashev, S. Ehlert, S. Grimme, M. Bursch,
     Phys. Chem. Chem. Phys., 2023, 25, 17860-17868. DOI: 10.1039/D3CP02178E
   
   for DIPRO refer to:
   * J. Kohn, N. Gildemeister, S. Grimme, D. Fazzi, A. Hansen,
     J. Chem. Phys., 2023, just accepted.
   
   for PTB refer to:
   * S. Grimme, M. Mueller, A. Hansen, J. Chem. Phys., 2023, 158, 124111.
     DOI: 10.1063/5.0137838
   
   with help from (in alphabetical order)
   P. Atkinson, C. Bannwarth, F. Bohle, G. Brandenburg, E. Caldeweyher
   M. Checinski, S. Dohm, S. Ehlert, S. Ehrlich, I. Gerasimov, C. Hölzer
   A. Katbashev, J. Kohn, J. Koopman, C. Lavigne, S. Lehtola, F. März, M. Müller,
   F. Musil, H. Neugebauer, J. Pisarek, C. Plett, P. Pracht, F. Pultar,
   J. Seibert, P. Shushkov, S. Spicher, M. Stahn, M. Steiner, T. Strunk,
   J. Stückrath, T. Rose, and J. Unsleber
   
 * started run on 2026/03/16 at 14:18:45.375     
   ID    Z sym.   atoms
    1    6 C      1
    2    1 H      2-4
    3   35 Br     5
    4   53 I      6

           -------------------------------------------------
          |                Calculation Setup                |
           -------------------------------------------------

          program call               : /software/orca-6.1.0-el8-x86_64/bin/otool_xtb reactant_optfreq_XTB.xyz --grad -c -1 -u 0 -P 8 --namespace reactant_optfreq --input reactant_optfreq_XTB.input.tmp --acc 0.200000
          hostname                   : midway3-login4.rcc.local
          calculation namespace      : reactant_optfreq
          coordinate file            : reactant_optfreq_XTB.xyz
          omp threads                :                     8


molecular fragmentation (1/2 indicates fragments):
111121
# atoms in fragment 1/2:     5     1
 fragment masses (1/2) :      141.94       79.90
CMA distance (Bohr)    :   9.306
constraining FC (au)   :  0.0500

           -------------------------------------------------
          |                 G F N 2 - x T B                 |
           -------------------------------------------------

        Reference                      10.1021/acs.jctc.8b01176
      * Hamiltonian:
        H0-scaling (s, p, d)           1.850000    2.230000    2.230000
        zeta-weighting                 0.500000
      * Dispersion:
        s8                             2.700000
        a1                             0.520000
        a2                             5.000000
        s9                             5.000000
      * Repulsion:
        kExp                           1.500000    1.000000
        rExp                           1.000000
      * Coulomb:
        alpha                          2.000000
        third order                    shell-resolved
        anisotropic                    true
        a3                             3.000000
        a5                             4.000000
        cn-shift                       1.200000
        cn-exp                         4.000000
        max-rad                        5.000000

q/qsh data taken from xtbrestart
CAMM data taken from xtbrestart

          ...................................................
          :                      SETUP                      :
          :.................................................:
          :  # basis functions                  27          :
          :  # atomic orbitals                  25          :
          :  # shells                           11          :
          :  # electrons                        22          :
          :  max. iterations                   250          :
          :  Hamiltonian                  GFN2-xTB          :
          :  restarted?                       true          :
          :  GBSA solvation                  false          :
          :  PC potential                    false          :
          :  electronic temp.          300.0000000     K    :
          :  accuracy                    0.2000000          :
          :  -> integral cutoff          0.3198970E+02      :
          :  -> integral neglect         0.2000000E-08      :
          :  -> SCF convergence          0.2000000E-06 Eh   :
          :  -> wf. convergence          0.2000000E-04 e    :
          :  Broyden damping             0.4000000          :
          :  net charge                         -1          :
          :  unpaired electrons                  0          :
          ...................................................

 iter      E             dE          RMSdq      gap      omega  full diag
   1    -11.8871269 -0.118871E+02  0.112E-01    1.86       0.0  T
   2    -11.8871330 -0.615955E-05  0.458E-02    1.84       1.0  T
   3    -11.8871334 -0.331138E-06  0.218E-02    1.83       1.9  T
   4    -11.8871334 -0.684926E-07  0.138E-02    1.84       3.0  T
   5    -11.8871335 -0.841679E-07  0.727E-03    1.84       5.6  T
   6    -11.8871336 -0.342614E-07  0.160E-03    1.84      25.5  T
   7    -11.8871336 -0.916648E-09  0.446E-04    1.84      91.5  T
   8    -11.8871336 -0.307185E-10  0.354E-04    1.84     115.3  T
   9    -11.8871336 -0.437836E-10  0.678E-05    1.84     602.5  T
  10    -11.8871336 -0.959233E-12  0.563E-06    1.84    7249.6  T

   *** convergence criteria satisfied after 10 iterations ***

         #    Occupation            Energy/Eh            Energy/eV
      -------------------------------------------------------------
         1        2.0000           -0.6051608             -16.4673
       ...           ...                  ...                  ...
         5        2.0000           -0.3643382              -9.9141
         6        2.0000           -0.3439667              -9.3598
         7        2.0000           -0.2806108              -7.6358
         8        2.0000           -0.2806054              -7.6357
         9        2.0000           -0.1729789              -4.7070
        10        2.0000           -0.1673235              -4.5531
        11        2.0000           -0.1673233              -4.5531 (HOMO)
        12                         -0.0998533              -2.7171 (LUMO)
        13                          0.1631317               4.4390
        14                          0.1631469               4.4395
        15                          0.1888125               5.1379
        16                          0.1888202               5.1381
       ...                                ...                  ...
        25                          0.4642517              12.6329
      -------------------------------------------------------------
                  HL-Gap            0.0674699 Eh            1.8360 eV
             Fermi-level           -0.1335883 Eh           -3.6351 eV

 SCC (total)                   0 d,  0 h,  0 min,  0.024 sec
 SCC setup                      ...        0 min,  0.000 sec (  0.865%)
 Dispersion                     ...        0 min,  0.000 sec (  0.269%)
 classical contributions        ...        0 min,  0.000 sec (  0.154%)
 integral evaluation            ...        0 min,  0.021 sec ( 87.753%)
 iterations                     ...        0 min,  0.002 sec (  7.092%)
 molecular gradient             ...        0 min,  0.001 sec (  2.912%)
 printout                       ...        0 min,  0.000 sec (  0.844%)

         :::::::::::::::::::::::::::::::::::::::::::::::::::::
         ::                     SUMMARY                     ::
         :::::::::::::::::::::::::::::::::::::::::::::::::::::
         :: total energy             -11.826778665421 Eh    ::
         :: gradient norm              0.001311288737 Eh/a0 ::
         :: HOMO-LUMO gap              1.835950133773 eV    ::
         ::.................................................::
         :: SCC energy               -11.887134545046 Eh    ::
         :: -> isotropic ES            0.152812738083 Eh    ::
         :: -> anisotropic ES         -0.005691791871 Eh    ::
         :: -> anisotropic XC         -0.001380168484 Eh    ::
         :: -> dispersion             -0.003283734944 Eh    ::
         :: repulsion energy           0.060355879625 Eh    ::
         :: add. restraining           0.000000000000 Eh    ::
         :: total charge              -1.000000000000 e     ::
         :::::::::::::::::::::::::::::::::::::::::::::::::::::


Property printout bound to 'properties.out'

           -------------------------------------------------
          | TOTAL ENERGY              -11.826778665421 Eh   |
          | GRADIENT NORM               0.001311288737 Eh/α |
          | HOMO-LUMO GAP               1.835950133773 eV   |
           -------------------------------------------------

------------------------------------------------------------------------
 * finished run on 2026/03/16 at 14:18:45.446     
------------------------------------------------------------------------
 total:
 * wall-time:     0 d,  0 h,  0 min,  0.070 sec
 *  cpu-time:     0 d,  0 h,  0 min,  0.257 sec
 * ratio c/w:     3.655 speedup
 SCF:
 * wall-time:     0 d,  0 h,  0 min,  0.024 sec
 *  cpu-time:     0 d,  0 h,  0 min,  0.171 sec
 * ratio c/w:     7.039 speedup


-------------------------   --------------------
FINAL SINGLE POINT ENERGY       -11.826778665420
-------------------------   --------------------


-------------
DIPOLE MOMENT
-------------
                                X             Y             Z
Total Dipole Moment    :      0.00000      -0.00000      -2.05700
                        -----------------------------------------
Magnitude (a.u.)       :      2.05700
Magnitude (Debye)      :      5.22848


------------------
CARTESIAN GRADIENT
------------------

   1   C   :    0.000012395   -0.000146981    0.001020055
   2   H   :   -0.000003412   -0.000067123    0.000037576
   3   H   :   -0.000109389    0.000101928    0.000014856
   4   H   :    0.000101335    0.000101217    0.000016941
   5   Br  :   -0.000000054    0.000000667   -0.000629477
   6   I   :   -0.000000875    0.000010293   -0.000459951

Difference to translation invariance:
           :    0.0000000000    0.0000000000    0.0000000000

Difference to rotation invariance:
           :    0.0000000005    0.0000000025    0.0000000000

Norm of the Cartesian gradient     ...    0.0013112887
RMS gradient                       ...    0.0003090737
MAX gradient                       ...    0.0010200552
------------------------------------------------------------------------------
                         ORCA GEOMETRY RELAXATION STEP
------------------------------------------------------------------------------

Reading the OPT-File                    .... done
Getting information on internals        .... done
Copying old internal coords+grads       .... done
Making the new internal coordinates     .... (2022 redundants) done
Validating the new internal coordinates .... (2022 redundants) done
Calculating the B-matrix                .... done
Calculating the G,G- and P matrices     .... done
Transforming gradient to internals      .... done
Projecting the internal gradient        .... done
Number of atoms                         ....   6
Number of internal coordinates          ....  17
Current Energy                          ....   -11.826778665 Eh
Current gradient norm                   ....     0.001311289 Eh/bohr
Maximum allowed component of the step   ....  0.300
Current trust radius                    ....  0.300
Updating the Hessian (BFGS)             .... done
Forming the augmented Hessian           .... done
Diagonalizing the augmented Hessian     .... done
Last element of RFO vector              ....  0.997335843
Lowest eigenvalues of augmented Hessian:
 -0.000028718  0.004992952  0.045803211  0.045855942  0.105143056
Length of the computed step             ....  0.073141527
The final length of the internal step   ....  0.073141527
Converting the step to Cartesian space:
 Initial RMS(Int)=    0.0177394260
Transforming coordinates:
 Iter   0:  RMS(Cart)=    0.0080522389 RMS(Int)=    0.0177455076
done
Storing new coordinates                 .... done
The predicted energy change is          ....    -0.000014436
Previously predicted energy change      ....    -0.000024263
Actually observed energy change         ....    -0.000035910
Ratio of predicted to observed change   ....     1.480058396
New trust radius                        ....     0.300000000

                                .--------------------.
          ----------------------|Geometry convergence|-------------------------
          Item                value                   Tolerance       Converged
          ---------------------------------------------------------------------
          Energy change      -0.0000359104            0.0000050000      NO
          RMS gradient        0.0001521680            0.0001000000      NO
          MAX gradient        0.0004599518            0.0003000000      NO
          RMS step            0.0177394260            0.0020000000      NO
          MAX step            0.0391667674            0.0040000000      NO
          -------------------------------------------------------------------------
          ........................................................
          Max(Bonds)      0.0207      Max(Angles)    0.05
          Max(Dihed)        0.00      Max(Improp)    0.00
          ---------------------------------------------------------------------

The optimization has not yet converged - more geometry cycles are needed


    ---------------------------------------------------------------------------
                         Redundant Internal Coordinates
                            (Angstroem and degrees)

        Definition                    Value    dE/dq     Step     New-Value
    ----------------------------------------------------------------------------
     1. B(H   1,C   0)                1.0775 -0.000043  0.0000    1.0775   
     2. B(H   2,C   0)                1.0773 -0.000125  0.0003    1.0776   
     3. B(H   3,C   0)                1.0773 -0.000117  0.0003    1.0776   
     4. B(Br  4,H   3)                2.8431 -0.000133  0.0187    2.8618   
     5. B(Br  4,H   2)                2.8431 -0.000133  0.0187    2.8618   
     6. B(Br  4,H   1)                2.8432 -0.000134  0.0187    2.8619   
     7. B(Br  4,C   0)                2.9642 -0.000256  0.0207    2.9849   
     8. B(I   5,C   0)                2.2003  0.000460 -0.0047    2.1956   
     9. A(H   1,C   0,H   3)          111.84  0.000019   -0.02    111.82   
    10. A(H   2,C   0,H   3)          111.89  0.000104   -0.05    111.83   
    11. A(H   1,C   0,I   5)          106.95 -0.000084    0.05    107.00   
    12. A(H   2,C   0,I   5)          106.97 -0.000039    0.03    107.00   
    13. A(H   3,C   0,I   5)          106.97 -0.000043    0.03    107.00   
    14. A(H   1,C   0,Br  4)           73.04  0.000053   -0.03     73.00   
    15. A(H   2,C   0,Br  4)           73.04  0.000057   -0.04     73.00   
    16. A(H   3,C   0,Br  4)           73.04  0.000056   -0.04     73.00   
    17. A(H   1,C   0,H   2)          111.85  0.000027   -0.02    111.82   
    ----------------------------------------------------------------------------

Geometry step timings:
Preparation and reading OPT file:      0.000 s ( 2.358 %)
Internal coordinates            :      0.000 s ( 3.314 %)
B/P matrices and projection     :      0.000 s (10.962 %)
Hessian update/contruction      :      0.001 s (33.779 %)
Making the step                 :      0.000 s ( 9.943 %)
Converting the step to Cartesian:      0.000 s ( 3.059 %)
Storing new data                :      0.000 s ( 8.031 %)
Checking convergence            :      0.000 s ( 7.712 %)
Final printing                  :      0.000 s (20.841 %)
Total time                      :      0.002 s

Time for energy+gradient        :      0.081 s
Time for complete geometry iter :      0.085 s

         *************************************************************
         *                GEOMETRY OPTIMIZATION CYCLE   3            *
         *************************************************************
---------------------------------
CARTESIAN COORDINATES (ANGSTROEM)
---------------------------------
  C    -0.000002    0.000006   -0.325245
  H    -0.000010    1.030390   -0.010260
  H     0.892519   -0.515193   -0.010178
  H    -0.892514   -0.515178   -0.010186
  Br    0.000006   -0.000076    2.659639
  I     0.000001   -0.000033   -2.520872

----------------------------
CARTESIAN COORDINATES (A.U.)
----------------------------
  NO LB    ZA    FRAG    MASS        X           Y           Z
   0 C   6.0000    0    12.011   -0.000003    0.000011   -0.614625
   1 H   1.0000    0     1.008   -0.000020    1.947154   -0.019388
   2 H   1.0000    0     1.008    1.686617   -0.973573   -0.019235
   3 H   1.0000    0     1.008   -1.686607   -0.973545   -0.019249
   4 Br 35.0000    0    79.900    0.000012   -0.000143    5.025990
   5 I  53.0000    0   126.900    0.000003   -0.000063   -4.763759

      -----------------------------------------------------------      
     |                   =====================                   |     
     |                           x T B                           |     
     |                   =====================                   |     
     |                         S. Grimme                         |     
     |          Mulliken Center for Theoretical Chemistry        |     
     |                    University of Bonn                     |     
      -----------------------------------------------------------      

   * xtb version 6.7.1 (edcfbbe) compiled by 'albert@albert-system' on 2024-07-22

   xtb is free software: you can redistribute it and/or modify it under
   the terms of the GNU Lesser General Public License as published by
   the Free Software Foundation, either version 3 of the License, or
   (at your option) any later version.
   
   xtb is distributed in the hope that it will be useful,
   but WITHOUT ANY WARRANTY; without even the implied warranty of
   MERCHANTABILITY or FITNESS FOR A PARTICULAR PURPOSE.  See the
   GNU Lesser General Public License for more details.
   
   Cite this work as:
   * C. Bannwarth, E. Caldeweyher, S. Ehlert, A. Hansen, P. Pracht,
     J. Seibert, S. Spicher, S. Grimme, WIREs Comput. Mol. Sci., 2020, 11,
     e01493. DOI: 10.1002/wcms.1493
   
   for GFN2-xTB:
   * C. Bannwarth, S. Ehlert and S. Grimme., J. Chem. Theory Comput., 2019,
     15, 1652-1671. DOI: 10.1021/acs.jctc.8b01176
   for GFN1-xTB:
   * S. Grimme, C. Bannwarth, P. Shushkov, J. Chem. Theory Comput., 2017,
     13, 1989-2009. DOI: 10.1021/acs.jctc.7b00118
   for GFN0-xTB:
   * P. Pracht, E. Caldeweyher, S. Ehlert, S. Grimme, ChemRxiv, 2019, preprint.
     DOI: 10.26434/chemrxiv.8326202.v1
   for GFN-FF:
   * S. Spicher and S. Grimme, Angew. Chem. Int. Ed., 2020, 59, 15665-15673.
     DOI: 10.1002/anie.202004239
   
   for ALPB and GBSA implicit solvation:
   * S. Ehlert, M. Stahn, S. Spicher, S. Grimme, J. Chem. Theory Comput.,
     2021, 17, 4250-4261. DOI: 10.1021/acs.jctc.1c00471
   
   for ddCOSMO and CPCM-X implicit solvation:
   * M. Stahn, S. Ehlert, S. Grimme, J. Phys. Chem. A,
     2023, XX, XXXX-XXXX. DOI: 10.1021/acs.jpca.3c04382
   
   for DFT-D4:
   * E. Caldeweyher, C. Bannwarth and S. Grimme, J. Chem. Phys., 2017,
     147, 034112. DOI: 10.1063/1.4993215
   * E. Caldeweyher, S. Ehlert, A. Hansen, H. Neugebauer, S. Spicher,
     C. Bannwarth and S. Grimme, J. Chem. Phys., 2019, 150, 154122.
     DOI: 10.1063/1.5090222
   * E. Caldeweyher, J.-M. Mewes, S. Ehlert and S. Grimme, Phys. Chem. Chem. Phys.
     2020, 22, 8499-8512. DOI: 10.1039/D0CP00502A
   
   for sTDA-xTB:
   * S. Grimme and C. Bannwarth, J. Chem. Phys., 2016, 145, 054103.
     DOI: 10.1063/1.4959605
   
   in the mass-spec context:
   * V. Asgeirsson, C. Bauer and S. Grimme, Chem. Sci., 2017, 8, 4879.
     DOI: 10.1039/c7sc00601b
   * J. Koopman and S. Grimme, ACS Omega 2019, 4, 12, 15120-15133.
     DOI: 10.1021/acsomega.9b02011
   
   for metadynamics refer to:
   * S. Grimme, J. Chem. Theory Comput., 2019, 155, 2847-2862
     DOI: 10.1021/acs.jctc.9b00143
   
   for SPH calculations refer to:
   * S. Spicher and S. Grimme, J. Chem. Theory Comput., 2021, 17, 1701-1714
     DOI: 10.1021/acs.jctc.0c01306
   
   for ONIOM refer to:
   * C. Plett, A. Katbashev, S. Ehlert, S. Grimme, M. Bursch,
     Phys. Chem. Chem. Phys., 2023, 25, 17860-17868. DOI: 10.1039/D3CP02178E
   
   for DIPRO refer to:
   * J. Kohn, N. Gildemeister, S. Grimme, D. Fazzi, A. Hansen,
     J. Chem. Phys., 2023, just accepted.
   
   for PTB refer to:
   * S. Grimme, M. Mueller, A. Hansen, J. Chem. Phys., 2023, 158, 124111.
     DOI: 10.1063/5.0137838
   
   with help from (in alphabetical order)
   P. Atkinson, C. Bannwarth, F. Bohle, G. Brandenburg, E. Caldeweyher
   M. Checinski, S. Dohm, S. Ehlert, S. Ehrlich, I. Gerasimov, C. Hölzer
   A. Katbashev, J. Kohn, J. Koopman, C. Lavigne, S. Lehtola, F. März, M. Müller,
   F. Musil, H. Neugebauer, J. Pisarek, C. Plett, P. Pracht, F. Pultar,
   J. Seibert, P. Shushkov, S. Spicher, M. Stahn, M. Steiner, T. Strunk,
   J. Stückrath, T. Rose, and J. Unsleber
   
 * started run on 2026/03/16 at 14:18:45.460     
   ID    Z sym.   atoms
    1    6 C      1
    2    1 H      2-4
    3   35 Br     5
    4   53 I      6

           -------------------------------------------------
          |                Calculation Setup                |
           -------------------------------------------------

          program call               : /software/orca-6.1.0-el8-x86_64/bin/otool_xtb reactant_optfreq_XTB.xyz --grad -c -1 -u 0 -P 8 --namespace reactant_optfreq --input reactant_optfreq_XTB.input.tmp --acc 0.200000
          hostname                   : midway3-login4.rcc.local
          calculation namespace      : reactant_optfreq
          coordinate file            : reactant_optfreq_XTB.xyz
          omp threads                :                     8


molecular fragmentation (1/2 indicates fragments):
111121
# atoms in fragment 1/2:     5     1
 fragment masses (1/2) :      141.94       79.90
CMA distance (Bohr)    :   9.338
constraining FC (au)   :  0.0500

           -------------------------------------------------
          |                 G F N 2 - x T B                 |
           -------------------------------------------------

        Reference                      10.1021/acs.jctc.8b01176
      * Hamiltonian:
        H0-scaling (s, p, d)           1.850000    2.230000    2.230000
        zeta-weighting                 0.500000
      * Dispersion:
        s8                             2.700000
        a1                             0.520000
        a2                             5.000000
        s9                             5.000000
      * Repulsion:
        kExp                           1.500000    1.000000
        rExp                           1.000000
      * Coulomb:
        alpha                          2.000000
        third order                    shell-resolved
        anisotropic                    true
        a3                             3.000000
        a5                             4.000000
        cn-shift                       1.200000
        cn-exp                         4.000000
        max-rad                        5.000000

q/qsh data taken from xtbrestart
CAMM data taken from xtbrestart

          ...................................................
          :                      SETUP                      :
          :.................................................:
          :  # basis functions                  27          :
          :  # atomic orbitals                  25          :
          :  # shells                           11          :
          :  # electrons                        22          :
          :  max. iterations                   250          :
          :  Hamiltonian                  GFN2-xTB          :
          :  restarted?                       true          :
          :  GBSA solvation                  false          :
          :  PC potential                    false          :
          :  electronic temp.          300.0000000     K    :
          :  accuracy                    0.2000000          :
          :  -> integral cutoff          0.3198970E+02      :
          :  -> integral neglect         0.2000000E-08      :
          :  -> SCF convergence          0.2000000E-06 Eh   :
          :  -> wf. convergence          0.2000000E-04 e    :
          :  Broyden damping             0.4000000          :
          :  net charge                         -1          :
          :  unpaired electrons                  0          :
          ...................................................

 iter      E             dE          RMSdq      gap      omega  full diag
   1    -11.8871973 -0.118872E+02  0.141E-01    1.84       0.0  T
   2    -11.8872079 -0.105692E-04  0.475E-02    1.81       1.0  T
   3    -11.8872083 -0.458989E-06  0.235E-02    1.80       1.7  T
   4    -11.8872084 -0.780975E-07  0.154E-02    1.80       2.6  T
   5    -11.8872085 -0.102420E-06  0.877E-03    1.80       4.7  T
   6    -11.8872086 -0.470235E-07  0.177E-03    1.80      23.0  T
   7    -11.8872086 -0.104406E-08  0.362E-04    1.80     112.8  T
   8    -11.8872086 -0.458318E-10  0.218E-04    1.80     187.2  T
   9    -11.8872086 -0.138503E-10  0.522E-05    1.80     781.6  T
  10    -11.8872086 -0.905942E-12  0.947E-06    1.80    4312.4  T

   *** convergence criteria satisfied after 10 iterations ***

         #    Occupation            Energy/Eh            Energy/eV
      -------------------------------------------------------------
         1        2.0000           -0.6065836             -16.5060
       ...           ...                  ...                  ...
         5        2.0000           -0.3652405              -9.9387
         6        2.0000           -0.3452761              -9.3954
         7        2.0000           -0.2817038              -7.6656
         8        2.0000           -0.2817029              -7.6655
         9        2.0000           -0.1719510              -4.6790
        10        2.0000           -0.1664854              -4.5303
        11        2.0000           -0.1664853              -4.5303 (HOMO)
        12                         -0.1002321              -2.7275 (LUMO)
        13                          0.1614552               4.3934
        14                          0.1614560               4.3934
        15                          0.1875804               5.1043
        16                          0.1875815               5.1044
       ...                                ...                  ...
        25                          0.4664112              12.6917
      -------------------------------------------------------------
                  HL-Gap            0.0662532 Eh            1.8028 eV
             Fermi-level           -0.1333587 Eh           -3.6289 eV

 SCC (total)                   0 d,  0 h,  0 min,  0.076 sec
 SCC setup                      ...        0 min,  0.000 sec (  0.332%)
 Dispersion                     ...        0 min,  0.000 sec (  0.075%)
 classical contributions        ...        0 min,  0.000 sec (  0.042%)
 integral evaluation            ...        0 min,  0.073 sec ( 96.162%)
 iterations                     ...        0 min,  0.002 sec (  2.323%)
 molecular gradient             ...        0 min,  0.001 sec (  0.841%)
 printout                       ...        0 min,  0.000 sec (  0.195%)

         :::::::::::::::::::::::::::::::::::::::::::::::::::::
         ::                     SUMMARY                     ::
         :::::::::::::::::::::::::::::::::::::::::::::::::::::
         :: total energy             -11.826794536333 Eh    ::
         :: gradient norm              0.000876721875 Eh/a0 ::
         :: HOMO-LUMO gap              1.802841642326 eV    ::
         ::.................................................::
         :: SCC energy               -11.887209567655 Eh    ::
         :: -> isotropic ES            0.153555894128 Eh    ::
         :: -> anisotropic ES         -0.005707418525 Eh    ::
         :: -> anisotropic XC         -0.001476110590 Eh    ::
         :: -> dispersion             -0.003273103695 Eh    ::
         :: repulsion energy           0.060415031323 Eh    ::
         :: add. restraining           0.000000000000 Eh    ::
         :: total charge              -1.000000000000 e     ::
         :::::::::::::::::::::::::::::::::::::::::::::::::::::


Property printout bound to 'properties.out'

           -------------------------------------------------
          | TOTAL ENERGY              -11.826794536333 Eh   |
          | GRADIENT NORM               0.000876721875 Eh/α |
          | HOMO-LUMO GAP               1.802841642326 eV   |
           -------------------------------------------------

------------------------------------------------------------------------
 * finished run on 2026/03/16 at 14:18:45.555     
------------------------------------------------------------------------
 total:
 * wall-time:     0 d,  0 h,  0 min,  0.095 sec
 *  cpu-time:     0 d,  0 h,  0 min,  0.372 sec
 * ratio c/w:     3.922 speedup
 SCF:
 * wall-time:     0 d,  0 h,  0 min,  0.076 sec
 *  cpu-time:     0 d,  0 h,  0 min,  0.293 sec
 * ratio c/w:     3.860 speedup


-------------------------   --------------------
FINAL SINGLE POINT ENERGY       -11.826794536330
-------------------------   --------------------


-------------
DIPOLE MOMENT
-------------
                                X             Y             Z
Total Dipole Moment    :     -0.00000       0.00000      -2.11400
                        -----------------------------------------
Magnitude (a.u.)       :      2.11400
Magnitude (Debye)      :      5.37336


------------------
CARTESIAN GRADIENT
------------------

   1   C   :   -0.000007228    0.000085753    0.000763886
   2   H   :   -0.000001385   -0.000091255   -0.000252852
   3   H   :    0.000028001   -0.000000451   -0.000222602
   4   H   :   -0.000019401    0.000006113   -0.000225421
   5   Br  :    0.000000053   -0.000000599   -0.000062321
   6   I   :   -0.000000039    0.000000439   -0.000000690

Difference to translation invariance:
           :   -0.0000000000   -0.0000000000   -0.0000000000

Difference to rotation invariance:
           :   -0.0000000009    0.0000000020    0.0000000000

Norm of the Cartesian gradient     ...    0.0008767219
RMS gradient                       ...    0.0002066453
MAX gradient                       ...    0.0007638863
------------------------------------------------------------------------------
                         ORCA GEOMETRY RELAXATION STEP
------------------------------------------------------------------------------

Reading the OPT-File                    .... done
Getting information on internals        .... done
Copying old internal coords+grads       .... done
Making the new internal coordinates     .... (2022 redundants) done
Validating the new internal coordinates .... (2022 redundants) done
Calculating the B-matrix                .... done
Calculating the G,G- and P matrices     .... done
Transforming gradient to internals      .... done
Projecting the internal gradient        .... done
Number of atoms                         ....   6
Number of internal coordinates          ....  17
Current Energy                          ....   -11.826794536 Eh
Current gradient norm                   ....     0.000876722 Eh/bohr
Maximum allowed component of the step   ....  0.300
Current trust radius                    ....  0.300
Updating the Hessian (BFGS)             .... done
Forming the augmented Hessian           .... done
Diagonalizing the augmented Hessian     .... done
Last element of RFO vector              ....  0.999924074
Lowest eigenvalues of augmented Hessian:
 -0.000001639  0.004358938  0.045803275  0.045855943  0.105483395
Length of the computed step             ....  0.012323494
The final length of the internal step   ....  0.012323494
Converting the step to Cartesian space:
 Initial RMS(Int)=    0.0029888863
Transforming coordinates:
 Iter   0:  RMS(Cart)=    0.0014187401 RMS(Int)=    0.0029890753
done
Storing new coordinates                 .... done
The predicted energy change is          ....    -0.000000820
Previously predicted energy change      ....    -0.000014436
Actually observed energy change         ....    -0.000015871
Ratio of predicted to observed change   ....     1.099419751
New trust radius                        ....     0.450000000

                                .--------------------.
          ----------------------|Geometry convergence|-------------------------
          Item                value                   Tolerance       Converged
          ---------------------------------------------------------------------
          Energy change      -0.0000158709            0.0000050000      NO
          RMS gradient        0.0001102742            0.0001000000      NO
          MAX gradient        0.0002034813            0.0003000000      YES
          RMS step            0.0029888863            0.0020000000      NO
          MAX step            0.0075495932            0.0040000000      NO
          -------------------------------------------------------------------------
          ........................................................
          Max(Bonds)      0.0040      Max(Angles)    0.05
          Max(Dihed)        0.00      Max(Improp)    0.00
          ---------------------------------------------------------------------

The optimization has not yet converged - more geometry cycles are needed


    ---------------------------------------------------------------------------
                         Redundant Internal Coordinates
                            (Angstroem and degrees)

        Definition                    Value    dE/dq     Step     New-Value
    ----------------------------------------------------------------------------
     1. B(H   1,C   0)                1.0775 -0.000165  0.0002    1.0777   
     2. B(H   2,C   0)                1.0776 -0.000045  0.0001    1.0777   
     3. B(H   3,C   0)                1.0776 -0.000056  0.0001    1.0777   
     4. B(Br  4,H   3)                2.8618  0.000051  0.0029    2.8647   
     5. B(Br  4,H   2)                2.8618  0.000051  0.0029    2.8647   
     6. B(Br  4,H   1)                2.8619  0.000050  0.0029    2.8647   
     7. B(Br  4,C   0)                2.9849 -0.000203  0.0040    2.9889   
     8. B(I   5,C   0)                2.1956  0.000001 -0.0005    2.1951   
     9. A(H   1,C   0,H   3)          111.82  0.000097   -0.04    111.78   
    10. A(H   2,C   0,H   3)          111.83  0.000131   -0.05    111.79   
    11. A(H   1,C   0,I   5)          107.00 -0.000123    0.05    107.05   
    12. A(H   2,C   0,I   5)          107.00 -0.000121    0.05    107.04   
    13. A(H   3,C   0,I   5)          107.00 -0.000121    0.05    107.04   
    14. A(H   1,C   0,Br  4)           73.00  0.000124   -0.05     72.96   
    15. A(H   2,C   0,Br  4)           73.00  0.000120   -0.05     72.95   
    16. A(H   3,C   0,Br  4)           73.00  0.000120   -0.05     72.95   
    17. A(H   1,C   0,H   2)          111.82  0.000100   -0.04    111.78   
    ----------------------------------------------------------------------------

Geometry step timings:
Preparation and reading OPT file:      0.000 s ( 3.053 %)
Internal coordinates            :      0.000 s ( 4.656 %)
B/P matrices and projection     :      0.000 s (11.985 %)
Hessian update/contruction      :      0.000 s (27.328 %)
Making the step                 :      0.000 s ( 7.710 %)
Converting the step to Cartesian:      0.000 s ( 3.435 %)
Storing new data                :      0.000 s ( 7.405 %)
Checking convergence            :      0.000 s (10.534 %)
Final printing                  :      0.000 s (23.893 %)
Total time                      :      0.001 s

Time for energy+gradient        :      0.104 s
Time for complete geometry iter :      0.107 s

         *************************************************************
         *                GEOMETRY OPTIMIZATION CYCLE   4            *
         *************************************************************
---------------------------------
CARTESIAN COORDINATES (ANGSTROEM)
---------------------------------
  C    -0.000003    0.000015   -0.326428
  H    -0.000004    1.030365   -0.010531
  H     0.892344   -0.515167   -0.010510
  H    -0.892347   -0.515164   -0.010512
  Br    0.000006   -0.000076    2.662451
  I     0.000003   -0.000058   -2.521574

----------------------------
CARTESIAN COORDINATES (A.U.)
----------------------------
  NO LB    ZA    FRAG    MASS        X           Y           Z
   0 C   6.0000    0    12.011   -0.000005    0.000029   -0.616859
[...]
        25                          0.4676701              12.7260
      -------------------------------------------------------------
                  HL-Gap            0.0658856 Eh            1.7928 eV
             Fermi-level           -0.1332486 Eh           -3.6259 eV

 SCC (total)                   0 d,  0 h,  0 min,  0.023 sec
 SCC setup                      ...        0 min,  0.000 sec (  0.876%)
 Dispersion                     ...        0 min,  0.000 sec (  0.215%)
 classical contributions        ...        0 min,  0.000 sec (  0.129%)
 integral evaluation            ...        0 min,  0.021 sec ( 91.386%)
 iterations                     ...        0 min,  0.001 sec (  3.886%)
 molecular gradient             ...        0 min,  0.001 sec (  2.730%)
 printout                       ...        0 min,  0.000 sec (  0.701%)

         :::::::::::::::::::::::::::::::::::::::::::::::::::::
         ::                     SUMMARY                     ::
         :::::::::::::::::::::::::::::::::::::::::::::::::::::
         :: total energy             -11.826797067971 Eh    ::
         :: gradient norm              0.000078637418 Eh/a0 ::
         :: HOMO-LUMO gap              1.792838116043 eV    ::
         ::.................................................::
         :: SCC energy               -11.887149146951 Eh    ::
         :: -> isotropic ES            0.153817046422 Eh    ::
         :: -> anisotropic ES         -0.005723193993 Eh    ::
         :: -> anisotropic XC         -0.001497934631 Eh    ::
         :: -> dispersion             -0.003270086766 Eh    ::
         :: repulsion energy           0.060352078980 Eh    ::
         :: add. restraining           0.000000000000 Eh    ::
         :: total charge              -1.000000000000 e     ::
         :::::::::::::::::::::::::::::::::::::::::::::::::::::

           ------------------------------------------------- 
          |                Numerical Hessian                |
           ------------------------------------------------- 
step length          :   0.00500
SCC accuracy         :   0.30000
Hessian scale factor :   1.00000
frozen atoms in %    :   0.00000    0
RMS gradient         :   0.00008
estimated CPU  time      0.00 min
estimated wall time      0.00 min

writing file <hessian>.

 projected vibrational frequencies (cm⁻¹)
eigval :       -0.00     0.00     0.00     0.00     0.00     0.00
eigval :       89.81   103.38   103.42   426.03   914.88   914.96
eigval :     1250.97  1432.89  1432.96  3097.29  3124.46  3124.71

Property printout bound to 'properties.out'
Molecule has the following symmetry elements: (C3) 3*(sigma) 
It seems to be the C3v point group

           -------------------------------------------------
          | TOTAL ENERGY              -11.826797067971 Eh   |
          | TOTAL ENTHALPY            -11.783909408714 Eh   |
          | TOTAL FREE ENERGY         -11.821183263125 Eh   |
          | GRADIENT NORM               0.000078638799 Eh/α |
          | HOMO-LUMO GAP               1.792838221599 eV   |
           -------------------------------------------------

------------------------------------------------------------------------
 * finished run on 2026/03/16 at 14:18:45.857     
------------------------------------------------------------------------
 total:
 * wall-time:     0 d,  0 h,  0 min,  0.092 sec
 *  cpu-time:     0 d,  0 h,  0 min,  0.361 sec
 * ratio c/w:     3.910 speedup
 SCF:
 * wall-time:     0 d,  0 h,  0 min,  0.023 sec
 *  cpu-time:     0 d,  0 h,  0 min,  0.168 sec
 * ratio c/w:     7.155 speedup
 analytical hessian:
 * wall-time:     0 d,  0 h,  0 min,  0.056 sec
 *  cpu-time:     0 d,  0 h,  0 min,  0.121 sec
 * ratio c/w:     2.169 speedup


-------------------------   --------------------
FINAL SINGLE POINT ENERGY       -11.826797067970
-------------------------   --------------------


-------------
DIPOLE MOMENT
-------------
                                X             Y             Z
Total Dipole Moment    :     -0.00000       0.00000      -2.13500
                        -----------------------------------------
Magnitude (a.u.)       :      2.13500
Magnitude (Debye)      :      5.42674


-----------------------
VIBRATIONAL FREQUENCIES
-----------------------

Scaling factor for frequencies =  1.000000000  (already applied!)

     0:       0.00 cm**-1
     1:       0.00 cm**-1
     2:       0.00 cm**-1
     3:       0.00 cm**-1
     4:       0.00 cm**-1
     5:       0.00 cm**-1
     6:      89.81 cm**-1
     7:     103.38 cm**-1
     8:     103.42 cm**-1
     9:     426.02 cm**-1
    10:     914.85 cm**-1
    11:     914.93 cm**-1
    12:    1250.94 cm**-1
    13:    1432.85 cm**-1
    14:    1432.92 cm**-1
    15:    3097.20 cm**-1
    16:    3124.37 cm**-1
    17:    3124.62 cm**-1


------------
NORMAL MODES
------------

These modes are the Cartesian displacements weighted by the diagonal matrix
M(i,i)=1/sqrt(m[i]) where m[i] is the mass of the displaced atom
Thus, these vectors are normalized but *not* orthogonal

                  0          1          2          3          4          5    
      0       0.000000   0.000000   0.000000   0.000000   0.000000   0.000000
      1       0.000000   0.000000   0.000000   0.000000   0.000000   0.000000
      2       0.000000   0.000000   0.000000   0.000000   0.000000   0.000000
      3       0.000000   0.000000   0.000000   0.000000   0.000000   0.000000
      4       0.000000   0.000000   0.000000   0.000000   0.000000   0.000000
      5       0.000000   0.000000   0.000000   0.000000   0.000000   0.000000
      6       0.000000   0.000000   0.000000   0.000000   0.000000   0.000000
      7       0.000000   0.000000   0.000000   0.000000   0.000000   0.000000
      8       0.000000   0.000000   0.000000   0.000000   0.000000   0.000000
      9       0.000000   0.000000   0.000000   0.000000   0.000000   0.000000
     10       0.000000   0.000000   0.000000   0.000000   0.000000   0.000000
     11       0.000000   0.000000   0.000000   0.000000   0.000000   0.000000
     12       0.000000   0.000000   0.000000   0.000000   0.000000   0.000000
     13       0.000000   0.000000   0.000000   0.000000   0.000000   0.000000
     14       0.000000   0.000000   0.000000   0.000000   0.000000   0.000000
     15       0.000000   0.000000   0.000000   0.000000   0.000000   0.000000
     16       0.000000   0.000000   0.000000   0.000000   0.000000   0.000000
     17       0.000000   0.000000   0.000000   0.000000   0.000000   0.000000
                  6          7          8          9         10         11    
      0       0.000019   0.437079   0.012657  -0.000000  -0.096757  -0.004209
      1       0.000999  -0.012657   0.437092  -0.000016   0.004210  -0.096759
      2       0.394310   0.000000  -0.000067  -0.671848   0.000001  -0.000004
      3       0.000022   0.497827   0.014412  -0.000002   0.244418   0.010634
      4       0.018440  -0.014494   0.500539  -0.057326  -0.006562   0.150851
      5       0.307752   0.005703  -0.197037  -0.421623   0.033020  -0.759256
      6       0.015010   0.499912   0.013331  -0.049655   0.172498   0.048140
      7      -0.007495  -0.015564   0.498499   0.028667   0.030881   0.222879
      8       0.308410  -0.173500   0.093531  -0.421530  -0.674165   0.351146
      9      -0.014966   0.499846   0.015623   0.049652   0.176026  -0.032975
     10      -0.007495  -0.013308   0.498559   0.028667  -0.050119   0.219356
     11       0.308428   0.167790   0.103409  -0.421540   0.641109   0.408361
     12      -0.000002  -0.037683  -0.001091   0.000000  -0.000325  -0.000014
     13      -0.000085   0.001091  -0.037684   0.000001   0.000014  -0.000326
     14      -0.651835  -0.000001   0.000094  -0.001969   0.000000  -0.000000
     15      -0.000001  -0.029539  -0.000855   0.000000   0.004653   0.000202
     16      -0.000069   0.000855  -0.029539   0.000001  -0.000202   0.004652
     17       0.365749   0.000001  -0.000052   0.074876   0.000000  -0.000001
                 12         13         14         15         16         17    
      0      -0.000001   0.000220   0.074081  -0.000059  -0.004402  -0.092755
      1       0.000008  -0.074068   0.000220   0.000663  -0.092755   0.004402
      2      -0.087666  -0.000004  -0.000000   0.035497   0.000275  -0.000037
      3       0.000004  -0.002237  -0.750399  -0.000028  -0.001908  -0.040354
      4      -0.168296  -0.119845   0.000363  -0.563221   0.771906  -0.036242
      5       0.550060   0.292537  -0.000871  -0.149804   0.233947  -0.010998
      6      -0.145732   0.376587  -0.098835  -0.479986  -0.330160   0.589355
      7       0.084112   0.531657  -0.378439   0.277465   0.149150  -0.361683
      8       0.549892  -0.147014  -0.252815  -0.147137  -0.109029   0.209345
      9       0.145740  -0.377164  -0.096586   0.480719   0.384456   0.554778
     10       0.084111   0.533903   0.375267   0.277920   0.182711   0.345544
     11       0.549908  -0.145505   0.253688  -0.147402  -0.128357  -0.197879
     12      -0.000000  -0.000000  -0.000030   0.000000   0.000002   0.000037
     13       0.000000   0.000030  -0.000000  -0.000001   0.000037  -0.000002
     14      -0.001655   0.000000   0.000000   0.000108   0.000001  -0.000000
     15       0.000000   0.000002   0.000520  -0.000000  -0.000001  -0.000012
     16      -0.000000  -0.000521   0.000002  -0.000000  -0.000011   0.000001
     17      -0.003765  -0.000000   0.000000   0.000102   0.000001  -0.000000


The first frequency considered to be a vibration is 6
The total number of vibrations considered is 12


--------------------------
THERMOCHEMISTRY AT 298.15K
--------------------------

Temperature         ...   298.15 K
Pressure            ...     1.00 atm
Total Mass          ...   221.84 AMU
Quasi RRHO          ...     True
Cut-Off Frequency   ...     1.00 cm^-1

Throughout the following assumptions are being made:
  (1) The electronic state is orbitally nondegenerate
  (2) There are no thermally accessible electronically excited states
  (3) Hindered rotations indicated by low frequency modes are not
      treated as such but are treated as vibrations and this may
      cause some error
  (4) All equations used are the standard statistical mechanics
      equations for an ideal gas
  (5) All vibrations are strictly harmonic

freq.      89.81  E(vib)   ...       0.47 
freq.     103.38  E(vib)   ...       0.46 
freq.     103.42  E(vib)   ...       0.46 
freq.     426.02  E(vib)   ...       0.18 
freq.     914.85  E(vib)   ...       0.03 
freq.     914.93  E(vib)   ...       0.03 
freq.    1250.94  E(vib)   ...       0.01 
freq.    1432.85  E(vib)   ...       0.00 
freq.    1432.92  E(vib)   ...       0.00 
freq.    3097.20  E(vib)   ...       0.00 
freq.    3124.37  E(vib)   ...       0.00 
freq.    3124.62  E(vib)   ...       0.00 

------------
INNER ENERGY
------------

The inner energy is: U= E(el) + E(ZPE) + E(vib) + E(rot) + E(trans)
    E(el)   - is the total energy from the electronic structure calculation
              = E(kin-el) + E(nuc-el) + E(el-el) + E(nuc-nuc)
    E(ZPE)  - the the zero temperature vibrational energy from the frequency calculation
    E(vib)  - the the finite temperature correction to E(ZPE) due to population
              of excited vibrational states
    E(rot)  - is the rotational thermal energy
    E(trans)- is the translational thermal energy

Summary of contributions to the inner energy U:
Electronic energy                ...    -11.82679707 Eh
Zero point energy                ...      0.03648557 Eh      22.89 kcal/mol
Thermal vibrational correction   ...      0.00262430 Eh       1.65 kcal/mol
Thermal rotational correction    ...      0.00141627 Eh       0.89 kcal/mol
Thermal translational correction ...      0.00141627 Eh       0.89 kcal/mol
-----------------------------------------------------------------------
Total thermal energy                    -11.78485465 Eh


Summary of corrections to the electronic energy:
(perhaps to be used in another calculation)
Total thermal correction                  0.00545684 Eh       3.42 kcal/mol
Non-thermal (ZPE) correction              0.03648557 Eh      22.89 kcal/mol
-----------------------------------------------------------------------
Total correction                          0.04194242 Eh      26.32 kcal/mol


--------
ENTHALPY
--------

The enthalpy is H = U + kB*T
                kB is Boltzmann's constant
Total thermal energy              ...    -11.78485465 Eh 
Thermal Enthalpy correction       ...      0.00094421 Eh       0.59 kcal/mol
-----------------------------------------------------------------------
Total Enthalpy                    ...    -11.78391044 Eh


WARNING (ORCA/SYM): The number of Z matrix atoms does not agree with
the number of centers in the basis set. The point group will therefore
be determined without considering basis set information.


Note: Rotational entropy computed according to Herzberg 
Infrared and Raman Spectra, Chapter V,1, Van Nostrand Reinhold, 1945 
Point Group:  C3v, Symmetry Number:   3  
Rotational constants in cm-1:     5.256163     0.012760     0.012760 

Vibrational entropy computed according to the QRRHO of S. Grimme
Chem.Eur.J. 2012 18 9955 using a reference frequency of 100.0 cm-1


-------
ENTROPY
-------

The entropy contributions are T*S = T*(S(el)+S(vib)+S(rot)+S(trans))
     S(el)   - electronic entropy
     S(vib)  - vibrational entropy
     S(rot)  - rotational entropy
     S(trans)- translational entropy
The entropies will be listed as multiplied by the temperature to get
units of energy

Electronic entropy                ...      0.00000000 Eh      0.00 kcal/mol
Vibrational entropy               ...      0.00507878 Eh      3.19 kcal/mol
Rotational entropy                ...      0.01180813 Eh      7.41 kcal/mol
Translational entropy             ...      0.01999968 Eh     12.55 kcal/mol
-----------------------------------------------------------------------
Final entropy term                ...      0.03688659 Eh     23.15 kcal/mol

In case the symmetry of your molecule has not been determined correctly
or in case you have a reason to use a different symmetry number we print 
out the resulting rotational entropy values for sn=1,12:

 non-linear molecules -----------------------------------
|  sn= 1 | S(rot)=       0.01284542 Eh      8.06 kcal/mol|
|  sn= 2 | S(rot)=       0.01219096 Eh      7.65 kcal/mol|
|  sn= 3 | S(rot)=       0.01180813 Eh      7.41 kcal/mol|
|  sn= 4 | S(rot)=       0.01153651 Eh      7.24 kcal/mol|
|  sn= 5 | S(rot)=       0.01132582 Eh      7.11 kcal/mol|
|  sn= 6 | S(rot)=       0.01115368 Eh      7.00 kcal/mol|
|  sn= 7 | S(rot)=       0.01100813 Eh      6.91 kcal/mol|
|  sn= 8 | S(rot)=       0.01088205 Eh      6.83 kcal/mol|
|  sn= 9 | S(rot)=       0.01077084 Eh      6.76 kcal/mol|
|  sn=10 | S(rot)=       0.01067136 Eh      6.70 kcal/mol|
|  sn=11 | S(rot)=       0.01058137 Eh      6.64 kcal/mol|
|  sn=12 | S(rot)=       0.01049922 Eh      6.59 kcal/mol|
 linear molecules ---------------------------------------
|  Dinfh | S(rot)=       0.00944380 Eh      5.93 kcal/mol|
|  Cinfv | S(rot)=       0.01009826 Eh      6.34 kcal/mol|
 --------------------------------------------------------


-------------------
GIBBS FREE ENERGY
-------------------

The Gibbs free energy is G = H - T*S

Total enthalpy                    ...    -11.78391044 Eh 
Total entropy correction          ...     -0.03688659 Eh    -23.15 kcal/mol
-----------------------------------------------------------------------
Final Gibbs free energy         ...    -11.82079703 Eh

For completeness - the Gibbs free energy minus the electronic energy
G-E(el)                           ...      0.00600004 Eh      3.77 kcal/mol


--------------------------------
SUGGESTED CITATIONS FOR THIS RUN
--------------------------------

Below you find a list of papers that are relevant to this ORCA run
We neither can nor want to force you to cite these papers, but we appreciate if you do
You receive ORCA, which is the product of decades of hard work by many enthusiastic individuals, for free
The only thing we kindly ask in return is that you cite our papers,
We deeply appreciate it, if you show your appreciation for ORCA by not just citing the generic ORCA reference.

Please note that relegating all ORCA citations to the supporting information does *not* help us.
SI sections are not indexed - citations you put there will not count into any citation statistics
But we need these citations in order to attract the funding resources that allow us to do what we are doing

Therefore, if you are a happy ORCA user, please consider citing a few of the papers listed below in the main body of your paper

In addition to the list printed below, the program has created the file reactant_optfreq.bibtex that contains the list in bibtex format
You can import this file easily into all common literature databanks and citation aid programs


List of essential papers. We consider these as the minimum necessary citations

  1. Bannwarth, C.; Ehlert, S.; Grimme, S.
     GFN2-xTB—An Accurate and Broadly Parametrized Self-Consistent Tight-Binding Quantum Chemical Method with Multipole Electrostatics and Density-Dependent Dispersion Contributions
     J. Chem. Theory Comput. 2019 15(3), 1652-1671
     doi.org/10.1021/acs.jctc.8b01176
  2. Neese, F.
     Software update: the ORCA program system, version 6.0
     WIRES Comput. Molec. Sci. 2025 15(1), e70019
     doi.org/10.1002/wcms.7019

List of papers to cite with high priority. The work reported in these papers was absolutely
necessary for this run to complete.
Our perspective: the developers of density functionals and basis sets usually get cited in chemistry papers
Good! But without the algorithms to do something with them, the functionals or basis sets would not do anything.
Hence, in our opinion, the algorithm design and method developments papers are equally worthy of getting cited

  1. Bykov, D.; Petrenko, T.; Izsak, R.; Kossmann, S.; Becker, U.; Valeev, E.; Neese, F.
     Efficient implementation of the analytic second derivatives of Hartree-Fock and hybrid DFT energies: a detailed analysis of different approximations
     Molec. Phys. 2015 113 , 1961-1977
     doi.org/10.1080/00268976.2015.1025114
  2. Bannwarth, C.; Caldeweyher, E.; Ehlert, S.; Hansen, A.; Pracht, P.; Seibert, J.; Spicher, S.; Grimme, S.
     Extended tight-binding quantum chemistry methods
     WIRES Comput. Molec. Sci. 2020 11(2), e1493
     doi.org/10.1002/wcms.1493

List of suggested additional citations. These are papers that are important in the 'surrounding' of 
of this run, or papers that preceded the highly important papers. If you like your results we are grateful for a citation.

  1. Neese, F.
     The ORCA program system
     WIRES Comput. Molec. Sci. 2012 2(1), 73-78
     doi.org/10.1002/wcms.81
  2. Neese, F.
     Software update: the ORCA program system, version 4.0
     WIRES Comput. Molec. Sci. 2018 8(1), 1-6
     doi.org/10.1002/wcms.1327
  3. Neese, F.; Wennmohs, F.; Becker, U.; Riplinger, C.
     The ORCA quantum chemistry program package
     J. Chem. Phys. 2020 152(22), 224108
     doi.org/10.1063/5.0004608
  4. Neese, F.
     Software update: The ORCA program system—Version 5.0
     WIRES Comput. Molec. Sci. 2022 12(1), e1606
     doi.org/10.1002/wcms.1606

List of optional additional citations

  1. Neese, F.
     Approximate second-order SCF convergence for spin unrestricted wavefunctions
     Chem. Phys. Lett. 2000 325(1-3), 93-98
     doi.org/10.1016/s0009-2614(00)00662-x

Timings for individual modules:

Sum of individual times          ...        0.543 sec (=   0.009 min)
Geometry relaxation              ...        0.013 sec (=   0.000 min)   2.4 %
XTB module                       ...        0.530 sec (=   0.009 min)  97.6 %
                             ****ORCA TERMINATED NORMALLY****
TOTAL RUN TIME: 0 days 0 hours 0 minutes 1 seconds 20 msec
