
                                 *****************
                                 * O   R   C   A *
                                 *****************

                                            #,                                       
                                            ###                                      
                                            ####                                     
                                            #####                                    
                                            ######                                   
                                           ########,                                 
                                     ,,################,,,,,                         
                               ,,#################################,,                 
                          ,,##########################################,,             
                       ,#########################################, ''#####,          
                    ,#############################################,,   '####,        
                  ,##################################################,,,,####,       
                ,###########''''           ''''###############################       
              ,#####''   ,,,,##########,,,,          '''####'''          '####       
            ,##' ,,,,###########################,,,                        '##       
           ' ,,###''''                  '''############,,,                           
         ,,##''                                '''############,,,,        ,,,,,,###''
      ,#''                                            '''#######################'''  
     '                                                          ''''####''''         
             ,#######,   #######,   ,#######,      ##                                
            ,#'     '#,  ##    ##  ,#'     '#,    #''#        ,####,    ,#,          
            ##       ##  ##   ,#'  ##            #'  '#       #'       ,# #          
            ##       ##  #######   ##           ,######,      #####,      #          
            '#,     ,#'  ##    ##  '#,     ,#' ,#      #,     #,   #      #          
             '#######'   ##     ##  '#######'  #'      '#     '####' #    #          



                #########################################################
                #                        -***-                          #
                #          Department of theory and spectroscopy        #
                #                                                       #
                #                      Frank Neese                      #
                #                                                       #
                #     Directorship, Architecture, Infrastructure        #
                #                    SHARK, DRIVERS                     #
                #        Core code/Algorithms in most modules           #
                #                                                       #
                #        Max Planck Institute fuer Kohlenforschung      #
                #                Kaiser Wilhelm Platz 1                 #
                #                 D-45470 Muelheim/Ruhr                 #
                #                      Germany                          #
                #                                                       #
                #                  All rights reserved                  #
                #                        -***-                          #
                #########################################################


                         Program Version 6.1.0  -  RELEASE   -
                                (GIT: $679e74b$)
                          ($2025-06-10 18:02:51 +0200$)


 With contributions from (in alphabetic order):
[Max-Planck-Institut fuer Kohlenforschung]                               
  Daniel Aravena         : Magnetic Suceptibility                        
  Michael Atanasov       : Ab Initio Ligand Field Theory (pilot matlab implementation)
  Alexander A. Auer      : GIAO ZORA, VPT2 properties, NMR spectrum      
  Ute Becker             : All parallelization in ORCA, NUMFREQ, NUMCALC 
  Giovanni Bistoni       : ED, misc. LED, open-shell LED, HFLD           
  Dmytro Bykov           : pre 5.0 version of the SCF Hessian            
  Marcos Casanova-Páez   : Triplet and SCS-CIS(D). UHF-(DLPNO)-IP/EA/STEOM-CCSD. UHF-CVS-IP/STEOM-CCSD   
  Vijay G. Chilkuri      : MRCI spin determinant printing, contributions to CSF-ICE 
  Pauline Colinet        : FMM embedding                                 
  Dipayan Datta          : RHF DLPNO-CCSD density                        
  Achintya Kumar Dutta   : EOM-CC, STEOM-CC                              
  Nicolas Foglia         : Exact transition moments, OPA infrastructure, MCD improvements    
  Dmitry Ganyushin       : Spin-Orbit,Spin-Spin,Magnetic field MRCI      
  Miquel Garcia-Rates    : C-PCM and meta-GGA Hessian, CCSD/C-PCM, Gaussian charge scheme 
  Tiago L. C. Gouveia    : GS-ROHF, GS-ROCIS                             
  Yang Guo               : DLPNO-NEVPT2, F12-NEVPT2, CIM, IAO-localization        
  Andreas Hansen         : Spin unrestricted coupled pair/coupled cluster methods 
  Ingolf Harden          : AUTO-CI MPn and infrastructure                
  Benjamin Helmich-Paris : MC-RPA, TRAH-(SCF,CASSCF), AVAS, COSX integrals, SCF dyn. polar., MC-PDFT, srDFT 
  Lee Huntington         : MR-EOM, pCC                                   
  Robert Izsak           : Overlap fitted RIJCOSX, COSX-SCS-MP3, EOM     
  Riya Kayal             : Wick's Theorem for AUTO-CI, AUTO-CI UHF-CCSDT 
  Emily Kempfer          : AUTO-CI RHF CISDT and CCSDT, approximate NEVPT4
  Christian Kollmar      : KDIIS, OOCD, Brueckner-CCSD(T), CCSD density, CASPT2, CASPT2-K, improved NEVPT2 
  Axel Koslowski         : Symmetry handling                             
  Simone Kossmann        : meta-GGA functionals, TD-DFT gradient, OOMP2, (MP2 Hessian; deprecated post 5.0) 
  Lucas Lang             : DCDCAS, Hyperfine gauge corrections, ICE-SOC+SSC
  Marvin Lechner         : AUTO-CI (C++ implementation), FIC-MRCC        
  Spencer Leger          : CASSCF response                               
  Dagmar Lenk            : GEPOL surface, SMD, ORCA-2-JSON               
  Dimitrios Liakos       : Extrapolation schemes; Compound Job, Property file
  Dimitrios Manganas     : Further ROCIS development; embedding schemes. LFT, Crystal Embedding 
  Dimitrios Pantazis     : SARC Basis sets                               
  Anastasios Papadopoulos: AUTO-CI, single reference methods and gradients 
  Taras Petrenko         : pre 6.0 DFT Hessian and TD-DFT gradient,  ECA, NRVS 
  Petra Pikulova         : Analytic Raman intensities                    
  Peter Pinski           : DLPNO-MP2, DLPNO-MP2 Gradient                 
  Shashank Vittal Rao    : ES-AILFT, MagRelax                            
  Christoph Reimann      : Effective Core Potentials                     
  Marius Retegan         : Local ZFS, SOC                                
  Christoph Riplinger    : Optimizer, TS searches, QM/MM, DLPNO-CCSD(T), (RO)-DLPNO pert. Triples 
  Michael Roemelt        : Original ROCIS implementation, recursive CI coupling coefficients
  Masaaki Saitow         : Open-shell DLPNO-CCSD energy and density      
  Barbara Sandhoefer     : DKH picture change effects                    
  Yorick L. A. Schmerwitz: GMF and freeze-and-release deltaSCF, NEB S-IDPP initial path                    
  Kantharuban Sivalingam : CASSCF convergence/infrastructure, NEVPT2, NEVPT3, NEVPT4(SD), FIC-MRCI and CEPA variants
  Bernardo de Souza      : ESD, SOC TD-DFT                               
  Georgi L. Stoychev     : AutoAux, RI-MP2 NMR, DLPNO-MP2 response, X2C  
  Van Anh Tran           : RI-MP2 g-tensors                              
  Willem Van den Heuvel  : Paramagnetic NMR                              
  Zikuan Wang            : NOTCH, Electric field optimization            
  Frank Wennmohs         : Technical directorship and infrastructure     
  Hang Xu                : AUTO-CI-Response properties                   
                                                                         
[FACCTs GmbH]                                                            
  Markus Bursch, Nicolas Foglia, Miquel Garcia-Rates, Ingolf Harden, Hagen Neugebauer, Anastasios Papadopoulos, 
  Christoph Riplinger, Bernardo de Souza, Georgi L. Stoychev                                                    
                                                                 
  APM, various basis sets, CI-OPT, improved COSX, DLPNO-Multilevel,           
  DOCKER, DRACO, updates on ESD, Fragmentator, GOAT, IRC, LR-CPCM, L-BFGS, MBIS, meta-GGA TD-DFT gradient, ML-optimized integration grids, 
  MM, NACMEs, nearIR, NEB, NEB-TS, NL-DFT gradient (VV10), 2- and 3-layer-ONIOM, interface openCOSMO-RS, QMMM,   
  Crystal-QMMM, RESP, rigid body optimization, SF, symmetry and pop. for TD-DFT, various functionals, SOLVATOR                                   
                                                                         
[Other institutions]                                                     
  V. Asgeirsson          : NEB                                           
  Christoph Bannwarth    : sTDA-DFT, sTD-DFT, PBEh-3c, B97-3c, D3        
  Giovanni Bistoni       : ETS/NOCV, ADLD/ADEX, COVALED                  
  Martin Brehm           : Molecular dynamics                            
  Ronald Cardenas        : ETS/NOCV                                      
  Martina Colucci        : COVALED                                       
  Sebastian Ehlert       : rSCAN, r2SCAN, r2SCAN-3c, D4, dhf basis sets  
  Marvin Friede          : D4 for Fr, Ra, Ac-Lr                          
  Lars Goerigk           : TD-DFT with DH, B97 family of functionals     
  Stefan Grimme          : VdW corrections, initial TS optimization, DFT functionals, gCP, sTDA/sTD-DF 
  Waldemar Hujo          : DFT-NL                                        
  H. Jonsson             : NEB                                           
  Holger Kruse           : gCP                                           
  Marcel Mueller         : wB97X-3c, vDZP basis set                      
  Hagen Neugebauer       : wr2SCAN, Native XTB                           
  Gianluca Regni         : ADLD/ADEX                                     
  Tobias Risthaus        : pre 6.0 range-separated hybrid DFT and stability analysis
  Lukas Wittmann         : regularized MP2, r2SCAN double-hybrids, wr2SCAN        
                                                                         
We gratefully acknowledge several colleagues who have allowed us to      
interface, adapt or use parts of their codes:                            
  Ed Valeev, F. Pavosevic, A. Kumar             : LibInt (2-el integral package), F12 methods 
  Garnet Chan, S. Sharma, J. Yang, R. Olivares  : DMRG                   
  Ulf Ekstrom                                   : XCFun DFT Library      
  Mihaly Kallay                                 : mrcc  (arbitrary order and MRCC methods)
  Frank Weinhold                                : gennbo (NPA and NBO analysis)           
  Simon Mueller                                 : openCOSMO-RS                            
  Christopher J. Cramer and Donald G. Truhlar   : smd solvation model                     
  S Lehtola, MJT Oliveira, MAL Marques          : LibXC Library                           
  Liviu Ungur et al                             : ANISO software                          


 Your calculation uses the libint2 library for the computation of 2-el integrals
 For citations please refer to: http://libint.valeyev.net

 Your ORCA version has been built with support for libXC version: 7.0.0
 For citations please refer to: https://libxc.gitlab.io

 This ORCA versions uses:
   CBLAS   interface :  Fast vector & matrix operations
   LAPACKE interface :  Fast linear algebra routines
   SCALAPACK package :  Parallel linear algebra routines
   Shared memory     :  Shared parallel matrices
   BLAS/LAPACK       :  OpenBLAS 0.3.29  USE64BITINT DYNAMIC_ARCH NO_AFFINITY SkylakeX SINGLE_THREADED
        Core in use  :  SkylakeX
   Copyright (c) 2011-2014, The OpenBLAS Project


  ***********************************
  * Starting time: Mon Mar 16 14:18:22 2026
  * Host name:     midway3-login4.rcc.local
  * Process ID:    94101
  * Working dir.:  /home/rzhu16/evans-polanyi-principle-validation/runs/da_i/geo_opt_reactant_product
  ***********************************

Your calculation utilizes the semiempirical GFN2-xTB method
Please cite in your paper:
Bannwarth, C.; Ehlert S.; Grimme, S. J. Chem. Theory Comput. 2019, 15, 1652.
   

================================================================================

cite the ECPs for I  [Def2-ECP] as follows:
Ce-Yb(ecp-28): M. Dolg, H. Stoll, H.Preuss, J. Chem. Phys., 1989, 90, 1730-1734.
Y-Cd(ecp-28), Hf-Hg(ecp-46): D. Andrae,U. Haeussermann, M. Dolg, H. Stoll, H. Preuss, Theor. Chim. Acta, 1990, 77, 123-141.
In-Sb(ecp-28), Tl-Bi(ecp-46): B. Metz, H. Stoll, M. Dolg, J. Chem. Phys., 2000, 113, 2563-2569.
Te-Xe(ecp-28), Po-Rn(ecp-46): K. A. Peterson, D. Figgen, E. Goll, H. Stoll, M. Dolg, J. Chem. Phys., 2003, 119, 11113-11123.
Rb(ecp-28), Cs(ecp-46): T. Leininger, A. Nicklass, W. Kuechle, H. Stoll, M. Dolg, A. Bergner, Chem. Phys. Lett., 1996, 255, 274-280.
Sr(ecp-28), Ba(ecp-46): M. Kaupp, P. V. Schleyer, H. Stoll and H. Preuss, J. Chem. Phys., 1991, 94, 1360-1366.
La(ecp-46): M. Dolg, H. Stoll, A. Savin, H. Preuss, Theor. Chim. Acta, 1989, 75, 173-194.
Lu(ecp-28): X. Cao, M. Dolg, J. Chem. Phys., 2001, 115, 7348-7355.

ECP parameters for I  [Def2-ECP] have been obtained from:
TURBOMOLE (7.0.2)

================================================================================
                                        WARNINGS
                       Please study these warnings very carefully!
================================================================================


WARNING: Analytical Hessian for XTB is limited in the analysis of the data.
       : If you want to obtain extensive IR and deltaG analysis, please use ! XTB NumFreq. 


WARNING: Geometry Optimization
  ===> : Switching off AutoStart
         For restart on a previous wavefunction, please use MOREAD

WARNING: Found dipole moment calculation with XTB calculation
  ===> : Switching off dipole moment calculation


WARNING: Found frequency calculation in combination with XTB calculation
  ===> : Need to redirect dipole moment calculation to properties.out


================================================================================
                                       INPUT FILE
================================================================================
NAME = product_optfreq.inp
|  1> ! XTB2 Opt Freq PAL8
|  2> 
|  3> %geom
|  4>   MaxIter 500
|  5> end
|  6> 
|  7> * xyz 0 1
|  8>   C       0.239372      0.209686      0.430897
|  9>   C       1.355277      0.090238     -0.531318
| 10>   C       2.149945      1.194589     -0.512673
| 11>   C       3.277579      1.029334      0.425313
| 12>   C       2.456704      0.923240      1.776862
| 13>   C       1.102996      0.163995      1.756768
| 14>   H      -0.483497     -0.605707      0.439585
| 15>   H      -0.278021      1.164656      0.356682
| 16>   H       1.829897     -0.885136     -0.575520
| 17>   H       1.668027      2.166743     -0.485298
| 18>   H       3.987661      1.854854      0.473581
| 19>   H       3.815780      0.091973      0.278589
| 20>   H       0.480891      0.531707      2.574177
| 21>   H       1.320195     -0.887302      1.962632
| 22>   H       3.094279      0.451443      2.525676
| 23>   I       2.154486      2.935037      2.568806
| 24> *
| 25> 
| 26>                          ****END OF INPUT****
================================================================================

                       *****************************
                       * Geometry Optimization Run *
                       *****************************

Geometry optimization settings:
Update method            Update   .... BFGS
Choice of coordinates    CoordSys .... (2022) Redundant Internals
Initial Hessian          InHess   .... Almloef's Model
Max. no of cycles        MaxIter  .... 500

Convergence Tolerances:
Energy Change            TolE     ....  5.0000e-06 Eh
Max. Gradient            TolMAXG  ....  3.0000e-04 Eh/bohr
RMS Gradient             TolRMSG  ....  1.0000e-04 Eh/bohr
Max. Displacement        TolMAXD  ....  4.0000e-03 bohr
RMS Displacement         TolRMSD  ....  2.0000e-03 bohr
Strict Convergence                .... False

------------------------------------------------------------------------------
                        ORCA OPTIMIZATION COORDINATE SETUP
------------------------------------------------------------------------------

The optimization will be done in redundant internal coordinates (2022)
Making redundant internal coordinates   ...  (2022 redundants) done
Evaluating the initial hessian          ...  (Almloef) done
Evaluating the coordinates              ...  done
Calculating the B-matrix                .... done
Calculating the G-matrix                .... done
The number of degrees of freedom        ....   78

    -----------------------------------------------------------------
                    Redundant Internal Coordinates


    -----------------------------------------------------------------
         Definition                    Initial Value    Approx d2E/dq
    -----------------------------------------------------------------
      1. B(C   1,C   0)                  1.4783         0.451713   
      2. B(C   2,C   1)                  1.3607         0.695865   
      3. B(C   3,C   2)                  1.4760         0.455483   
      4. B(C   4,C   3)                  1.5849         0.305390   
      5. B(C   5,C   4)                  1.5522         0.344294   
      6. B(C   5,C   0)                  1.5830         0.307489   
      7. B(H   6,C   0)                  1.0897         0.360476   
      8. B(H   7,C   0)                  1.0887         0.361883   
      9. B(H   8,C   1)                  1.0856         0.365940   
     10. B(H   9,C   2)                  1.0854         0.366246   
     11. B(H  10,C   3)                  1.0900         0.360143   
     12. B(H  11,C   3)                  1.0908         0.359050   
     13. B(H  12,C   5)                  1.0910         0.358717   
     14. B(H  13,C   5)                  1.0931         0.356074   
     15. B(H  14,C   4)                  1.0908         0.359060   
     16. B(I  15,C   4)                  2.1831         0.114005   
     17. A(C   5,C   0,H   7)          109.9806         0.314427   
     18. A(C   1,C   0,C   5)           97.5282         0.363057   
     19. A(H   6,C   0,H   7)          109.9777         0.291113   
     20. A(C   1,C   0,H   6)          116.4533         0.334713   
     21. A(C   5,C   0,H   6)          109.4891         0.314228   
     22. A(C   1,C   0,H   7)          112.6598         0.334930   
     23. A(C   0,C   1,C   2)          111.4911         0.418702   
     24. A(C   2,C   1,H   8)          118.3221         0.360883   
     25. A(C   0,C   1,H   8)          115.4112         0.335551   
     26. A(C   1,C   2,C   3)          111.3468         0.419323   
     27. A(C   3,C   2,H   9)          115.0527         0.336062   
     28. A(C   1,C   2,H   9)          117.9033         0.360935   
     29. A(C   2,C   3,C   4)           98.8431         0.363147   
     30. A(H  10,C   3,H  11)          109.5947         0.290711   
     31. A(C   2,C   3,H  11)          112.8097         0.334955   
     32. A(C   4,C   3,H  10)          110.5096         0.313832   
     33. A(C   2,C   3,H  10)          116.1705         0.335124   
     34. A(C   4,C   3,H  11)          108.2245         0.313678   
     35. A(H  14,C   4,I  15)          103.3251         0.284039   
     36. A(C   5,C   4,I  15)          109.5556         0.312374   
     37. A(C   3,C   4,I  15)          108.6251         0.306393   
     38. A(C   3,C   4,H  14)          108.1580         0.313679   
     39. A(C   5,C   4,H  14)          107.8833         0.319860   
     40. A(C   3,C   4,C   5)          118.2561         0.346320   
     41. A(H  12,C   5,H  13)          107.2384         0.290151   
     42. A(C   4,C   5,H  13)          107.1404         0.319424   
     43. A(C   0,C   5,C   4)          118.1978         0.346720   
     44. A(C   0,C   5,H  13)          107.0925         0.313603   
     45. A(C   4,C   5,H  12)          108.8275         0.319810   
     46. A(C   0,C   5,H  12)          107.8606         0.313979   
     47. D(C   2,C   1,C   0,C   5)    -67.3881         0.015046   
     48. D(C   2,C   1,C   0,H   6)    176.4034         0.015046   
     49. D(H   8,C   1,C   0,H   6)    -44.8724         0.015046   
     50. D(C   2,C   1,C   0,H   7)     47.9955         0.015046   
     51. D(H   8,C   1,C   0,C   5)     71.3361         0.015046   
     52. D(C   3,C   2,C   1,C   0)     92.5622         0.034070   
     53. D(H   9,C   2,C   1,H   8)    178.9919         0.034070   
     54. D(C   3,C   2,C   1,H   8)    -44.8368         0.034070   
     55. D(H   9,C   2,C   1,C   0)    -43.6091         0.034070   
     56. D(H  10,C   3,C   2,C   1)    177.7038         0.015297   
     57. D(H  10,C   3,C   2,H   9)    -44.7930         0.015297   
     58. D(H  11,C   3,C   2,C   1)     49.9663         0.015297   
     59. D(C   4,C   3,C   2,H   9)     73.3410         0.015297   
     60. D(C   4,C   3,C   2,C   1)    -64.1622         0.015297   
     61. D(H  14,C   4,C   3,H  11)     42.5199         0.010000   
     62. D(C   5,C   4,C   3,C   2)     37.2844         0.010000   
     63. D(H  14,C   4,C   3,H  10)    -77.4892         0.010000   
     64. D(H  14,C   4,C   3,C   2)    160.1835         0.010000   
     65. D(C   5,C   4,C   3,H  11)    -80.3792         0.010000   
     66. D(C   5,C   4,C   3,H  10)    159.6117         0.010000   
     67. D(H  12,C   5,C   4,C   3)   -155.5415         0.010000   
     68. D(C   0,C   5,C   4,I  15)     93.0062         0.010000   
     69. D(C   0,C   5,C   4,H  14)   -155.1783         0.010000   
     70. D(C   0,C   5,C   4,C   3)    -32.1414         0.010000   
     71. D(H  12,C   5,C   0,H   7)     46.0914         0.010000   
     72. D(H  12,C   5,C   0,H   6)    -74.8597         0.010000   
     73. D(H  12,C   5,C   0,C   1)    163.5783         0.010000   
     74. D(C   4,C   5,C   0,H   7)    -77.7905         0.010000   
     75. D(C   4,C   5,C   0,H   6)    161.2584         0.010000   
     76. D(H  12,C   5,C   4,H  14)     81.4216         0.010000   
     77. D(C   4,C   5,C   0,C   1)     39.6965         0.010000   
     78. D(H  12,C   5,C   4,I  15)    -30.3939         0.010000   
    -----------------------------------------------------------------

Number of atoms                         .... 16
Number of degrees of freedom            .... 78


         *************************************************************
         *                GEOMETRY OPTIMIZATION CYCLE   1            *
         *************************************************************
---------------------------------
CARTESIAN COORDINATES (ANGSTROEM)
---------------------------------
  C     0.239372    0.209686    0.430897
  C     1.355277    0.090238   -0.531318
  C     2.149945    1.194589   -0.512673
  C     3.277579    1.029334    0.425313
  C     2.456704    0.923240    1.776862
  C     1.102996    0.163995    1.756768
  H    -0.483497   -0.605707    0.439585
  H    -0.278021    1.164656    0.356682
  H     1.829897   -0.885136   -0.575520
  H     1.668027    2.166743   -0.485298
  H     3.987661    1.854854    0.473581
  H     3.815780    0.091973    0.278589
  H     0.480891    0.531707    2.574177
  H     1.320195   -0.887302    1.962632
  H     3.094279    0.451443    2.525676
  I     2.154486    2.935037    2.568806

----------------------------
CARTESIAN COORDINATES (A.U.)
----------------------------
  NO LB    ZA    FRAG    MASS        X           Y           Z
   0 C   6.0000    0    12.011    0.452348    0.396249    0.814277
   1 C   6.0000    0    12.011    2.561102    0.170525   -1.004046
   2 C   6.0000    0    12.011    4.062807    2.257446   -0.968812
   3 C   6.0000    0    12.011    6.193727    1.945159    0.803725
   4 C   6.0000    0    12.011    4.642498    1.744671    3.357783
   5 C   6.0000    0    12.011    2.084360    0.309906    3.319810
   6 H   1.0000    0     1.008   -0.913677   -1.144620    0.830695
   7 H   1.0000    0     1.008   -0.525384    2.200881    0.674031
   8 H   1.0000    0     1.008    3.458004   -1.672665   -1.087575
   9 H   1.0000    0     1.008    3.152114    4.094551   -0.917080
  10 H   1.0000    0     1.008    7.535587    3.505166    0.894938
  11 H   1.0000    0     1.008    7.210779    0.173804    0.526457
  12 H   1.0000    0     1.008    0.908752    1.004781    4.864490
  13 H   1.0000    0     1.008    2.494807   -1.676758    3.708837
  14 H   1.0000    0     1.008    5.847340    0.853104    4.772836
  15 I  53.0000    0   126.900    4.071388    5.546416    4.854340

      -----------------------------------------------------------      
     |                   =====================                   |     
     |                           x T B                           |     
     |                   =====================                   |     
     |                         S. Grimme                         |     
     |          Mulliken Center for Theoretical Chemistry        |     
     |                    University of Bonn                     |     
      -----------------------------------------------------------      

   * xtb version 6.7.1 (edcfbbe) compiled by 'albert@albert-system' on 2024-07-22

   xtb is free software: you can redistribute it and/or modify it under
   the terms of the GNU Lesser General Public License as published by
   the Free Software Foundation, either version 3 of the License, or
   (at your option) any later version.
   
   xtb is distributed in the hope that it will be useful,
   but WITHOUT ANY WARRANTY; without even the implied warranty of
   MERCHANTABILITY or FITNESS FOR A PARTICULAR PURPOSE.  See the
   GNU Lesser General Public License for more details.
   
   Cite this work as:
   * C. Bannwarth, E. Caldeweyher, S. Ehlert, A. Hansen, P. Pracht,
     J. Seibert, S. Spicher, S. Grimme, WIREs Comput. Mol. Sci., 2020, 11,
     e01493. DOI: 10.1002/wcms.1493
   
   for GFN2-xTB:
   * C. Bannwarth, S. Ehlert and S. Grimme., J. Chem. Theory Comput., 2019,
     15, 1652-1671. DOI: 10.1021/acs.jctc.8b01176
   for GFN1-xTB:
   * S. Grimme, C. Bannwarth, P. Shushkov, J. Chem. Theory Comput., 2017,
     13, 1989-2009. DOI: 10.1021/acs.jctc.7b00118
   for GFN0-xTB:
   * P. Pracht, E. Caldeweyher, S. Ehlert, S. Grimme, ChemRxiv, 2019, preprint.
     DOI: 10.26434/chemrxiv.8326202.v1
   for GFN-FF:
   * S. Spicher and S. Grimme, Angew. Chem. Int. Ed., 2020, 59, 15665-15673.
     DOI: 10.1002/anie.202004239
   
   for ALPB and GBSA implicit solvation:
   * S. Ehlert, M. Stahn, S. Spicher, S. Grimme, J. Chem. Theory Comput.,
     2021, 17, 4250-4261. DOI: 10.1021/acs.jctc.1c00471
   
   for ddCOSMO and CPCM-X implicit solvation:
   * M. Stahn, S. Ehlert, S. Grimme, J. Phys. Chem. A,
     2023, XX, XXXX-XXXX. DOI: 10.1021/acs.jpca.3c04382
   
   for DFT-D4:
   * E. Caldeweyher, C. Bannwarth and S. Grimme, J. Chem. Phys., 2017,
     147, 034112. DOI: 10.1063/1.4993215
   * E. Caldeweyher, S. Ehlert, A. Hansen, H. Neugebauer, S. Spicher,
     C. Bannwarth and S. Grimme, J. Chem. Phys., 2019, 150, 154122.
     DOI: 10.1063/1.5090222
   * E. Caldeweyher, J.-M. Mewes, S. Ehlert and S. Grimme, Phys. Chem. Chem. Phys.
     2020, 22, 8499-8512. DOI: 10.1039/D0CP00502A
   
   for sTDA-xTB:
   * S. Grimme and C. Bannwarth, J. Chem. Phys., 2016, 145, 054103.
     DOI: 10.1063/1.4959605
   
   in the mass-spec context:
   * V. Asgeirsson, C. Bauer and S. Grimme, Chem. Sci., 2017, 8, 4879.
     DOI: 10.1039/c7sc00601b
   * J. Koopman and S. Grimme, ACS Omega 2019, 4, 12, 15120-15133.
     DOI: 10.1021/acsomega.9b02011
   
   for metadynamics refer to:
   * S. Grimme, J. Chem. Theory Comput., 2019, 155, 2847-2862
     DOI: 10.1021/acs.jctc.9b00143
   
   for SPH calculations refer to:
   * S. Spicher and S. Grimme, J. Chem. Theory Comput., 2021, 17, 1701-1714
     DOI: 10.1021/acs.jctc.0c01306
   
   for ONIOM refer to:
   * C. Plett, A. Katbashev, S. Ehlert, S. Grimme, M. Bursch,
     Phys. Chem. Chem. Phys., 2023, 25, 17860-17868. DOI: 10.1039/D3CP02178E
   
   for DIPRO refer to:
   * J. Kohn, N. Gildemeister, S. Grimme, D. Fazzi, A. Hansen,
     J. Chem. Phys., 2023, just accepted.
   
   for PTB refer to:
   * S. Grimme, M. Mueller, A. Hansen, J. Chem. Phys., 2023, 158, 124111.
     DOI: 10.1063/5.0137838
   
   with help from (in alphabetical order)
   P. Atkinson, C. Bannwarth, F. Bohle, G. Brandenburg, E. Caldeweyher
   M. Checinski, S. Dohm, S. Ehlert, S. Ehrlich, I. Gerasimov, C. Hölzer
   A. Katbashev, J. Kohn, J. Koopman, C. Lavigne, S. Lehtola, F. März, M. Müller,
   F. Musil, H. Neugebauer, J. Pisarek, C. Plett, P. Pracht, F. Pultar,
   J. Seibert, P. Shushkov, S. Spicher, M. Stahn, M. Steiner, T. Strunk,
   J. Stückrath, T. Rose, and J. Unsleber
   
 * started run on 2026/03/16 at 14:18:23.686     
   ID    Z sym.   atoms
    1    6 C      1-6
    2    1 H      7-15
    3   53 I      16

           -------------------------------------------------
          |                Calculation Setup                |
           -------------------------------------------------

          program call               : /software/orca-6.1.0-el8-x86_64/bin/otool_xtb product_optfreq_XTB.xyz --grad -c 0 -u 0 -P 8 --namespace product_optfreq --input product_optfreq_XTB.input.tmp --acc 0.200000
          hostname                   : midway3-login4.rcc.local
          calculation namespace      : product_optfreq
          coordinate file            : product_optfreq_XTB.xyz
          omp threads                :                     8


           -------------------------------------------------
          |                 G F N 2 - x T B                 |
           -------------------------------------------------

        Reference                      10.1021/acs.jctc.8b01176
      * Hamiltonian:
        H0-scaling (s, p, d)           1.850000    2.230000    2.230000
        zeta-weighting                 0.500000
      * Dispersion:
        s8                             2.700000
        a1                             0.520000
        a2                             5.000000
        s9                             5.000000
      * Repulsion:
        kExp                           1.500000    1.000000
        rExp                           1.000000
      * Coulomb:
        alpha                          2.000000
        third order                    shell-resolved
        anisotropic                    true
        a3                             3.000000
        a5                             4.000000
        cn-shift                       1.200000
        cn-exp                         4.000000
        max-rad                        5.000000


          ...................................................
          :                      SETUP                      :
          :.................................................:
          :  # basis functions                  43          :
          :  # atomic orbitals                  42          :
          :  # shells                           24          :
          :  # electrons                        40          :
          :  max. iterations                   250          :
          :  Hamiltonian                  GFN2-xTB          :
          :  restarted?                      false          :
          :  GBSA solvation                  false          :
          :  PC potential                    false          :
          :  electronic temp.          300.0000000     K    :
          :  accuracy                    0.2000000          :
          :  -> integral cutoff          0.3198970E+02      :
          :  -> integral neglect         0.2000000E-08      :
          :  -> SCF convergence          0.2000000E-06 Eh   :
          :  -> wf. convergence          0.2000000E-04 e    :
          :  Broyden damping             0.4000000          :
          :  net charge                          0          :
          :  unpaired electrons                  0          :
          ...................................................

 iter      E             dE          RMSdq      gap      omega  full diag
   1    -21.3839825 -0.213840E+02  0.626E+00    2.60       0.0  T
   2    -21.4090376 -0.250551E-01  0.434E+00    2.55       1.0  T
   3    -21.3887953  0.202423E-01  0.299E+00    2.52       1.0  T
   4    -21.4154142 -0.266188E-01  0.701E-01    2.53       1.0  T
   5    -21.4155401 -0.125936E-03  0.353E-01    2.53       1.0  T
   6    -21.4157261 -0.186056E-03  0.250E-01    2.54       1.0  T
   7    -21.4158039 -0.777239E-04  0.822E-02    2.54       1.0  T
   8    -21.4158016  0.231201E-05  0.460E-02    2.54       1.0  T
   9    -21.4158224 -0.208174E-04  0.187E-02    2.54       1.3  T
  10    -21.4158244 -0.204558E-05  0.361E-03    2.54       6.9  T
  11    -21.4158244 -0.180091E-07  0.174E-03    2.54      14.4  T
  12    -21.4158244 -0.500635E-08  0.513E-04    2.54      48.7  T
  13    -21.4158244 -0.646814E-09  0.140E-04    2.54     179.1  T
  14    -21.4158244 -0.217319E-10  0.561E-05    2.54     445.6  T

   *** convergence criteria satisfied after 14 iterations ***

         #    Occupation            Energy/Eh            Energy/eV
      -------------------------------------------------------------
         1        2.0000           -0.7321462             -19.9227
       ...           ...                  ...                  ...
        14        2.0000           -0.4626256             -12.5887
        15        2.0000           -0.4554838             -12.3943
        16        2.0000           -0.4544793             -12.3670
        17        2.0000           -0.4417978             -12.0219
        18        2.0000           -0.4047510             -11.0138
        19        2.0000           -0.4024319             -10.9507
        20        2.0000           -0.3565417              -9.7020 (HOMO)
        21                         -0.2632670              -7.1639 (LUMO)
        22                         -0.2395395              -6.5182
        23                         -0.0100364              -0.2731
        24                         -0.0029699              -0.0808
        25                          0.0168991               0.4598
       ...                                ...                  ...
        42                          0.5039567              13.7134
      -------------------------------------------------------------
                  HL-Gap            0.0932747 Eh            2.5381 eV
             Fermi-level           -0.3099043 Eh           -8.4329 eV

 SCC (total)                   0 d,  0 h,  0 min,  0.139 sec
 SCC setup                      ...        0 min,  0.000 sec (  0.220%)
 Dispersion                     ...        0 min,  0.038 sec ( 27.394%)
 classical contributions        ...        0 min,  0.000 sec (  0.034%)
 integral evaluation            ...        0 min,  0.017 sec ( 12.089%)
 iterations                     ...        0 min,  0.006 sec (  4.200%)
 molecular gradient             ...        0 min,  0.078 sec ( 55.880%)
 printout                       ...        0 min,  0.000 sec (  0.157%)

         :::::::::::::::::::::::::::::::::::::::::::::::::::::
         ::                     SUMMARY                     ::
         :::::::::::::::::::::::::::::::::::::::::::::::::::::
         :: total energy             -21.149810812304 Eh    ::
         :: gradient norm              0.003017090491 Eh/a0 ::
         :: HOMO-LUMO gap              2.538133972528 eV    ::
         ::.................................................::
         :: SCC energy               -21.415792465453 Eh    ::
         :: -> isotropic ES            0.005121124139 Eh    ::
         :: -> anisotropic ES          0.002754506588 Eh    ::
         :: -> anisotropic XC          0.009441919687 Eh    ::
         :: -> dispersion             -0.013942111702 Eh    ::
         :: repulsion energy           0.265981653149 Eh    ::
         :: add. restraining           0.000000000000 Eh    ::
         :: total charge              -0.000000000000 e     ::
         :::::::::::::::::::::::::::::::::::::::::::::::::::::


Property printout bound to 'properties.out'

           -------------------------------------------------
          | TOTAL ENERGY              -21.149810812304 Eh   |
          | GRADIENT NORM               0.003017090491 Eh/α |
          | HOMO-LUMO GAP               2.538133972528 eV   |
           -------------------------------------------------

------------------------------------------------------------------------
 * finished run on 2026/03/16 at 14:18:23.852     
------------------------------------------------------------------------
 total:
 * wall-time:     0 d,  0 h,  0 min,  0.166 sec
 *  cpu-time:     0 d,  0 h,  0 min,  0.294 sec
 * ratio c/w:     1.774 speedup
 SCF:
 * wall-time:     0 d,  0 h,  0 min,  0.140 sec
 *  cpu-time:     0 d,  0 h,  0 min,  0.211 sec
 * ratio c/w:     1.513 speedup


-------------------------   --------------------
FINAL SINGLE POINT ENERGY       -21.149810812300
-------------------------   --------------------


-------------
DIPOLE MOMENT
-------------
                                X             Y             Z
Total Dipole Moment    :      0.11300      -1.53700      -0.22200
                        -----------------------------------------
Magnitude (a.u.)       :      1.55706
Magnitude (Debye)      :      3.95772


------------------
CARTESIAN GRADIENT
------------------

   1   C   :    0.000133959   -0.000283506   -0.000115800
   2   C   :    0.000103977   -0.000224901   -0.000116808
   3   C   :   -0.000047117   -0.000093783   -0.000141142
   4   C   :   -0.000044081    0.000232617   -0.000139318
   5   C   :    0.000115072   -0.000176330    0.000023983
   6   C   :   -0.000173608    0.000226391    0.000132646
   7   H   :    0.000188979   -0.000313790   -0.000037104
   8   H   :    0.000148363   -0.000300491   -0.000196733
   9   H   :    0.000169410   -0.000202816   -0.000417995
  10   H   :   -0.000214492   -0.000137587   -0.000224088
  11   H   :   -0.000377382    0.000508297   -0.000200874
  12   H   :    0.000281342    0.000440817   -0.000137089
  13   H   :   -0.000444448    0.001205906   -0.000531134
  14   H   :   -0.000742548    0.000323401    0.001260931
  15   H   :    0.000275335   -0.000627632   -0.000462201
  16   I   :    0.000627239   -0.000576594    0.001302726

Difference to translation invariance:
           :   -0.0000000000   -0.0000000000    0.0000000000

Difference to rotation invariance:
           :    0.0000001394    0.0000001449   -0.0000002434

Norm of the Cartesian gradient     ...    0.0030170905
RMS gradient                       ...    0.0004354795
MAX gradient                       ...    0.0013027257
------------------------------------------------------------------------------
                         ORCA GEOMETRY RELAXATION STEP
------------------------------------------------------------------------------

Reading the OPT-File                    .... done
Getting information on internals        .... done
Copying old internal coords+grads       .... done
Making the new internal coordinates     .... (2022 redundants) done
Validating the new internal coordinates .... (2022 redundants) done
Calculating the B-matrix                .... done
Calculating the G,G- and P matrices     .... done
Transforming gradient to internals      .... done
Projecting the internal gradient        .... done
Number of atoms                         ....  16
Number of internal coordinates          ....  78
Current Energy                          ....   -21.149810812 Eh
Current gradient norm                   ....     0.003017090 Eh/bohr
Maximum allowed component of the step   ....  0.300
Current trust radius                    ....  0.300
Evaluating the initial hessian          ....  (Almloef) done
Projecting the Hessian                  .... done
Forming the augmented Hessian           .... done
Diagonalizing the augmented Hessian     .... done
Last element of RFO vector              ....  0.962701257
Lowest eigenvalues of augmented Hessian:
 -0.001126928  0.013074811  0.017297077  0.032905599  0.047046138
Length of the computed step             ....  0.281049398
The final length of the internal step   ....  0.281049398
Converting the step to Cartesian space:
 Initial RMS(Int)=    0.0318225779
Transforming coordinates:
 Iter   0:  RMS(Cart)=    0.0582048852 RMS(Int)=    0.0316639357
 Iter   5:  RMS(Cart)=    0.0000000127 RMS(Int)=    0.0000000098
done
Storing new coordinates                 .... done

                                .--------------------.
          ----------------------|Geometry convergence|-------------------------
          Item                value                   Tolerance       Converged
          ---------------------------------------------------------------------
          RMS gradient        0.0006370184            0.0001000000      NO
          MAX gradient        0.0022443291            0.0003000000      NO
          RMS step            0.0318225779            0.0020000000      NO
          MAX step            0.0975633947            0.0040000000      NO
          -------------------------------------------------------------------------
          ........................................................
          Max(Bonds)      0.0023      Max(Angles)    0.65
          Max(Dihed)        5.59      Max(Improp)    0.00
          ---------------------------------------------------------------------

The optimization has not yet converged - more geometry cycles are needed


    ---------------------------------------------------------------------------
                         Redundant Internal Coordinates
                            (Angstroem and degrees)

        Definition                    Value    dE/dq     Step     New-Value
    ----------------------------------------------------------------------------
     1. B(C   1,C   0)                1.4783  0.000491  0.0004    1.4787   
     2. B(C   2,C   1)                1.3607  0.000306  0.0004    1.3611   
     3. B(C   3,C   2)                1.4760  0.000485  0.0002    1.4762   
     4. B(C   4,C   3)                1.5849  0.000657 -0.0023    1.5826   
     5. B(C   5,C   4)                1.5522  0.000124 -0.0017    1.5505   
     6. B(C   5,C   0)                1.5830  0.000166 -0.0010    1.5820   
     7. B(H   6,C   0)                1.0897  0.000109 -0.0002    1.0896   
     8. B(H   7,C   0)                1.0887 -0.000321  0.0005    1.0891   
     9. B(H   8,C   1)                1.0856  0.000273 -0.0004    1.0852   
    10. B(H   9,C   2)                1.0854 -0.000034  0.0000    1.0854   
    11. B(H  10,C   3)                1.0900  0.000130 -0.0002    1.0898   
    12. B(H  11,C   3)                1.0908 -0.000222  0.0003    1.0911   
    13. B(H  12,C   5)                1.0910  0.000262 -0.0004    1.0907   
    14. B(H  13,C   5)                1.0931 -0.000221  0.0003    1.0934   
    15. B(H  14,C   4)                1.0908  0.000115 -0.0002    1.0906   
    16. B(I  15,C   4)                2.1831 -0.000146  0.0007    2.1837   
    17. A(C   5,C   0,H   7)          109.98  0.000198    0.02    110.01   
    18. A(C   1,C   0,C   5)           97.53  0.000228   -0.30     97.23   
    19. A(H   6,C   0,H   7)          109.98  0.000117    0.02    110.00   
    20. A(C   1,C   0,H   6)          116.45  0.000026   -0.04    116.41   
    21. A(C   5,C   0,H   6)          109.49 -0.000154    0.03    109.52   
    22. A(C   1,C   0,H   7)          112.66 -0.000389    0.24    112.90   
    23. A(C   0,C   1,C   2)          111.49 -0.000662    0.26    111.76   
    24. A(C   2,C   1,H   8)          118.32  0.000167   -0.15    118.18   
    25. A(C   0,C   1,H   8)          115.41  0.000542   -0.29    115.12   
    26. A(C   1,C   2,C   3)          111.35 -0.000025    0.03    111.37   
    27. A(C   3,C   2,H   9)          115.05  0.000310   -0.16    114.89   
    28. A(C   1,C   2,H   9)          117.90 -0.000194    0.03    117.94   
    29. A(C   2,C   3,C   4)           98.84  0.000286   -0.45     98.40   
    30. A(H  10,C   3,H  11)          109.59  0.000042    0.09    109.69   
    31. A(C   2,C   3,H  11)          112.81 -0.000523    0.22    113.03   
    32. A(C   4,C   3,H  10)          110.51 -0.000183    0.01    110.52   
    33. A(C   2,C   3,H  10)          116.17  0.000080    0.05    116.22   
    34. A(C   4,C   3,H  11)          108.22  0.000349    0.03    108.25   
    35. A(H  14,C   4,I  15)          103.33 -0.001576    0.65    103.97   
    36. A(C   5,C   4,I  15)          109.56  0.000965   -0.17    109.38   
    37. A(C   3,C   4,I  15)          108.63  0.000273   -0.24    108.38   
    38. A(C   3,C   4,H  14)          108.16  0.000008    0.31    108.47   
    39. A(C   5,C   4,H  14)          107.88  0.000362    0.20    108.09   
    40. A(C   3,C   4,C   5)          118.26 -0.000253   -0.57    117.69   
    41. A(H  12,C   5,H  13)          107.24 -0.002238    0.49    107.72   
    42. A(C   4,C   5,H  13)          107.14  0.000803   -0.10    107.04   
    43. A(C   0,C   5,C   4)          118.20  0.000383   -0.59    117.61   
    44. A(C   0,C   5,H  13)          107.09  0.001053   -0.14    106.95   
    45. A(C   4,C   5,H  12)          108.83 -0.000535    0.22    109.05   
    46. A(C   0,C   5,H  12)          107.86  0.000246    0.22    108.08   
    47. D(C   2,C   1,C   0,C   5)    -67.39 -0.000068   -0.18    -67.56   
    48. D(C   2,C   1,C   0,H   6)    176.40 -0.000038   -0.00    176.40   
    49. D(H   8,C   1,C   0,H   6)    -44.87  0.000070   -0.26    -45.13   
    50. D(C   2,C   1,C   0,H   7)     48.00  0.000143   -0.22     47.77   
    51. D(H   8,C   1,C   0,C   5)     71.34  0.000041   -0.43     70.91   
    52. D(C   3,C   2,C   1,C   0)     92.56  0.000230   -0.77     91.79   
    53. D(H   9,C   2,C   1,H   8)    178.99 -0.000286   -0.26    178.73   
    54. D(C   3,C   2,C   1,H   8)    -44.84 -0.000038   -0.45    -45.29   
    55. D(H   9,C   2,C   1,C   0)    -43.61 -0.000018   -0.58    -44.19   
    56. D(H  10,C   3,C   2,C   1)    177.70 -0.000079   -0.59    177.11   
    57. D(H  10,C   3,C   2,H   9)    -44.79 -0.000069   -0.69    -45.48   
    58. D(H  11,C   3,C   2,C   1)     49.97  0.000283   -0.98     48.99   
    59. D(C   4,C   3,C   2,H   9)     73.34 -0.000070   -0.94     72.40   
    60. D(C   4,C   3,C   2,C   1)    -64.16 -0.000080   -0.85    -65.01   
    61. D(H  14,C   4,C   3,H  11)     42.52 -0.000359    3.37     45.89   
    62. D(C   5,C   4,C   3,C   2)     37.28 -0.000998    3.29     40.57   
    63. D(H  14,C   4,C   3,H  10)    -77.49 -0.000519    3.23    -74.26   
    64. D(H  14,C   4,C   3,C   2)    160.18 -0.000688    3.41    163.60   
    65. D(C   5,C   4,C   3,H  11)    -80.38 -0.000669    3.24    -77.14   
    66. D(C   5,C   4,C   3,H  10)    159.61 -0.000828    3.11    162.72   
    67. D(H  12,C   5,C   4,C   3)   -155.54  0.001029   -4.63   -160.17   
    68. D(C   0,C   5,C   4,I  15)     93.01  0.002244   -5.55     87.46   
    69. D(C   0,C   5,C   4,H  14)   -155.18  0.001060   -4.77   -159.95   
    70. D(C   0,C   5,C   4,C   3)    -32.14  0.001193   -4.59    -36.73   
    71. D(H  12,C   5,C   0,H   7)     46.09 -0.000220    2.48     48.57   
    72. D(H  12,C   5,C   0,H   6)    -74.86 -0.000392    2.42    -72.44   
    73. D(H  12,C   5,C   0,C   1)    163.58 -0.000478    2.61    166.19   
    74. D(C   4,C   5,C   0,H   7)    -77.79  0.000009    2.43    -75.36   
    75. D(C   4,C   5,C   0,H   6)    161.26 -0.000164    2.38    163.63   
    76. D(H  12,C   5,C   4,H  14)     81.42  0.000896   -4.81     76.61   
    77. D(C   4,C   5,C   0,C   1)     39.70 -0.000250    2.56     42.26   
    78. D(H  12,C   5,C   4,I  15)    -30.39  0.002080   -5.59    -35.98   
    ----------------------------------------------------------------------------

Geometry step timings:
Preparation and reading OPT file:      0.000 s ( 1.108 %)
Internal coordinates            :      0.000 s ( 1.804 %)
B/P matrices and projection     :      0.001 s (12.581 %)
Hessian update/contruction      :      0.002 s (37.549 %)
Making the step                 :      0.001 s (12.973 %)
Converting the step to Cartesian:      0.000 s ( 2.955 %)
Storing new data                :      0.000 s ( 3.107 %)
Checking convergence            :      0.000 s ( 3.412 %)
Final printing                  :      0.001 s (24.402 %)
Total time                      :      0.005 s

Time for energy+gradient        :      0.179 s
Time for complete geometry iter :      0.185 s

         *************************************************************
         *                GEOMETRY OPTIMIZATION CYCLE   2            *
         *************************************************************
---------------------------------
CARTESIAN COORDINATES (ANGSTROEM)
---------------------------------
  C     0.238272    0.226838    0.443705
  C     1.344757    0.108648   -0.530150
  C     2.158466    1.199460   -0.503819
  C     3.282804    1.009212    0.433724
  C     2.451286    0.932896    1.778048
  C     1.118389    0.141290    1.755467
  H    -0.495208   -0.578854    0.444151
  H    -0.267014    1.190485    0.396171
  H     1.804798   -0.872540   -0.588035
  H     1.693827    2.179737   -0.467077
  H     4.012493    1.817250    0.481070
  H     3.797328    0.056987    0.295603
  H     0.502086    0.457212    2.598027
  H     1.369009   -0.912707    1.903039
  H     3.086804    0.504386    2.553899
  I     2.073475    2.969051    2.470938

----------------------------
CARTESIAN COORDINATES (A.U.)
----------------------------
  NO LB    ZA    FRAG    MASS        X           Y           Z
   0 C   6.0000    0    12.011    0.450269    0.428661    0.838481
   1 C   6.0000    0    12.011    2.541223    0.205315   -1.001838
   2 C   6.0000    0    12.011    4.078909    2.266650   -0.952080
   3 C   6.0000    0    12.011    6.203600    1.907134    0.819620
   4 C   6.0000    0    12.011    4.632259    1.762919    3.360025
   5 C   6.0000    0    12.011    2.113449    0.266999    3.317352
   6 H   1.0000    0     1.008   -0.935807   -1.093876    0.839323
   7 H   1.0000    0     1.008   -0.504583    2.249690    0.748654
   8 H   1.0000    0     1.008    3.410573   -1.648861   -1.111225
   9 H   1.0000    0     1.008    3.200869    4.119106   -0.882648
  10 H   1.0000    0     1.008    7.582512    3.434105    0.909090
  11 H   1.0000    0     1.008    7.175910    0.107690    0.558608
  12 H   1.0000    0     1.008    0.948805    0.864006    4.909560
  13 H   1.0000    0     1.008    2.587051   -1.724766    3.596222
  14 H   1.0000    0     1.008    5.833214    0.953151    4.826169
  15 I  53.0000    0   126.900    3.918300    5.610693    4.669395

      -----------------------------------------------------------      
     |                   =====================                   |     
     |                           x T B                           |     
     |                   =====================                   |     
     |                         S. Grimme                         |     
     |          Mulliken Center for Theoretical Chemistry        |     
     |                    University of Bonn                     |     
      -----------------------------------------------------------      

   * xtb version 6.7.1 (edcfbbe) compiled by 'albert@albert-system' on 2024-07-22

   xtb is free software: you can redistribute it and/or modify it under
   the terms of the GNU Lesser General Public License as published by
   the Free Software Foundation, either version 3 of the License, or
   (at your option) any later version.
   
   xtb is distributed in the hope that it will be useful,
   but WITHOUT ANY WARRANTY; without even the implied warranty of
   MERCHANTABILITY or FITNESS FOR A PARTICULAR PURPOSE.  See the
   GNU Lesser General Public License for more details.
   
   Cite this work as:
   * C. Bannwarth, E. Caldeweyher, S. Ehlert, A. Hansen, P. Pracht,
     J. Seibert, S. Spicher, S. Grimme, WIREs Comput. Mol. Sci., 2020, 11,
     e01493. DOI: 10.1002/wcms.1493
   
   for GFN2-xTB:
   * C. Bannwarth, S. Ehlert and S. Grimme., J. Chem. Theory Comput., 2019,
     15, 1652-1671. DOI: 10.1021/acs.jctc.8b01176
   for GFN1-xTB:
   * S. Grimme, C. Bannwarth, P. Shushkov, J. Chem. Theory Comput., 2017,
     13, 1989-2009. DOI: 10.1021/acs.jctc.7b00118
   for GFN0-xTB:
   * P. Pracht, E. Caldeweyher, S. Ehlert, S. Grimme, ChemRxiv, 2019, preprint.
     DOI: 10.26434/chemrxiv.8326202.v1
   for GFN-FF:
   * S. Spicher and S. Grimme, Angew. Chem. Int. Ed., 2020, 59, 15665-15673.
     DOI: 10.1002/anie.202004239
   
   for ALPB and GBSA implicit solvation:
   * S. Ehlert, M. Stahn, S. Spicher, S. Grimme, J. Chem. Theory Comput.,
     2021, 17, 4250-4261. DOI: 10.1021/acs.jctc.1c00471
   
   for ddCOSMO and CPCM-X implicit solvation:
   * M. Stahn, S. Ehlert, S. Grimme, J. Phys. Chem. A,
     2023, XX, XXXX-XXXX. DOI: 10.1021/acs.jpca.3c04382
   
   for DFT-D4:
   * E. Caldeweyher, C. Bannwarth and S. Grimme, J. Chem. Phys., 2017,
     147, 034112. DOI: 10.1063/1.4993215
   * E. Caldeweyher, S. Ehlert, A. Hansen, H. Neugebauer, S. Spicher,
     C. Bannwarth and S. Grimme, J. Chem. Phys., 2019, 150, 154122.
     DOI: 10.1063/1.5090222
   * E. Caldeweyher, J.-M. Mewes, S. Ehlert and S. Grimme, Phys. Chem. Chem. Phys.
     2020, 22, 8499-8512. DOI: 10.1039/D0CP00502A
   
   for sTDA-xTB:
   * S. Grimme and C. Bannwarth, J. Chem. Phys., 2016, 145, 054103.
     DOI: 10.1063/1.4959605
   
   in the mass-spec context:
   * V. Asgeirsson, C. Bauer and S. Grimme, Chem. Sci., 2017, 8, 4879.
     DOI: 10.1039/c7sc00601b
   * J. Koopman and S. Grimme, ACS Omega 2019, 4, 12, 15120-15133.
     DOI: 10.1021/acsomega.9b02011
   
   for metadynamics refer to:
   * S. Grimme, J. Chem. Theory Comput., 2019, 155, 2847-2862
     DOI: 10.1021/acs.jctc.9b00143
   
   for SPH calculations refer to:
   * S. Spicher and S. Grimme, J. Chem. Theory Comput., 2021, 17, 1701-1714
     DOI: 10.1021/acs.jctc.0c01306
   
   for ONIOM refer to:
   * C. Plett, A. Katbashev, S. Ehlert, S. Grimme, M. Bursch,
     Phys. Chem. Chem. Phys., 2023, 25, 17860-17868. DOI: 10.1039/D3CP02178E
   
   for DIPRO refer to:
   * J. Kohn, N. Gildemeister, S. Grimme, D. Fazzi, A. Hansen,
     J. Chem. Phys., 2023, just accepted.
   
   for PTB refer to:
   * S. Grimme, M. Mueller, A. Hansen, J. Chem. Phys., 2023, 158, 124111.
     DOI: 10.1063/5.0137838
   
   with help from (in alphabetical order)
   P. Atkinson, C. Bannwarth, F. Bohle, G. Brandenburg, E. Caldeweyher
   M. Checinski, S. Dohm, S. Ehlert, S. Ehrlich, I. Gerasimov, C. Hölzer
   A. Katbashev, J. Kohn, J. Koopman, C. Lavigne, S. Lehtola, F. März, M. Müller,
   F. Musil, H. Neugebauer, J. Pisarek, C. Plett, P. Pracht, F. Pultar,
   J. Seibert, P. Shushkov, S. Spicher, M. Stahn, M. Steiner, T. Strunk,
   J. Stückrath, T. Rose, and J. Unsleber
   
 * started run on 2026/03/16 at 14:18:23.869     
   ID    Z sym.   atoms
    1    6 C      1-6
    2    1 H      7-15
    3   53 I      16

           -------------------------------------------------
          |                Calculation Setup                |
           -------------------------------------------------

          program call               : /software/orca-6.1.0-el8-x86_64/bin/otool_xtb product_optfreq_XTB.xyz --grad -c 0 -u 0 -P 8 --namespace product_optfreq --input product_optfreq_XTB.input.tmp --acc 0.200000
          hostname                   : midway3-login4.rcc.local
          calculation namespace      : product_optfreq
          coordinate file            : product_optfreq_XTB.xyz
          omp threads                :                     8


           -------------------------------------------------
          |                 G F N 2 - x T B                 |
           -------------------------------------------------

        Reference                      10.1021/acs.jctc.8b01176
      * Hamiltonian:
        H0-scaling (s, p, d)           1.850000    2.230000    2.230000
        zeta-weighting                 0.500000
      * Dispersion:
        s8                             2.700000
        a1                             0.520000
        a2                             5.000000
        s9                             5.000000
      * Repulsion:
        kExp                           1.500000    1.000000
        rExp                           1.000000
      * Coulomb:
        alpha                          2.000000
        third order                    shell-resolved
        anisotropic                    true
        a3                             3.000000
        a5                             4.000000
        cn-shift                       1.200000
        cn-exp                         4.000000
        max-rad                        5.000000

q/qsh data taken from xtbrestart
CAMM data taken from xtbrestart

          ...................................................
          :                      SETUP                      :
          :.................................................:
          :  # basis functions                  43          :
          :  # atomic orbitals                  42          :
          :  # shells                           24          :
          :  # electrons                        40          :
          :  max. iterations                   250          :
          :  Hamiltonian                  GFN2-xTB          :
          :  restarted?                       true          :
          :  GBSA solvation                  false          :
          :  PC potential                    false          :
          :  electronic temp.          300.0000000     K    :
          :  accuracy                    0.2000000          :
          :  -> integral cutoff          0.3198970E+02      :
          :  -> integral neglect         0.2000000E-08      :
          :  -> SCF convergence          0.2000000E-06 Eh   :
          :  -> wf. convergence          0.2000000E-04 e    :
          :  Broyden damping             0.4000000          :
          :  net charge                          0          :
          :  unpaired electrons                  0          :
          ...................................................

 iter      E             dE          RMSdq      gap      omega  full diag
   1    -21.4168741 -0.214169E+02  0.461E-01    2.52       0.0  T
   2    -21.4168830 -0.889344E-05  0.232E-01    2.52       1.0  T
   3    -21.4168558  0.272060E-04  0.549E-02    2.52       1.0  T
   4    -21.4168853 -0.295220E-04  0.266E-02    2.52       1.0  T
   5    -21.4168877 -0.230893E-05  0.161E-02    2.52       1.6  T
   6    -21.4168883 -0.612593E-06  0.626E-03    2.52       4.0  T
   7    -21.4168883 -0.441467E-07  0.385E-03    2.52       6.5  T
   8    -21.4168883 -0.160808E-07  0.572E-04    2.52      43.7  T
   9    -21.4168883 -0.899611E-09  0.336E-04    2.52      74.5  T
  10    -21.4168883 -0.101991E-09  0.203E-04    2.52     123.3  T
  11    -21.4168883 -0.425366E-10  0.998E-05    2.52     250.4  T
  12    -21.4168883 -0.132232E-10  0.598E-05    2.52     418.2  T

   *** convergence criteria satisfied after 12 iterations ***

         #    Occupation            Energy/Eh            Energy/eV
      -------------------------------------------------------------
         1        2.0000           -0.7319432             -19.9172
       ...           ...                  ...                  ...
        14        2.0000           -0.4627447             -12.5919
        15        2.0000           -0.4552744             -12.3886
        16        2.0000           -0.4544001             -12.3649
        17        2.0000           -0.4426428             -12.0449
        18        2.0000           -0.4047336             -11.0134
        19        2.0000           -0.4021235             -10.9423
        20        2.0000           -0.3557600              -9.6807 (HOMO)
        21                         -0.2631394              -7.1604 (LUMO)
        22                         -0.2391988              -6.5089
        23                         -0.0072479              -0.1972
        24                         -0.0001172              -0.0032
        25                          0.0163862               0.4459
       ...                                ...                  ...
        42                          0.5037615              13.7080
      -------------------------------------------------------------
                  HL-Gap            0.0926206 Eh            2.5203 eV
             Fermi-level           -0.3094497 Eh           -8.4206 eV

 SCC (total)                   0 d,  0 h,  0 min,  0.152 sec
 SCC setup                      ...        0 min,  0.000 sec (  0.159%)
 Dispersion                     ...        0 min,  0.000 sec (  0.060%)
 classical contributions        ...        0 min,  0.000 sec (  0.021%)
 integral evaluation            ...        0 min,  0.145 sec ( 95.630%)
 iterations                     ...        0 min,  0.005 sec (  3.037%)
 molecular gradient             ...        0 min,  0.001 sec (  0.944%)
 printout                       ...        0 min,  0.000 sec (  0.130%)

         :::::::::::::::::::::::::::::::::::::::::::::::::::::
         ::                     SUMMARY                     ::
         :::::::::::::::::::::::::::::::::::::::::::::::::::::
         :: total energy             -21.150734308063 Eh    ::
         :: gradient norm              0.003401955370 Eh/a0 ::
         :: HOMO-LUMO gap              2.520334467909 eV    ::
         ::.................................................::
         :: SCC energy               -21.416856959010 Eh    ::
         :: -> isotropic ES            0.005129340161 Eh    ::
         :: -> anisotropic ES          0.002728785869 Eh    ::
         :: -> anisotropic XC          0.009358331057 Eh    ::
         :: -> dispersion             -0.014020649460 Eh    ::
         :: repulsion energy           0.266122650947 Eh    ::
         :: add. restraining           0.000000000000 Eh    ::
         :: total charge               0.000000000000 e     ::
         :::::::::::::::::::::::::::::::::::::::::::::::::::::


Property printout bound to 'properties.out'

           -------------------------------------------------
          | TOTAL ENERGY              -21.150734308063 Eh   |
          | GRADIENT NORM               0.003401955370 Eh/α |
          | HOMO-LUMO GAP               2.520334467909 eV   |
           -------------------------------------------------

------------------------------------------------------------------------
 * finished run on 2026/03/16 at 14:18:24.064     
------------------------------------------------------------------------
 total:
 * wall-time:     0 d,  0 h,  0 min,  0.194 sec
 *  cpu-time:     0 d,  0 h,  0 min,  0.464 sec
 * ratio c/w:     2.387 speedup
 SCF:
 * wall-time:     0 d,  0 h,  0 min,  0.152 sec
 *  cpu-time:     0 d,  0 h,  0 min,  0.375 sec
 * ratio c/w:     2.468 speedup


-------------------------   --------------------
FINAL SINGLE POINT ENERGY       -21.150734308060
-------------------------   --------------------


-------------
DIPOLE MOMENT
-------------
                                X             Y             Z
Total Dipole Moment    :      0.17000      -1.56600      -0.15600
                        -----------------------------------------
Magnitude (a.u.)       :      1.58291
Magnitude (Debye)      :      4.02343


------------------
CARTESIAN GRADIENT
------------------

   1   C   :    0.000233030   -0.000676972   -0.000356829
   2   C   :   -0.000114091   -0.000564310    0.000210036
   3   C   :    0.000589133    0.000527989    0.000846554
   4   C   :    0.000047026    0.000134849   -0.000639961
   5   C   :    0.000806049   -0.000107458    0.000235101
   6   C   :   -0.000981135   -0.000162019    0.001228528
   7   H   :    0.000283676   -0.000246497   -0.000034763
   8   H   :   -0.000091656   -0.000079789   -0.000064338
   9   H   :   -0.000030145    0.000177585   -0.000274995
  10   H   :   -0.000172057    0.000042476    0.000159862
  11   H   :   -0.000554241    0.000291972   -0.000352754
  12   H   :    0.000413931    0.000118739    0.000057920
  13   H   :   -0.000728809    0.001023879   -0.000878426
  14   H   :   -0.000380620    0.000075201    0.000306885
  15   H   :    0.000368851   -0.000902692   -0.000803065
  16   I   :    0.000311057    0.000347046    0.000360247

Difference to translation invariance:
           :   -0.0000000000    0.0000000000    0.0000000000

Difference to rotation invariance:
           :    0.0000000429    0.0000000248   -0.0000000089

Norm of the Cartesian gradient     ...    0.0034019554
RMS gradient                       ...    0.0004910300
MAX gradient                       ...    0.0012285278
------------------------------------------------------------------------------
                         ORCA GEOMETRY RELAXATION STEP
------------------------------------------------------------------------------

Reading the OPT-File                    .... done
Getting information on internals        .... done
Copying old internal coords+grads       .... done
Making the new internal coordinates     .... (2022 redundants) done
Validating the new internal coordinates .... (2022 redundants) done
Calculating the B-matrix                .... done
Calculating the G,G- and P matrices     .... done
Transforming gradient to internals      .... done
Projecting the internal gradient        .... done
Number of atoms                         ....  16
Number of internal coordinates          ....  78
Current Energy                          ....   -21.150734308 Eh
Current gradient norm                   ....     0.003401955 Eh/bohr
Maximum allowed component of the step   ....  0.300
Current trust radius                    ....  0.300
Updating the Hessian (BFGS)             .... done
Forming the augmented Hessian           .... done
Diagonalizing the augmented Hessian     .... done
Last element of RFO vector              ....  0.910279167
Lowest eigenvalues of augmented Hessian:
 -0.001178729  0.005531980  0.018289914  0.032919674  0.046954960
Length of the computed step             ....  0.454800008
Warning: the length of the step is outside the trust region - taking restricted step instead
The input lambda is                     ....     0.003383
   iter:   5  x=   -0.001866  g=  128.690744 f(x)=     0.208244
   iter:  10  x=   -0.004054  g=   21.285424 f(x)=     0.000000
The output lambda is                    ....    -0.004054 (11 iterations)
The final length of the internal step   ....  0.300000000
Converting the step to Cartesian space:
 Initial RMS(Int)=    0.0339683110
Transforming coordinates:
 Iter   0:  RMS(Cart)=    0.0600960689 RMS(Int)=    0.0337348978
 Iter   5:  RMS(Cart)=    0.0000000154 RMS(Int)=    0.0000000120
done
Storing new coordinates                 .... done
The predicted energy change is          ....    -0.000575657
Previously predicted energy change      ....    -0.000607971
Actually observed energy change         ....    -0.000923496
Ratio of predicted to observed change   ....     1.518979441
New trust radius                        ....     0.200000000

                                .--------------------.
          ----------------------|Geometry convergence|-------------------------
          Item                value                   Tolerance       Converged
          ---------------------------------------------------------------------
          Energy change      -0.0009234958            0.0000050000      NO
          RMS gradient        0.0004065017            0.0001000000      NO
          MAX gradient        0.0011950945            0.0003000000      NO
          RMS step            0.0339683110            0.0020000000      NO
          MAX step            0.0974374182            0.0040000000      NO
          -------------------------------------------------------------------------
          ........................................................
          Max(Bonds)      0.0054      Max(Angles)    0.69
          Max(Dihed)        5.58      Max(Improp)    0.00
          ---------------------------------------------------------------------

The optimization has not yet converged - more geometry cycles are needed


    ---------------------------------------------------------------------------
                         Redundant Internal Coordinates
                            (Angstroem and degrees)

        Definition                    Value    dE/dq     Step     New-Value
    ----------------------------------------------------------------------------
     1. B(C   1,C   0)                1.4787 -0.000031  0.0010    1.4797   
     2. B(C   2,C   1)                1.3611  0.000666 -0.0001    1.3611   
     3. B(C   3,C   2)                1.4763 -0.000491  0.0022    1.4785   
     4. B(C   4,C   3)                1.5825  0.000225 -0.0019    1.5807   
     5. B(C   5,C   4)                1.5504  0.001195 -0.0054    1.5450   
     6. B(C   5,C   0)                1.5820 -0.000225 -0.0010    1.5810   
     7. B(H   6,C   0)                1.0896 -0.000009 -0.0000    1.0895   
     8. B(H   7,C   0)                1.0891 -0.000025  0.0002    1.0893   
     9. B(H   8,C   1)                1.0852 -0.000159  0.0003    1.0855   
    10. B(H   9,C   2)                1.0854  0.000117 -0.0003    1.0852   
    11. B(H  10,C   3)                1.0898 -0.000170  0.0004    1.0902   
    12. B(H  11,C   3)                1.0911  0.000084 -0.0002    1.0910   
    13. B(H  12,C   5)                1.0907  0.000030 -0.0002    1.0905   
    14. B(H  13,C   5)                1.0934 -0.000118  0.0004    1.0938   
    15. B(H  14,C   4)                1.0906 -0.000002 -0.0000    1.0906   
    16. B(I  15,C   4)                2.1837  0.000384 -0.0029    2.1808   
    17. A(C   5,C   0,H   7)          110.01 -0.000001    0.08    110.08   
    18. A(C   1,C   0,C   5)           97.21  0.000164   -0.43     96.78   
    19. A(H   6,C   0,H   7)          110.00  0.000073    0.03    110.03   
    20. A(C   1,C   0,H   6)          116.42  0.000099   -0.05    116.36   
    21. A(C   5,C   0,H   6)          109.52  0.000006    0.02    109.54   
    22. A(C   1,C   0,H   7)          112.90 -0.000328    0.32    113.22   
    23. A(C   0,C   1,C   2)          111.75 -0.000158    0.21    111.96   
    24. A(C   2,C   1,H   8)          118.18 -0.000146   -0.14    118.04   
    25. A(C   0,C   1,H   8)          115.12  0.000474   -0.39    114.73   
    26. A(C   1,C   2,C   3)          111.37  0.000202    0.08    111.45   
    27. A(C   3,C   2,H   9)          114.89  0.000101   -0.16    114.73   
    28. A(C   1,C   2,H   9)          117.94 -0.000122    0.00    117.94   
    29. A(C   2,C   3,C   4)           98.37 -0.000381   -0.09     98.28   
    30. A(H  10,C   3,H  11)          109.68 -0.000012   -0.02    109.67   
    31. A(C   2,C   3,H  11)          113.03  0.000129    0.01    113.05   
    32. A(C   4,C   3,H  10)          110.53  0.000078   -0.00    110.53   
    33. A(C   2,C   3,H  10)          116.23 -0.000177    0.18    116.41   
    34. A(C   4,C   3,H  11)          108.25  0.000385   -0.12    108.14   
    35. A(H  14,C   4,I  15)          103.97 -0.000245    0.28    104.25   
    36. A(C   5,C   4,I  15)          109.39  0.000820   -0.26    109.12   
    37. A(C   3,C   4,I  15)          108.39 -0.000765    0.23    108.62   
    38. A(C   3,C   4,H  14)          108.49 -0.000287    0.42    108.90   
    39. A(C   5,C   4,H  14)          108.10  0.000146    0.13    108.23   
    40. A(C   3,C   4,C   5)          117.64  0.000265   -0.67    116.98   
    41. A(H  12,C   5,H  13)          107.73 -0.000657    0.40    108.12   
    42. A(C   4,C   5,H  13)          107.05  0.000487   -0.11    106.94   
    43. A(C   0,C   5,C   4)          117.57 -0.000142   -0.69    116.87   
    44. A(C   0,C   5,H  13)          106.95  0.000162   -0.01    106.94   
    45. A(C   4,C   5,H  12)          109.07  0.000396    0.04    109.10   
    46. A(C   0,C   5,H  12)          108.09 -0.000311    0.46    108.55   
    47. D(C   2,C   1,C   0,C   5)    -67.56  0.000198   -0.77    -68.33   
    48. D(C   2,C   1,C   0,H   6)    176.41  0.000052   -0.50    175.90   
    49. D(H   8,C   1,C   0,H   6)    -45.13  0.000175   -0.93    -46.06   
    50. D(C   2,C   1,C   0,H   7)     47.77  0.000172   -0.80     46.97   
    51. D(H   8,C   1,C   0,C   5)     70.91  0.000320   -1.19     69.72   
    52. D(C   3,C   2,C   1,C   0)     91.79  0.000600   -1.26     90.53   
    53. D(H   9,C   2,C   1,H   8)    178.73 -0.000068   -0.55    178.18   
    54. D(C   3,C   2,C   1,H   8)    -45.29  0.000192   -0.71    -46.00   
    55. D(H   9,C   2,C   1,C   0)    -44.19  0.000340   -1.10    -45.29   
    56. D(H  10,C   3,C   2,C   1)    177.12 -0.000088   -0.07    177.04   
    57. D(H  10,C   3,C   2,H   9)    -45.48  0.000057   -0.15    -45.63   
    58. D(H  11,C   3,C   2,C   1)     48.98 -0.000030   -0.23     48.75   
    59. D(C   4,C   3,C   2,H   9)     72.40 -0.000168   -0.13     72.27   
    60. D(C   4,C   3,C   2,C   1)    -65.00 -0.000313   -0.06    -65.06   
    61. D(H  14,C   4,C   3,H  11)     45.89 -0.000255    3.04     48.93   
    62. D(C   5,C   4,C   3,C   2)     40.57 -0.000303    2.94     43.51   
    63. D(H  14,C   4,C   3,H  10)    -74.26 -0.000527    3.14    -71.12   
    64. D(H  14,C   4,C   3,C   2)    163.59 -0.000153    2.98    166.57   
    65. D(C   5,C   4,C   3,H  11)    -77.13 -0.000405    3.00    -74.13   
    66. D(C   5,C   4,C   3,H  10)    162.72 -0.000677    3.10    165.82   
    67. D(H  12,C   5,C   4,C   3)   -160.17  0.000958   -5.14   -165.31   
    68. D(C   0,C   5,C   4,I  15)     87.45  0.000638   -5.45     82.00   
    69. D(C   0,C   5,C   4,H  14)   -159.95  0.000837   -5.18   -165.13   
    70. D(C   0,C   5,C   4,C   3)    -36.73  0.000767   -5.00    -41.73   
    71. D(H  12,C   5,C   0,H   7)     48.57 -0.000135    3.16     51.74   
    72. D(H  12,C   5,C   0,H   6)    -72.44 -0.000229    3.07    -69.37   
    73. D(H  12,C   5,C   0,C   1)    166.19 -0.000423    3.34    169.52   
    74. D(C   4,C   5,C   0,H   7)    -75.36 -0.000301    3.23    -72.12   
    75. D(C   4,C   5,C   0,H   6)    163.63 -0.000396    3.14    166.77   
    76. D(H  12,C   5,C   4,H  14)     76.61  0.001029   -5.32     71.30   
    77. D(C   4,C   5,C   0,C   1)     42.26 -0.000589    3.41     45.66   
    78. D(H  12,C   5,C   4,I  15)    -35.99  0.000830   -5.58    -41.57   
    ----------------------------------------------------------------------------

Geometry step timings:
Preparation and reading OPT file:      0.000 s ( 0.063 %)
Internal coordinates            :      0.000 s ( 0.080 %)
B/P matrices and projection     :      0.001 s ( 0.750 %)
Hessian update/contruction      :      0.003 s ( 3.223 %)
Making the step                 :      0.073 s (93.695 %)
Converting the step to Cartesian:      0.000 s ( 0.149 %)
Storing new data                :      0.000 s ( 0.186 %)
Checking convergence            :      0.000 s ( 0.155 %)
Final printing                  :      0.001 s ( 1.698 %)
Total time                      :      0.078 s

Time for energy+gradient        :      0.206 s
Time for complete geometry iter :      0.285 s

         *************************************************************
         *                GEOMETRY OPTIMIZATION CYCLE   3            *
         *************************************************************
---------------------------------
CARTESIAN COORDINATES (ANGSTROEM)
---------------------------------
  C     0.237952    0.250571    0.458612
  C     1.333331    0.122005   -0.528081
  C     2.168023    1.197033   -0.504240
  C     3.285132    0.992658    0.442712
  C     2.442589    0.943671    1.779119
  C     1.137426    0.117724    1.751859
  H    -0.513053   -0.538781    0.453827
  H    -0.246249    1.226113    0.438276
  H     1.776798   -0.867000   -0.588261
  H     1.722566    2.186087   -0.474324
  H     4.032237    1.785166    0.490167
  H     3.780137    0.028516    0.317743
  H     0.533726    0.374041    2.623090
  H     1.424182   -0.934579    1.834071
  H     3.073541    0.559586    2.581464
  I     1.983234    2.986538    2.388726

----------------------------
CARTESIAN COORDINATES (A.U.)
----------------------------
  NO LB    ZA    FRAG    MASS        X           Y           Z
   0 C   6.0000    0    12.011    0.449664    0.473510    0.866651
   1 C   6.0000    0    12.011    2.519631    0.230557   -0.997928
   2 C   6.0000    0    12.011    4.096969    2.262065   -0.952876
   3 C   6.0000    0    12.011    6.207999    1.875852    0.836605
   4 C   6.0000    0    12.011    4.615824    1.783280    3.362048
   5 C   6.0000    0    12.011    2.149424    0.222466    3.310533
   6 H   1.0000    0     1.008   -0.969530   -1.018149    0.857608
   7 H   1.0000    0     1.008   -0.465344    2.317018    0.828222
   8 H   1.0000    0     1.008    3.357661   -1.638392   -1.111653
   9 H   1.0000    0     1.008    3.255177    4.131106   -0.896343
  10 H   1.0000    0     1.008    7.619823    3.373475    0.926281
  11 H   1.0000    0     1.008    7.143424    0.053888    0.600447
  12 H   1.0000    0     1.008    1.008596    0.706835    4.956921
  13 H   1.0000    0     1.008    2.691314   -1.766098    3.465891
  14 H   1.0000    0     1.008    5.808150    1.057464    4.878261
  15 I  53.0000    0   126.900    3.747769    5.643739    4.514037

      -----------------------------------------------------------      
     |                   =====================                   |     
     |                           x T B                           |     
     |                   =====================                   |     
     |                         S. Grimme                         |     
     |          Mulliken Center for Theoretical Chemistry        |     
     |                    University of Bonn                     |     
      -----------------------------------------------------------      

   * xtb version 6.7.1 (edcfbbe) compiled by 'albert@albert-system' on 2024-07-22

   xtb is free software: you can redistribute it and/or modify it under
   the terms of the GNU Lesser General Public License as published by
   the Free Software Foundation, either version 3 of the License, or
   (at your option) any later version.
   
   xtb is distributed in the hope that it will be useful,
   but WITHOUT ANY WARRANTY; without even the implied warranty of
   MERCHANTABILITY or FITNESS FOR A PARTICULAR PURPOSE.  See the
   GNU Lesser General Public License for more details.
   
   Cite this work as:
   * C. Bannwarth, E. Caldeweyher, S. Ehlert, A. Hansen, P. Pracht,
     J. Seibert, S. Spicher, S. Grimme, WIREs Comput. Mol. Sci., 2020, 11,
     e01493. DOI: 10.1002/wcms.1493
   
   for GFN2-xTB:
[...]
     44      -0.183063   0.217824  -0.076205   0.136557   0.011679  -0.013963
     45       0.000096   0.000042  -0.000017   0.000017   0.000048   0.000053
     46       0.000073  -0.000273   0.000122   0.000073   0.000280   0.000034
     47       0.000003  -0.000100  -0.000098   0.000169  -0.000092  -0.000073
                 36         37         38         39         40         41    
      0       0.086138  -0.047424   0.035682  -0.002610  -0.000760   0.003732
      1      -0.011865   0.006970   0.032532  -0.006886   0.002869   0.003532
      2      -0.012490   0.011019  -0.046731  -0.000090   0.000081   0.000338
      3      -0.008379  -0.005024  -0.343888   0.001356  -0.000249   0.004089
      4      -0.000664  -0.017378  -0.324750  -0.003557   0.001133  -0.008311
      5       0.014182  -0.009160   0.057978  -0.000026   0.000112  -0.000798
      6      -0.006755   0.011800   0.338512   0.000097  -0.000692   0.002495
      7      -0.003957   0.018952   0.318187  -0.000364   0.001233  -0.004284
      8      -0.005917  -0.000612   0.067618   0.000107   0.000127   0.000203
      9       0.025052   0.017205  -0.029475  -0.001197  -0.006917  -0.005697
     10      -0.001383  -0.004937  -0.026261  -0.003474   0.004979   0.085944
     11       0.004348   0.000377  -0.043318   0.000409   0.002206   0.008590
     12      -0.000857   0.000862   0.009995   0.015112   0.043319  -0.003300
     13      -0.003757  -0.003707   0.001679  -0.005606  -0.023980   0.003844
     14       0.002902   0.002260  -0.015303   0.019599   0.054974  -0.002663
     15      -0.012039  -0.023997  -0.010375  -0.027495   0.015418  -0.004990
     16      -0.023982  -0.045983   0.002891   0.070785  -0.024690   0.004077
     17       0.023308   0.047895  -0.023703   0.008878  -0.010892   0.005967
     18      -0.412852   0.234143   0.050736   0.046444  -0.004950  -0.046404
     19       0.425763  -0.243263  -0.005195   0.044458  -0.002533  -0.049813
     20      -0.005170   0.000465  -0.130322   0.000025   0.000016  -0.000951
     21      -0.544983   0.300371  -0.124209  -0.030294   0.017290   0.001430
     22      -0.281240   0.152507  -0.044963   0.056497  -0.036996   0.004223
     23       0.024342   0.006050   0.127954  -0.003075   0.000714  -0.000590
     24       0.020637   0.001939   0.463854  -0.015834   0.004950  -0.044248
     25       0.011713  -0.018451   0.029027   0.038645  -0.012899   0.097289
     26      -0.012900   0.027726  -0.061663   0.002693  -0.001022   0.008618
     27       0.028713  -0.022362  -0.439455  -0.002384   0.003499  -0.038028
     28       0.009719   0.003040  -0.013006   0.005399  -0.010014   0.082671
     29       0.003139   0.014908  -0.044187  -0.000679  -0.000438  -0.000465
     30      -0.117009  -0.101676  -0.060863   0.025830   0.040791  -0.316870
     31       0.118561   0.098345   0.029069   0.027619   0.051951  -0.298918
     32       0.025184   0.007201  -0.126521   0.001937   0.004362  -0.015239
     33      -0.155585  -0.114821   0.100129  -0.006498   0.055284   0.394305
     34      -0.081260  -0.063869   0.021867   0.011716  -0.119383  -0.773531
     35      -0.013482   0.010600   0.124296   0.000619  -0.015412  -0.098676
     36       0.008226  -0.032859   0.016312   0.090496  -0.108344   0.054736
     37       0.306795   0.579563  -0.112265  -0.004623   0.037384  -0.021299
     38      -0.074032  -0.163636   0.030646  -0.148169   0.165805  -0.079602
     39       0.175850   0.294766  -0.009298   0.249624  -0.072497   0.005818
     40       0.030334   0.048788   0.005828  -0.885858   0.264696  -0.030419
     41      -0.262515  -0.521053   0.116274   0.043589  -0.018330   0.004474
     42       0.008734   0.004291  -0.001465  -0.185607  -0.536266   0.034724
     43       0.000175  -0.001001   0.033239   0.102191   0.300212  -0.020044
     44      -0.000519   0.003808   0.005170  -0.240335  -0.689599   0.043564
     45      -0.000021  -0.000070  -0.000009   0.000030   0.000024  -0.000014
     46       0.000023  -0.000052   0.000043  -0.000020  -0.000113  -0.000005
     47       0.000017  -0.000024  -0.000003  -0.000005  -0.000012   0.000002
                 42         43         44         45         46         47    
      0      -0.013200  -0.004001   0.050389   0.027560   0.018935  -0.004891
      1      -0.011963  -0.001500   0.054825  -0.042754  -0.052831   0.016888
      2      -0.001878   0.000016  -0.000230   0.000159   0.000895   0.000020
      3      -0.001138  -0.000456   0.003992  -0.020177   0.020378  -0.006654
      4       0.001552   0.001044  -0.006524   0.049550  -0.051429   0.011837
      5       0.000081  -0.000060  -0.000797   0.004000  -0.003876   0.001495
      6       0.000317   0.000954   0.001488  -0.003045  -0.006367  -0.029263
      7      -0.000925   0.000648  -0.002402   0.003724   0.018381   0.071135
      8      -0.000109   0.000206   0.000200  -0.000388   0.000202  -0.000751
      9      -0.009832   0.060188   0.002125  -0.000166   0.001512  -0.001634
     10       0.005234   0.021251  -0.004604   0.006424  -0.002311   0.010412
     11       0.000373  -0.000033  -0.000951   0.000393   0.000055   0.001459
     12      -0.006876   0.006126  -0.000656   0.000243   0.000683  -0.001194
     13       0.004152  -0.001717   0.000063  -0.000002  -0.000642   0.001254
     14      -0.010385   0.004582  -0.001049   0.000490   0.000415  -0.000960
     15       0.034234   0.005480   0.009024   0.001758   0.004071  -0.001247
     16       0.000090  -0.000948   0.005350  -0.001753  -0.007275   0.003284
     17      -0.056967  -0.009136  -0.014436  -0.001269  -0.002370   0.000106
     18       0.165376   0.042498  -0.655034  -0.054013   0.056714  -0.027808
     19       0.175689   0.045819  -0.690255  -0.090292   0.028647  -0.020932
     20       0.001379  -0.000420  -0.008041  -0.000392   0.000289  -0.000608
     21       0.003814   0.008837   0.030867  -0.296344  -0.282396   0.089639
     22      -0.028976  -0.025602   0.009460   0.641857   0.603443  -0.186182
     23       0.000524   0.000577   0.000118  -0.008583  -0.011775   0.001855
     24       0.008474   0.008177  -0.044852   0.274391  -0.269932   0.054919
     25      -0.021073  -0.020323   0.103353  -0.631653   0.626898  -0.131258
     26      -0.000471  -0.001761   0.007901  -0.045344   0.042962  -0.017591
     27      -0.006198  -0.000144  -0.008771   0.014880   0.104305   0.380232
     28       0.013931   0.002407   0.017246  -0.032355  -0.237565  -0.879562
     29       0.000608   0.000312  -0.000729   0.006319  -0.005552  -0.001025
     30       0.056934  -0.587394   0.003303  -0.025700  -0.001609  -0.027533
     31       0.069078  -0.655787  -0.000270  -0.025235  -0.002857  -0.025413
     32       0.003848  -0.038264   0.000677  -0.000992  -0.000666  -0.001519
     33       0.062247  -0.161381  -0.029480   0.029400  -0.022896   0.038809
     34      -0.134454   0.393565   0.058993  -0.055834   0.041958  -0.076647
     35      -0.016272   0.048750   0.007592  -0.006241   0.003424  -0.011796
     36      -0.501632  -0.079986  -0.129738  -0.011840  -0.026292   0.003704
     37       0.213828   0.034304   0.058291   0.004788   0.009231  -0.000506
     38       0.726667   0.117318   0.190022   0.018352   0.039230  -0.005234
     39       0.077686   0.009071   0.035010  -0.000241  -0.018891   0.009358
     40      -0.217383  -0.024705  -0.110039   0.004018   0.071202  -0.036483
     41      -0.017483  -0.003147  -0.002180   0.000754  -0.005736   0.003069
     42       0.094492  -0.052919   0.008722  -0.003567  -0.006112   0.011651
     43      -0.052760   0.031681  -0.004129   0.001637   0.003403  -0.006117
     44       0.119094  -0.069928   0.009647  -0.005070  -0.007519   0.014621
     45      -0.000024  -0.000004  -0.000006  -0.000004  -0.000001   0.000015
     46       0.000034  -0.000041   0.000006   0.000017   0.000007  -0.000039
     47       0.000023  -0.000006   0.000006   0.000007   0.000009   0.000015


The first frequency considered to be a vibration is 6
The total number of vibrations considered is 42


--------------------------
THERMOCHEMISTRY AT 298.15K
--------------------------

Temperature         ...   298.15 K
Pressure            ...     1.00 atm
Total Mass          ...   208.04 AMU
Quasi RRHO          ...     True
Cut-Off Frequency   ...     1.00 cm^-1

Throughout the following assumptions are being made:
  (1) The electronic state is orbitally nondegenerate
  (2) There are no thermally accessible electronically excited states
  (3) Hindered rotations indicated by low frequency modes are not
      treated as such but are treated as vibrations and this may
      cause some error
  (4) All equations used are the standard statistical mechanics
      equations for an ideal gas
  (5) All vibrations are strictly harmonic

freq.     106.58  E(vib)   ...       0.45 
freq.     199.90  E(vib)   ...       0.35 
freq.     261.84  E(vib)   ...       0.29 
freq.     355.83  E(vib)   ...       0.22 
freq.     408.59  E(vib)   ...       0.19 
freq.     493.29  E(vib)   ...       0.14 
freq.     511.06  E(vib)   ...       0.14 
freq.     563.81  E(vib)   ...       0.11 
freq.     654.89  E(vib)   ...       0.08 
freq.     731.71  E(vib)   ...       0.06 
freq.     804.11  E(vib)   ...       0.05 
freq.     840.37  E(vib)   ...       0.04 
freq.     904.33  E(vib)   ...       0.03 
freq.     932.98  E(vib)   ...       0.03 
freq.     961.26  E(vib)   ...       0.03 
freq.    1027.19  E(vib)   ...       0.02 
freq.    1045.03  E(vib)   ...       0.02 
freq.    1080.13  E(vib)   ...       0.02 
freq.    1093.35  E(vib)   ...       0.02 
freq.    1117.71  E(vib)   ...       0.01 
freq.    1123.30  E(vib)   ...       0.01 
freq.    1170.22  E(vib)   ...       0.01 
freq.    1190.04  E(vib)   ...       0.01 
freq.    1210.89  E(vib)   ...       0.01 
freq.    1246.34  E(vib)   ...       0.01 
freq.    1263.06  E(vib)   ...       0.01 
freq.    1284.98  E(vib)   ...       0.01 
freq.    1295.20  E(vib)   ...       0.01 
freq.    1316.59  E(vib)   ...       0.01 
freq.    1460.85  E(vib)   ...       0.00 
freq.    1468.02  E(vib)   ...       0.00 
freq.    1473.90  E(vib)   ...       0.00 
freq.    1537.66  E(vib)   ...       0.00 
freq.    2948.58  E(vib)   ...       0.00 
freq.    2956.81  E(vib)   ...       0.00 
freq.    2977.65  E(vib)   ...       0.00 
freq.    2978.95  E(vib)   ...       0.00 
freq.    2980.73  E(vib)   ...       0.00 
freq.    2987.67  E(vib)   ...       0.00 
freq.    3002.56  E(vib)   ...       0.00 
freq.    3010.89  E(vib)   ...       0.00 
freq.    3023.67  E(vib)   ...       0.00 

------------
INNER ENERGY
------------

The inner energy is: U= E(el) + E(ZPE) + E(vib) + E(rot) + E(trans)
    E(el)   - is the total energy from the electronic structure calculation
              = E(kin-el) + E(nuc-el) + E(el-el) + E(nuc-nuc)
    E(ZPE)  - the the zero temperature vibrational energy from the frequency calculation
    E(vib)  - the the finite temperature correction to E(ZPE) due to population
              of excited vibrational states
    E(rot)  - is the rotational thermal energy
    E(trans)- is the translational thermal energy

Summary of contributions to the inner energy U:
Electronic energy                ...    -21.15132894 Eh
Zero point energy                ...      0.13213950 Eh      82.92 kcal/mol
Thermal vibrational correction   ...      0.00385324 Eh       2.42 kcal/mol
Thermal rotational correction    ...      0.00141627 Eh       0.89 kcal/mol
Thermal translational correction ...      0.00141627 Eh       0.89 kcal/mol
-----------------------------------------------------------------------
Total thermal energy                    -21.01250365 Eh


Summary of corrections to the electronic energy:
(perhaps to be used in another calculation)
Total thermal correction                  0.00668578 Eh       4.20 kcal/mol
Non-thermal (ZPE) correction              0.13213950 Eh      82.92 kcal/mol
-----------------------------------------------------------------------
Total correction                          0.13882529 Eh      87.11 kcal/mol


--------
ENTHALPY
--------

The enthalpy is H = U + kB*T
                kB is Boltzmann's constant
Total thermal energy              ...    -21.01250365 Eh 
Thermal Enthalpy correction       ...      0.00094421 Eh       0.59 kcal/mol
-----------------------------------------------------------------------
Total Enthalpy                    ...    -21.01155944 Eh


WARNING (ORCA/SYM): The number of Z matrix atoms does not agree with
the number of centers in the basis set. The point group will therefore
be determined without considering basis set information.


Note: Only C1 symmetry has been detected, increase convergence thresholds 
      if your molecule has a higher symmetry. Symmetry factor of 1.0 is   
      used for the rotational entropy correction. 
 

Note: Rotational entropy computed according to Herzberg 
Infrared and Raman Spectra, Chapter V,1, Van Nostrand Reinhold, 1945 
Point Group:  C1, Symmetry Number:   1  
Rotational constants in cm-1:     0.113113     0.031201     0.028764 

Vibrational entropy computed according to the QRRHO of S. Grimme
Chem.Eur.J. 2012 18 9955 using a reference frequency of 100.0 cm-1


-------
ENTROPY
-------

The entropy contributions are T*S = T*(S(el)+S(vib)+S(rot)+S(trans))
     S(el)   - electronic entropy
     S(vib)  - vibrational entropy
     S(rot)  - rotational entropy
     S(trans)- translational entropy
The entropies will be listed as multiplied by the temperature to get
units of energy

Electronic entropy                ...      0.00000000 Eh      0.00 kcal/mol
Vibrational entropy               ...      0.00613403 Eh      3.85 kcal/mol
Rotational entropy                ...      0.01385183 Eh      8.69 kcal/mol
Translational entropy             ...      0.01990873 Eh     12.49 kcal/mol
-----------------------------------------------------------------------
Final entropy term                ...      0.03989459 Eh     25.03 kcal/mol

In case the symmetry of your molecule has not been determined correctly
or in case you have a reason to use a different symmetry number we print 
out the resulting rotational entropy values for sn=1,12:

 non-linear molecules -----------------------------------
|  sn= 1 | S(rot)=       0.01385183 Eh      8.69 kcal/mol|
|  sn= 2 | S(rot)=       0.01319737 Eh      8.28 kcal/mol|
|  sn= 3 | S(rot)=       0.01281454 Eh      8.04 kcal/mol|
|  sn= 4 | S(rot)=       0.01254292 Eh      7.87 kcal/mol|
|  sn= 5 | S(rot)=       0.01233223 Eh      7.74 kcal/mol|
|  sn= 6 | S(rot)=       0.01216008 Eh      7.63 kcal/mol|
|  sn= 7 | S(rot)=       0.01201454 Eh      7.54 kcal/mol|
|  sn= 8 | S(rot)=       0.01188846 Eh      7.46 kcal/mol|
|  sn= 9 | S(rot)=       0.01177725 Eh      7.39 kcal/mol|
|  sn=10 | S(rot)=       0.01167777 Eh      7.33 kcal/mol|
|  sn=11 | S(rot)=       0.01158778 Eh      7.27 kcal/mol|
|  sn=12 | S(rot)=       0.01150563 Eh      7.22 kcal/mol|
 linear molecules ---------------------------------------
|  Dinfh | S(rot)=       0.00867635 Eh      5.44 kcal/mol|
|  Cinfv | S(rot)=       0.00933081 Eh      5.86 kcal/mol|
 --------------------------------------------------------


-------------------
GIBBS FREE ENERGY
-------------------

The Gibbs free energy is G = H - T*S

Total enthalpy                    ...    -21.01155944 Eh 
Total entropy correction          ...     -0.03989459 Eh    -25.03 kcal/mol
-----------------------------------------------------------------------
Final Gibbs free energy         ...    -21.05145403 Eh

For completeness - the Gibbs free energy minus the electronic energy
G-E(el)                           ...      0.09987491 Eh     62.67 kcal/mol


--------------------------------
SUGGESTED CITATIONS FOR THIS RUN
--------------------------------

Below you find a list of papers that are relevant to this ORCA run
We neither can nor want to force you to cite these papers, but we appreciate if you do
You receive ORCA, which is the product of decades of hard work by many enthusiastic individuals, for free
The only thing we kindly ask in return is that you cite our papers,
We deeply appreciate it, if you show your appreciation for ORCA by not just citing the generic ORCA reference.

Please note that relegating all ORCA citations to the supporting information does *not* help us.
SI sections are not indexed - citations you put there will not count into any citation statistics
But we need these citations in order to attract the funding resources that allow us to do what we are doing

Therefore, if you are a happy ORCA user, please consider citing a few of the papers listed below in the main body of your paper

In addition to the list printed below, the program has created the file product_optfreq.bibtex that contains the list in bibtex format
You can import this file easily into all common literature databanks and citation aid programs


List of essential papers. We consider these as the minimum necessary citations

  1. Bannwarth, C.; Ehlert, S.; Grimme, S.
     GFN2-xTB—An Accurate and Broadly Parametrized Self-Consistent Tight-Binding Quantum Chemical Method with Multipole Electrostatics and Density-Dependent Dispersion Contributions
     J. Chem. Theory Comput. 2019 15(3), 1652-1671
     doi.org/10.1021/acs.jctc.8b01176
  2. Neese, F.
     Software update: the ORCA program system, version 6.0
     WIRES Comput. Molec. Sci. 2025 15(1), e70019
     doi.org/10.1002/wcms.7019

List of papers to cite with high priority. The work reported in these papers was absolutely
necessary for this run to complete.
Our perspective: the developers of density functionals and basis sets usually get cited in chemistry papers
Good! But without the algorithms to do something with them, the functionals or basis sets would not do anything.
Hence, in our opinion, the algorithm design and method developments papers are equally worthy of getting cited

  1. Bykov, D.; Petrenko, T.; Izsak, R.; Kossmann, S.; Becker, U.; Valeev, E.; Neese, F.
     Efficient implementation of the analytic second derivatives of Hartree-Fock and hybrid DFT energies: a detailed analysis of different approximations
     Molec. Phys. 2015 113 , 1961-1977
     doi.org/10.1080/00268976.2015.1025114
  2. Bannwarth, C.; Caldeweyher, E.; Ehlert, S.; Hansen, A.; Pracht, P.; Seibert, J.; Spicher, S.; Grimme, S.
     Extended tight-binding quantum chemistry methods
     WIRES Comput. Molec. Sci. 2020 11(2), e1493
     doi.org/10.1002/wcms.1493

List of suggested additional citations. These are papers that are important in the 'surrounding' of 
of this run, or papers that preceded the highly important papers. If you like your results we are grateful for a citation.

  1. Neese, F.
     The ORCA program system
     WIRES Comput. Molec. Sci. 2012 2(1), 73-78
     doi.org/10.1002/wcms.81
  2. Neese, F.
     Software update: the ORCA program system, version 4.0
     WIRES Comput. Molec. Sci. 2018 8(1), 1-6
     doi.org/10.1002/wcms.1327
  3. Neese, F.; Wennmohs, F.; Becker, U.; Riplinger, C.
     The ORCA quantum chemistry program package
     J. Chem. Phys. 2020 152(22), 224108
     doi.org/10.1063/5.0004608
  4. Neese, F.
     Software update: The ORCA program system—Version 5.0
     WIRES Comput. Molec. Sci. 2022 12(1), e1606
     doi.org/10.1002/wcms.1606

List of optional additional citations

  1. Neese, F.
     Approximate second-order SCF convergence for spin unrestricted wavefunctions
     Chem. Phys. Lett. 2000 325(1-3), 93-98
     doi.org/10.1016/s0009-2614(00)00662-x

Timings for individual modules:

Sum of individual times          ...        2.751 sec (=   0.046 min)
Geometry relaxation              ...        0.108 sec (=   0.002 min)   3.9 %
XTB module                       ...        2.644 sec (=   0.044 min)  96.1 %
                             ****ORCA TERMINATED NORMALLY****
TOTAL RUN TIME: 0 days 0 hours 0 minutes 3 seconds 693 msec
