
                                 *****************
                                 * O   R   C   A *
                                 *****************

                                            #,                                       
                                            ###                                      
                                            ####                                     
                                            #####                                    
                                            ######                                   
                                           ########,                                 
                                     ,,################,,,,,                         
                               ,,#################################,,                 
                          ,,##########################################,,             
                       ,#########################################, ''#####,          
                    ,#############################################,,   '####,        
                  ,##################################################,,,,####,       
                ,###########''''           ''''###############################       
              ,#####''   ,,,,##########,,,,          '''####'''          '####       
            ,##' ,,,,###########################,,,                        '##       
           ' ,,###''''                  '''############,,,                           
         ,,##''                                '''############,,,,        ,,,,,,###''
      ,#''                                            '''#######################'''  
     '                                                          ''''####''''         
             ,#######,   #######,   ,#######,      ##                                
            ,#'     '#,  ##    ##  ,#'     '#,    #''#        ,####,    ,#,          
            ##       ##  ##   ,#'  ##            #'  '#       #'       ,# #          
            ##       ##  #######   ##           ,######,      #####,      #          
            '#,     ,#'  ##    ##  '#,     ,#' ,#      #,     #,   #      #          
             '#######'   ##     ##  '#######'  #'      '#     '####' #    #          



                #########################################################
                #                        -***-                          #
                #          Department of theory and spectroscopy        #
                #                                                       #
                #                      Frank Neese                      #
                #                                                       #
                #     Directorship, Architecture, Infrastructure        #
                #                    SHARK, DRIVERS                     #
                #        Core code/Algorithms in most modules           #
                #                                                       #
                #        Max Planck Institute fuer Kohlenforschung      #
                #                Kaiser Wilhelm Platz 1                 #
                #                 D-45470 Muelheim/Ruhr                 #
                #                      Germany                          #
                #                                                       #
                #                  All rights reserved                  #
                #                        -***-                          #
                #########################################################


                         Program Version 6.1.0  -  RELEASE   -
                                (GIT: $679e74b$)
                          ($2025-06-10 18:02:51 +0200$)


 With contributions from (in alphabetic order):
[Max-Planck-Institut fuer Kohlenforschung]                               
  Daniel Aravena         : Magnetic Suceptibility                        
  Michael Atanasov       : Ab Initio Ligand Field Theory (pilot matlab implementation)
  Alexander A. Auer      : GIAO ZORA, VPT2 properties, NMR spectrum      
  Ute Becker             : All parallelization in ORCA, NUMFREQ, NUMCALC 
  Giovanni Bistoni       : ED, misc. LED, open-shell LED, HFLD           
  Dmytro Bykov           : pre 5.0 version of the SCF Hessian            
  Marcos Casanova-Páez   : Triplet and SCS-CIS(D). UHF-(DLPNO)-IP/EA/STEOM-CCSD. UHF-CVS-IP/STEOM-CCSD   
  Vijay G. Chilkuri      : MRCI spin determinant printing, contributions to CSF-ICE 
  Pauline Colinet        : FMM embedding                                 
  Dipayan Datta          : RHF DLPNO-CCSD density                        
  Achintya Kumar Dutta   : EOM-CC, STEOM-CC                              
  Nicolas Foglia         : Exact transition moments, OPA infrastructure, MCD improvements    
  Dmitry Ganyushin       : Spin-Orbit,Spin-Spin,Magnetic field MRCI      
  Miquel Garcia-Rates    : C-PCM and meta-GGA Hessian, CCSD/C-PCM, Gaussian charge scheme 
  Tiago L. C. Gouveia    : GS-ROHF, GS-ROCIS                             
  Yang Guo               : DLPNO-NEVPT2, F12-NEVPT2, CIM, IAO-localization        
  Andreas Hansen         : Spin unrestricted coupled pair/coupled cluster methods 
  Ingolf Harden          : AUTO-CI MPn and infrastructure                
  Benjamin Helmich-Paris : MC-RPA, TRAH-(SCF,CASSCF), AVAS, COSX integrals, SCF dyn. polar., MC-PDFT, srDFT 
  Lee Huntington         : MR-EOM, pCC                                   
  Robert Izsak           : Overlap fitted RIJCOSX, COSX-SCS-MP3, EOM     
  Riya Kayal             : Wick's Theorem for AUTO-CI, AUTO-CI UHF-CCSDT 
  Emily Kempfer          : AUTO-CI RHF CISDT and CCSDT, approximate NEVPT4
  Christian Kollmar      : KDIIS, OOCD, Brueckner-CCSD(T), CCSD density, CASPT2, CASPT2-K, improved NEVPT2 
  Axel Koslowski         : Symmetry handling                             
  Simone Kossmann        : meta-GGA functionals, TD-DFT gradient, OOMP2, (MP2 Hessian; deprecated post 5.0) 
  Lucas Lang             : DCDCAS, Hyperfine gauge corrections, ICE-SOC+SSC
  Marvin Lechner         : AUTO-CI (C++ implementation), FIC-MRCC        
  Spencer Leger          : CASSCF response                               
  Dagmar Lenk            : GEPOL surface, SMD, ORCA-2-JSON               
  Dimitrios Liakos       : Extrapolation schemes; Compound Job, Property file
  Dimitrios Manganas     : Further ROCIS development; embedding schemes. LFT, Crystal Embedding 
  Dimitrios Pantazis     : SARC Basis sets                               
  Anastasios Papadopoulos: AUTO-CI, single reference methods and gradients 
  Taras Petrenko         : pre 6.0 DFT Hessian and TD-DFT gradient,  ECA, NRVS 
  Petra Pikulova         : Analytic Raman intensities                    
  Peter Pinski           : DLPNO-MP2, DLPNO-MP2 Gradient                 
  Shashank Vittal Rao    : ES-AILFT, MagRelax                            
  Christoph Reimann      : Effective Core Potentials                     
  Marius Retegan         : Local ZFS, SOC                                
  Christoph Riplinger    : Optimizer, TS searches, QM/MM, DLPNO-CCSD(T), (RO)-DLPNO pert. Triples 
  Michael Roemelt        : Original ROCIS implementation, recursive CI coupling coefficients
  Masaaki Saitow         : Open-shell DLPNO-CCSD energy and density      
  Barbara Sandhoefer     : DKH picture change effects                    
  Yorick L. A. Schmerwitz: GMF and freeze-and-release deltaSCF, NEB S-IDPP initial path                    
  Kantharuban Sivalingam : CASSCF convergence/infrastructure, NEVPT2, NEVPT3, NEVPT4(SD), FIC-MRCI and CEPA variants
  Bernardo de Souza      : ESD, SOC TD-DFT                               
  Georgi L. Stoychev     : AutoAux, RI-MP2 NMR, DLPNO-MP2 response, X2C  
  Van Anh Tran           : RI-MP2 g-tensors                              
  Willem Van den Heuvel  : Paramagnetic NMR                              
  Zikuan Wang            : NOTCH, Electric field optimization            
  Frank Wennmohs         : Technical directorship and infrastructure     
  Hang Xu                : AUTO-CI-Response properties                   
                                                                         
[FACCTs GmbH]                                                            
  Markus Bursch, Nicolas Foglia, Miquel Garcia-Rates, Ingolf Harden, Hagen Neugebauer, Anastasios Papadopoulos, 
  Christoph Riplinger, Bernardo de Souza, Georgi L. Stoychev                                                    
                                                                 
  APM, various basis sets, CI-OPT, improved COSX, DLPNO-Multilevel,           
  DOCKER, DRACO, updates on ESD, Fragmentator, GOAT, IRC, LR-CPCM, L-BFGS, MBIS, meta-GGA TD-DFT gradient, ML-optimized integration grids, 
  MM, NACMEs, nearIR, NEB, NEB-TS, NL-DFT gradient (VV10), 2- and 3-layer-ONIOM, interface openCOSMO-RS, QMMM,   
  Crystal-QMMM, RESP, rigid body optimization, SF, symmetry and pop. for TD-DFT, various functionals, SOLVATOR                                   
                                                                         
[Other institutions]                                                     
  V. Asgeirsson          : NEB                                           
  Christoph Bannwarth    : sTDA-DFT, sTD-DFT, PBEh-3c, B97-3c, D3        
  Giovanni Bistoni       : ETS/NOCV, ADLD/ADEX, COVALED                  
  Martin Brehm           : Molecular dynamics                            
  Ronald Cardenas        : ETS/NOCV                                      
  Martina Colucci        : COVALED                                       
  Sebastian Ehlert       : rSCAN, r2SCAN, r2SCAN-3c, D4, dhf basis sets  
  Marvin Friede          : D4 for Fr, Ra, Ac-Lr                          
  Lars Goerigk           : TD-DFT with DH, B97 family of functionals     
  Stefan Grimme          : VdW corrections, initial TS optimization, DFT functionals, gCP, sTDA/sTD-DF 
  Waldemar Hujo          : DFT-NL                                        
  H. Jonsson             : NEB                                           
  Holger Kruse           : gCP                                           
  Marcel Mueller         : wB97X-3c, vDZP basis set                      
  Hagen Neugebauer       : wr2SCAN, Native XTB                           
  Gianluca Regni         : ADLD/ADEX                                     
  Tobias Risthaus        : pre 6.0 range-separated hybrid DFT and stability analysis
  Lukas Wittmann         : regularized MP2, r2SCAN double-hybrids, wr2SCAN        
                                                                         
We gratefully acknowledge several colleagues who have allowed us to      
interface, adapt or use parts of their codes:                            
  Ed Valeev, F. Pavosevic, A. Kumar             : LibInt (2-el integral package), F12 methods 
  Garnet Chan, S. Sharma, J. Yang, R. Olivares  : DMRG                   
  Ulf Ekstrom                                   : XCFun DFT Library      
  Mihaly Kallay                                 : mrcc  (arbitrary order and MRCC methods)
  Frank Weinhold                                : gennbo (NPA and NBO analysis)           
  Simon Mueller                                 : openCOSMO-RS                            
  Christopher J. Cramer and Donald G. Truhlar   : smd solvation model                     
  S Lehtola, MJT Oliveira, MAL Marques          : LibXC Library                           
  Liviu Ungur et al                             : ANISO software                          


 Your calculation uses the libint2 library for the computation of 2-el integrals
 For citations please refer to: http://libint.valeyev.net

 Your ORCA version has been built with support for libXC version: 7.0.0
 For citations please refer to: https://libxc.gitlab.io

 This ORCA versions uses:
   CBLAS   interface :  Fast vector & matrix operations
   LAPACKE interface :  Fast linear algebra routines
   SCALAPACK package :  Parallel linear algebra routines
   Shared memory     :  Shared parallel matrices
   BLAS/LAPACK       :  OpenBLAS 0.3.29  USE64BITINT DYNAMIC_ARCH NO_AFFINITY SkylakeX SINGLE_THREADED
        Core in use  :  SkylakeX
   Copyright (c) 2011-2014, The OpenBLAS Project


  ***********************************
  * Starting time: Mon Mar 16 14:18:16 2026
  * Host name:     midway3-login4.rcc.local
  * Process ID:    92786
  * Working dir.:  /home/rzhu16/evans-polanyi-principle-validation/runs/da_i/geo_opt_reactant_product
  ***********************************

Your calculation utilizes the semiempirical GFN2-xTB method
Please cite in your paper:
Bannwarth, C.; Ehlert S.; Grimme, S. J. Chem. Theory Comput. 2019, 15, 1652.
   

================================================================================

cite the ECPs for I  [Def2-ECP] as follows:
Ce-Yb(ecp-28): M. Dolg, H. Stoll, H.Preuss, J. Chem. Phys., 1989, 90, 1730-1734.
Y-Cd(ecp-28), Hf-Hg(ecp-46): D. Andrae,U. Haeussermann, M. Dolg, H. Stoll, H. Preuss, Theor. Chim. Acta, 1990, 77, 123-141.
In-Sb(ecp-28), Tl-Bi(ecp-46): B. Metz, H. Stoll, M. Dolg, J. Chem. Phys., 2000, 113, 2563-2569.
Te-Xe(ecp-28), Po-Rn(ecp-46): K. A. Peterson, D. Figgen, E. Goll, H. Stoll, M. Dolg, J. Chem. Phys., 2003, 119, 11113-11123.
Rb(ecp-28), Cs(ecp-46): T. Leininger, A. Nicklass, W. Kuechle, H. Stoll, M. Dolg, A. Bergner, Chem. Phys. Lett., 1996, 255, 274-280.
Sr(ecp-28), Ba(ecp-46): M. Kaupp, P. V. Schleyer, H. Stoll and H. Preuss, J. Chem. Phys., 1991, 94, 1360-1366.
La(ecp-46): M. Dolg, H. Stoll, A. Savin, H. Preuss, Theor. Chim. Acta, 1989, 75, 173-194.
Lu(ecp-28): X. Cao, M. Dolg, J. Chem. Phys., 2001, 115, 7348-7355.

ECP parameters for I  [Def2-ECP] have been obtained from:
TURBOMOLE (7.0.2)

================================================================================
                                        WARNINGS
                       Please study these warnings very carefully!
================================================================================


WARNING: Analytical Hessian for XTB is limited in the analysis of the data.
       : If you want to obtain extensive IR and deltaG analysis, please use ! XTB NumFreq. 


WARNING: Geometry Optimization
  ===> : Switching off AutoStart
         For restart on a previous wavefunction, please use MOREAD

WARNING: Found dipole moment calculation with XTB calculation
  ===> : Switching off dipole moment calculation


WARNING: Found frequency calculation in combination with XTB calculation
  ===> : Need to redirect dipole moment calculation to properties.out


================================================================================
                                       INPUT FILE
================================================================================
NAME = reactant_optfreq.inp
|  1> ! XTB2 Opt Freq PAL8
|  2> 
|  3> %geom
|  4>   MaxIter 500
|  5> end
|  6> 
|  7> * xyz 0 1
|  8>   C       0.083155      0.194939     -0.023405
|  9>   C       1.323437      0.080021     -0.484612
| 10>   C       2.235292      1.208071     -0.467570
| 11>   C       3.504478      1.079263     -0.099003
| 12>   C       2.248896      0.881702      2.524632
| 13>   C       1.185278      0.110531      2.456986
| 14>   H      -0.562861     -0.652607      0.126814
| 15>   H      -0.310887      1.158601      0.256968
| 16>   H       1.737414     -0.886627     -0.738516
| 17>   H       1.801646      2.188028     -0.617944
| 18>   H       4.143114      1.929539      0.067369
| 19>   H       3.933601      0.107361      0.087478
| 20>   H       0.185568      0.490900      2.566619
| 21>   H       1.285097     -0.947942      2.284987
| 22>   H       3.258705      0.529067      2.417312
| 23>   I       2.131990      2.967519      2.790228
| 24> *
| 25> 
| 26>                          ****END OF INPUT****
================================================================================

                       *****************************
                       * Geometry Optimization Run *
                       *****************************

Geometry optimization settings:
Update method            Update   .... BFGS
Choice of coordinates    CoordSys .... (2022) Redundant Internals
Initial Hessian          InHess   .... Almloef's Model
Max. no of cycles        MaxIter  .... 500

Convergence Tolerances:
Energy Change            TolE     ....  5.0000e-06 Eh
Max. Gradient            TolMAXG  ....  3.0000e-04 Eh/bohr
RMS Gradient             TolRMSG  ....  1.0000e-04 Eh/bohr
Max. Displacement        TolMAXD  ....  4.0000e-03 bohr
RMS Displacement         TolRMSD  ....  2.0000e-03 bohr
Strict Convergence                .... False

------------------------------------------------------------------------------
                        ORCA OPTIMIZATION COORDINATE SETUP
------------------------------------------------------------------------------

The optimization will be done in redundant internal coordinates (2022)
Making redundant internal coordinates   ...  (2022 redundants) done
Evaluating the initial hessian          ...  (Almloef) done
Evaluating the coordinates              ...  done
Calculating the B-matrix                .... done
Calculating the G-matrix                .... done
The number of degrees of freedom        ....  150

    -----------------------------------------------------------------
                    Redundant Internal Coordinates


    -----------------------------------------------------------------
         Definition                    Initial Value    Approx d2E/dq
    -----------------------------------------------------------------
      1. B(C   1,C   0)                  1.3282         0.783926   
      2. B(C   2,C   1)                  1.4506         0.500081   
      3. B(C   3,C   2)                  1.3279         0.784958   
      4. B(C   4,C   2)                  3.0100         0.010000   
      5. B(C   4,C   3)                  2.9153         0.010000   
      6. B(C   5,C   1)                  2.9450         0.010000   
      7. B(C   5,C   0)                  2.7155         0.010000   
      8. B(C   5,C   4)                  1.3155         0.821456   
      9. B(H   6,C   5)                  3.0113         0.010000   
     10. B(H   6,C   0)                  1.0762         0.378807   
     11. B(H   7,C   5)                  2.8596         0.010000   
     12. B(H   7,C   0)                  1.0782         0.376048   
     13. B(H   8,C   1)                  1.0818         0.371137   
     14. B(H   9,C   2)                  1.0821         0.370681   
     15. B(H  10,C   3)                  1.0763         0.378633   
     16. B(H  11,C   3)                  1.0787         0.375413   
     17. B(H  11,C   4)                  3.0623         0.010000   
     18. B(H  12,H   7)                  2.4550         0.010000   
     19. B(H  12,C   5)                  1.0752         0.380178   
     20. B(H  12,H   6)                  2.7965         0.010000   
     21. B(H  12,C   0)                  2.6089         0.010000   
     22. B(H  13,H   8)                  3.0578         0.010000   
     23. B(H  13,C   1)                  2.9545         0.010000   
     24. B(H  13,C   5)                  1.0770         0.377725   
     25. B(H  13,H   6)                  2.8566         0.010000   
     26. B(H  13,C   0)                  2.8424         0.010000   
     27. B(H  14,C   4)                  1.0750         0.380527   
     28. B(H  14,H  10)                  2.8750         0.010000   
     29. B(H  14,C   3)                  2.5875         0.010000   
     30. B(H  14,C   2)                  3.1354         0.010000   
     31. B(H  14,H  11)                  2.4620         0.010000   
     32. B(I  15,C   4)                  2.1059         0.151374   
     33. A(C   1,C   0,H   6)          122.7414         0.370509   
     34. A(C   5,C   0,H   7)           86.4791         0.177677   
     35. A(C   1,C   0,C   5)           86.3014         0.210076   
     36. A(C   5,C   0,H   6)           95.2585         0.177824   
     37. A(H   6,C   0,H   7)          116.6278         0.295179   
     38. A(C   1,C   0,H   7)          120.5894         0.370044   
     39. A(C   0,C   1,C   5)           66.9500         0.189046   
     40. A(C   0,C   1,H   8)          121.0743         0.369209   
     41. A(C   2,C   1,H   8)          117.1988         0.342100   
     42. A(C   0,C   1,C   2)          121.0386         0.435604   
     43. A(C   2,C   1,C   5)           90.5557         0.179367   
     44. A(C   5,C   1,H   8)          105.1679         0.162056   
     45. A(C   3,C   2,C   4)           73.0966         0.183812   
     46. A(C   4,C   2,H   9)          103.7771         0.158195   
     47. A(C   3,C   2,H   9)          120.6266         0.369214   
     48. A(C   1,C   2,H   9)          116.7877         0.342030   
     49. A(C   1,C   2,C   3)          121.9139         0.435707   
     50. A(C   1,C   2,C   4)           85.9976         0.174614   
     51. A(C   4,C   3,H  11)           87.4033         0.164077   
     52. A(C   4,C   3,H  10)           99.7861         0.164223   
     53. A(C   2,C   3,C   4)           81.0667         0.191578   
     54. A(H  10,C   3,H  11)          116.6803         0.295079   
     55. A(C   2,C   3,H  11)          121.0396         0.370020   
     56. A(C   2,C   3,H  10)          122.2347         0.370564   
     57. A(C   3,C   4,I  15)           94.0307         0.165680   
     58. A(C   3,C   4,H  14)           61.8233         0.164308   
     59. A(C   3,C   4,C   5)          109.9786         0.192638   
     60. A(C   2,C   4,C   3)           25.8367         0.114330   
     61. A(C   2,C   4,H  14)           86.5929         0.158606   
     62. A(C   2,C   4,C   5)           90.5037         0.184792   
     63. A(H  14,C   4,I  15)          112.9326         0.299716   
     64. A(C   5,C   4,I  15)          122.8352         0.378987   
     65. A(C   5,C   4,H  14)          124.1991         0.373796   
     66. A(C   2,C   4,I  15)           91.0159         0.159875   
     67. A(H  12,C   5,H  13)          116.7520         0.295555   
     68. A(C   4,C   5,H  13)          120.6246         0.373320   
     69. A(C   4,C   5,H  12)          122.6234         0.373737   
     70. A(C   0,C   5,H  13)           85.5431         0.177766   
     71. A(C   0,C   5,H  12)           72.8296         0.177896   
     72. A(C   0,C   5,C   4)          110.9095         0.211365   
     73. A(C   0,C   5,C   1)           26.7485         0.120567   
     74. A(C   1,C   5,H  13)           79.9767         0.162348   
     75. A(C   1,C   5,H  12)           98.5764         0.162455   
     76. A(C   1,C   5,C   4)           91.1176         0.190110   
     77. D(C   5,C   1,C   0,H   6)    -93.8775         0.061846   
     78. D(H   8,C   1,C   0,H   6)      0.4564         0.061846   
     79. D(C   2,C   1,C   0,H   7)      7.8102         0.061846   
     80. D(H   8,C   1,C   0,C   5)     94.3340         0.061846   
     81. D(C   2,C   1,C   0,H   6)   -169.7691         0.061846   
     82. D(H   8,C   1,C   0,H   7)    178.0358         0.061846   
     83. D(C   2,C   1,C   0,C   5)    -75.8916         0.061846   
     84. D(C   5,C   1,C   0,H   7)     83.7018         0.061846   
     85. D(C   3,C   2,C   1,C   5)     73.8201         0.022284   
     86. D(H   9,C   2,C   1,C   5)    -96.8360         0.022284   
     87. D(H   9,C   2,C   1,C   0)    -33.6533         0.022284   
     88. D(H   9,C   2,C   1,H   8)    155.7559         0.022284   
     89. D(C   3,C   2,C   1,C   0)    137.0028         0.022284   
     90. D(C   4,C   2,C   1,C   0)     69.7676         0.022284   
     91. D(C   3,C   2,C   1,H   8)    -33.5879         0.022284   
     92. D(C   4,C   2,C   1,H   8)   -100.8232         0.022284   
     93. D(C   4,C   3,C   2,H   9)     96.2772         0.058828   
     94. D(C   4,C   3,C   2,C   1)    -74.0263         0.058828   
     95. D(H  11,C   3,C   2,C   4)     81.4817         0.058828   
     96. D(H  10,C   3,C   2,C   4)    -95.9861         0.058828   
     97. D(H  10,C   3,C   2,H   9)      0.2911         0.058828   
     98. D(H  10,C   3,C   2,C   1)   -170.0123         0.058828   
     99. D(H  11,C   3,C   2,H   9)    177.7589         0.058828   
    100. D(H  11,C   3,C   2,C   1)      7.4555         0.058828   
    101. D(H  14,C   4,C   2,C   1)    109.3579         0.010000   
    102. D(C   5,C   4,C   2,H   9)    101.7411         0.010000   
    103. D(C   5,C   4,C   2,C   3)   -139.9840         0.010000   
    104. D(C   5,C   4,C   2,C   1)    -14.8754         0.010000   
    105. D(I  15,C   4,C   2,C   1)   -137.7284         0.010000   
    106. D(I  15,C   4,C   3,H  11)    154.0320         0.010000   
    107. D(I  15,C   4,C   3,H  10)     37.3981         0.010000   
    108. D(I  15,C   4,C   3,C   2)    -83.9877         0.010000   
    109. D(H  14,C   4,C   2,H   9)   -134.0257         0.010000   
    110. D(H  14,C   4,C   3,H  10)    -76.5169         0.010000   
    111. D(C   5,C   4,C   3,H  11)    -78.8116         0.010000   
    112. D(C   5,C   4,C   3,H  10)    164.5545         0.010000   
    113. D(C   5,C   4,C   3,C   2)     43.1687         0.010000   
    114. D(H  14,C   4,C   3,H  11)     40.1170         0.010000   
    115. D(H  14,C   4,C   3,C   2)    162.0973         0.010000   
    116. D(I  15,C   4,C   2,H   9)    -21.1120         0.010000   
    117. D(I  15,C   4,C   2,C   3)     97.1630         0.010000   
    118. D(H  14,C   4,C   2,C   3)    -15.7507         0.010000   
    119. D(H  13,C   5,C   1,H   8)    -17.6649         0.010000   
    120. D(H  13,C   5,C   1,C   2)   -136.1042         0.010000   
    121. D(H  13,C   5,C   1,C   0)    100.0988         0.010000   
    122. D(H  12,C   5,C   1,C   2)    108.0710         0.010000   
    123. D(H  12,C   5,C   1,C   0)    -15.7259         0.010000   
    124. D(C   4,C   5,C   1,H   8)    103.2628         0.010000   
    125. D(C   4,C   5,C   1,C   0)   -138.9734         0.010000   
    126. D(C   1,C   5,C   0,H   7)   -120.9898         0.010000   
    127. D(C   1,C   5,C   0,H   6)    122.5692         0.010000   
    128. D(H  13,C   5,C   0,H   7)    162.4977         0.010000   
    129. D(H  13,C   5,C   0,H   6)     46.0567         0.010000   
    130. D(C   4,C   5,C   1,C   2)    -15.1765         0.010000   
    131. D(H  13,C   5,C   0,C   1)    -76.5125         0.010000   
    132. D(H  12,C   5,C   0,H   7)     42.7197         0.010000   
    133. D(H  12,C   5,C   0,H   6)    -73.7212         0.010000   
    134. D(H  12,C   5,C   1,H   8)   -133.4897         0.010000   
    135. D(H  12,C   5,C   0,C   1)    163.7095         0.010000   
    136. D(C   4,C   5,C   0,H   7)    -76.3578         0.010000   
    137. D(C   4,C   5,C   0,H   6)    167.2012         0.010000   
    138. D(C   0,C   5,C   1,C   2)    123.7969         0.010000   
    139. D(C   4,C   5,C   0,C   1)     44.6320         0.010000   
    140. D(C   0,C   5,C   4,C   3)    -28.5365         0.075377   
    141. D(C   0,C   5,C   4,I  15)     80.3454         0.075377   
    142. D(C   0,C   5,C   4,H  14)    -97.4113         0.075377   
    143. D(H  13,C   5,C   4,C   2)     86.2516         0.075377   
    144. D(H  13,C   5,C   4,C   3)     68.9040         0.075377   
    145. D(H  13,C   5,C   4,I  15)    177.7858         0.075377   
    146. D(H  13,C   5,C   4,H  14)      0.0292         0.075377   
    147. D(H  12,C   5,C   4,C   2)    -93.6804         0.075377   
    148. D(H  12,C   5,C   4,C   3)   -111.0281         0.075377   
    149. D(H  12,C   5,C   4,I  15)     -2.1462         0.075377   
    150. D(H  12,C   5,C   4,H  14)   -179.9028         0.075377   
    -----------------------------------------------------------------

Number of atoms                         .... 16
Number of degrees of freedom            .... 150


         *************************************************************
         *                GEOMETRY OPTIMIZATION CYCLE   1            *
         *************************************************************
---------------------------------
CARTESIAN COORDINATES (ANGSTROEM)
---------------------------------
  C     0.083155    0.194939   -0.023405
  C     1.323437    0.080021   -0.484612
  C     2.235292    1.208071   -0.467570
  C     3.504478    1.079263   -0.099003
  C     2.248896    0.881702    2.524632
  C     1.185278    0.110531    2.456986
  H    -0.562861   -0.652607    0.126814
  H    -0.310887    1.158601    0.256968
  H     1.737414   -0.886627   -0.738516
  H     1.801646    2.188028   -0.617944
  H     4.143114    1.929539    0.067369
  H     3.933601    0.107361    0.087478
  H     0.185568    0.490900    2.566619
  H     1.285097   -0.947942    2.284987
  H     3.258705    0.529067    2.417312
  I     2.131990    2.967519    2.790228

----------------------------
CARTESIAN COORDINATES (A.U.)
----------------------------
  NO LB    ZA    FRAG    MASS        X           Y           Z
   0 C   6.0000    0    12.011    0.157140    0.368381   -0.044229
   1 C   6.0000    0    12.011    2.500933    0.151218   -0.915784
   2 C   6.0000    0    12.011    4.224090    2.282923   -0.883579
   3 C   6.0000    0    12.011    6.622504    2.039511   -0.187089
   4 C   6.0000    0    12.011    4.249798    1.666175    4.770863
   5 C   6.0000    0    12.011    2.239851    0.208873    4.643031
   6 H   1.0000    0     1.008   -1.063653   -1.233249    0.239644
   7 H   1.0000    0     1.008   -0.587491    2.189439    0.485599
   8 H   1.0000    0     1.008    3.283237   -1.675482   -1.395593
   9 H   1.0000    0     1.008    3.404618    4.134774   -1.167745
  10 H   1.0000    0     1.008    7.829351    3.646300    0.127309
  11 H   1.0000    0     1.008    7.433429    0.202883    0.165309
  12 H   1.0000    0     1.008    0.350673    0.927667    4.850207
  13 H   1.0000    0     1.008    2.428481   -1.791351    4.318000
  14 H   1.0000    0     1.008    6.158060    0.999792    4.568058
  15 I  53.0000    0   126.900    4.028877    5.607798    5.272767

      -----------------------------------------------------------      
     |                   =====================                   |     
     |                           x T B                           |     
     |                   =====================                   |     
     |                         S. Grimme                         |     
     |          Mulliken Center for Theoretical Chemistry        |     
     |                    University of Bonn                     |     
      -----------------------------------------------------------      

   * xtb version 6.7.1 (edcfbbe) compiled by 'albert@albert-system' on 2024-07-22

   xtb is free software: you can redistribute it and/or modify it under
   the terms of the GNU Lesser General Public License as published by
   the Free Software Foundation, either version 3 of the License, or
   (at your option) any later version.
   
   xtb is distributed in the hope that it will be useful,
   but WITHOUT ANY WARRANTY; without even the implied warranty of
   MERCHANTABILITY or FITNESS FOR A PARTICULAR PURPOSE.  See the
   GNU Lesser General Public License for more details.
   
   Cite this work as:
   * C. Bannwarth, E. Caldeweyher, S. Ehlert, A. Hansen, P. Pracht,
     J. Seibert, S. Spicher, S. Grimme, WIREs Comput. Mol. Sci., 2020, 11,
     e01493. DOI: 10.1002/wcms.1493
   
   for GFN2-xTB:
   * C. Bannwarth, S. Ehlert and S. Grimme., J. Chem. Theory Comput., 2019,
     15, 1652-1671. DOI: 10.1021/acs.jctc.8b01176
   for GFN1-xTB:
   * S. Grimme, C. Bannwarth, P. Shushkov, J. Chem. Theory Comput., 2017,
     13, 1989-2009. DOI: 10.1021/acs.jctc.7b00118
   for GFN0-xTB:
   * P. Pracht, E. Caldeweyher, S. Ehlert, S. Grimme, ChemRxiv, 2019, preprint.
     DOI: 10.26434/chemrxiv.8326202.v1
   for GFN-FF:
   * S. Spicher and S. Grimme, Angew. Chem. Int. Ed., 2020, 59, 15665-15673.
     DOI: 10.1002/anie.202004239
   
   for ALPB and GBSA implicit solvation:
   * S. Ehlert, M. Stahn, S. Spicher, S. Grimme, J. Chem. Theory Comput.,
     2021, 17, 4250-4261. DOI: 10.1021/acs.jctc.1c00471
   
   for ddCOSMO and CPCM-X implicit solvation:
   * M. Stahn, S. Ehlert, S. Grimme, J. Phys. Chem. A,
     2023, XX, XXXX-XXXX. DOI: 10.1021/acs.jpca.3c04382
   
   for DFT-D4:
   * E. Caldeweyher, C. Bannwarth and S. Grimme, J. Chem. Phys., 2017,
     147, 034112. DOI: 10.1063/1.4993215
   * E. Caldeweyher, S. Ehlert, A. Hansen, H. Neugebauer, S. Spicher,
     C. Bannwarth and S. Grimme, J. Chem. Phys., 2019, 150, 154122.
     DOI: 10.1063/1.5090222
   * E. Caldeweyher, J.-M. Mewes, S. Ehlert and S. Grimme, Phys. Chem. Chem. Phys.
     2020, 22, 8499-8512. DOI: 10.1039/D0CP00502A
   
   for sTDA-xTB:
   * S. Grimme and C. Bannwarth, J. Chem. Phys., 2016, 145, 054103.
     DOI: 10.1063/1.4959605
   
   in the mass-spec context:
   * V. Asgeirsson, C. Bauer and S. Grimme, Chem. Sci., 2017, 8, 4879.
     DOI: 10.1039/c7sc00601b
   * J. Koopman and S. Grimme, ACS Omega 2019, 4, 12, 15120-15133.
     DOI: 10.1021/acsomega.9b02011
   
   for metadynamics refer to:
   * S. Grimme, J. Chem. Theory Comput., 2019, 155, 2847-2862
     DOI: 10.1021/acs.jctc.9b00143
   
   for SPH calculations refer to:
   * S. Spicher and S. Grimme, J. Chem. Theory Comput., 2021, 17, 1701-1714
     DOI: 10.1021/acs.jctc.0c01306
   
   for ONIOM refer to:
   * C. Plett, A. Katbashev, S. Ehlert, S. Grimme, M. Bursch,
     Phys. Chem. Chem. Phys., 2023, 25, 17860-17868. DOI: 10.1039/D3CP02178E
   
   for DIPRO refer to:
   * J. Kohn, N. Gildemeister, S. Grimme, D. Fazzi, A. Hansen,
     J. Chem. Phys., 2023, just accepted.
   
   for PTB refer to:
   * S. Grimme, M. Mueller, A. Hansen, J. Chem. Phys., 2023, 158, 124111.
     DOI: 10.1063/5.0137838
   
   with help from (in alphabetical order)
   P. Atkinson, C. Bannwarth, F. Bohle, G. Brandenburg, E. Caldeweyher
   M. Checinski, S. Dohm, S. Ehlert, S. Ehrlich, I. Gerasimov, C. Hölzer
   A. Katbashev, J. Kohn, J. Koopman, C. Lavigne, S. Lehtola, F. März, M. Müller,
   F. Musil, H. Neugebauer, J. Pisarek, C. Plett, P. Pracht, F. Pultar,
   J. Seibert, P. Shushkov, S. Spicher, M. Stahn, M. Steiner, T. Strunk,
   J. Stückrath, T. Rose, and J. Unsleber
   
 * started run on 2026/03/16 at 14:18:16.746     
   ID    Z sym.   atoms
    1    6 C      1-6
    2    1 H      7-15
    3   53 I      16

           -------------------------------------------------
          |                Calculation Setup                |
           -------------------------------------------------

          program call               : /software/orca-6.1.0-el8-x86_64/bin/otool_xtb reactant_optfreq_XTB.xyz --grad -c 0 -u 0 -P 8 --namespace reactant_optfreq --input reactant_optfreq_XTB.input.tmp --acc 0.200000
          hostname                   : midway3-login4.rcc.local
          calculation namespace      : reactant_optfreq
          coordinate file            : reactant_optfreq_XTB.xyz
          omp threads                :                     8


molecular fragmentation (1/2 indicates fragments):
1111221111112222
# atoms in fragment 1/2:    10     6
 fragment masses (1/2) :       54.09      153.95
CMA distance (Bohr)    :   6.697
constraining FC (au)   :  0.0500

           -------------------------------------------------
          |                 G F N 2 - x T B                 |
           -------------------------------------------------

        Reference                      10.1021/acs.jctc.8b01176
      * Hamiltonian:
        H0-scaling (s, p, d)           1.850000    2.230000    2.230000
        zeta-weighting                 0.500000
      * Dispersion:
        s8                             2.700000
        a1                             0.520000
        a2                             5.000000
        s9                             5.000000
      * Repulsion:
        kExp                           1.500000    1.000000
        rExp                           1.000000
      * Coulomb:
        alpha                          2.000000
        third order                    shell-resolved
        anisotropic                    true
        a3                             3.000000
        a5                             4.000000
        cn-shift                       1.200000
        cn-exp                         4.000000
        max-rad                        5.000000


          ...................................................
          :                      SETUP                      :
          :.................................................:
          :  # basis functions                  43          :
          :  # atomic orbitals                  42          :
          :  # shells                           24          :
          :  # electrons                        40          :
          :  max. iterations                   250          :
          :  Hamiltonian                  GFN2-xTB          :
          :  restarted?                      false          :
          :  GBSA solvation                  false          :
          :  PC potential                    false          :
          :  electronic temp.          300.0000000     K    :
          :  accuracy                    0.2000000          :
          :  -> integral cutoff          0.3198970E+02      :
          :  -> integral neglect         0.2000000E-08      :
          :  -> SCF convergence          0.2000000E-06 Eh   :
          :  -> wf. convergence          0.2000000E-04 e    :
          :  Broyden damping             0.4000000          :
          :  net charge                          0          :
          :  unpaired electrons                  0          :
          ...................................................

 iter      E             dE          RMSdq      gap      omega  full diag
   1    -21.4473218 -0.214473E+02  0.689E+00    3.78       0.0  T
   2    -21.4707331 -0.234113E-01  0.451E+00    3.65       1.0  T
   3    -21.4211183  0.496147E-01  0.282E+00    3.86       1.0  T
   4    -21.4788382 -0.577199E-01  0.803E-01    3.87       1.0  T
   5    -21.4785468  0.291383E-03  0.481E-01    3.87       1.0  T
   6    -21.4793336 -0.786760E-03  0.244E-01    3.88       1.0  T
   7    -21.4795145 -0.180937E-03  0.179E-01    3.88       1.0  T
   8    -21.4795813 -0.667767E-04  0.985E-02    3.88       1.0  T
   9    -21.4795895 -0.820937E-05  0.185E-02    3.88       1.4  T
  10    -21.4795902 -0.708782E-06  0.910E-03    3.88       2.7  T
  11    -21.4795907 -0.456758E-06  0.300E-03    3.88       8.3  T
  12    -21.4795907 -0.604932E-08  0.966E-04    3.88      25.9  T
  13    -21.4795907 -0.522512E-09  0.240E-04    3.88     104.2  T
  14    -21.4795907 -0.856986E-10  0.156E-04    3.88     159.8  T
  15    -21.4795907 -0.133440E-10  0.355E-05    3.88     704.5  T

   *** convergence criteria satisfied after 15 iterations ***

         #    Occupation            Energy/Eh            Energy/eV
      -------------------------------------------------------------
         1        2.0000           -0.7350890             -20.0028
       ...           ...                  ...                  ...
        14        2.0000           -0.4604029             -12.5282
        15        2.0000           -0.4557496             -12.4016
        16        2.0000           -0.4402027             -11.9785
        17        2.0000           -0.4288041             -11.6684
        18        2.0000           -0.4064499             -11.0601
        19        2.0000           -0.4048505             -11.0165
        20        2.0000           -0.3925641             -10.6822 (HOMO)
        21                         -0.2498526              -6.7988 (LUMO)
        22                         -0.2322356              -6.3195
        23                         -0.2182073              -5.9377
        24                         -0.1700544              -4.6274
        25                          0.0239107               0.6506
       ...                                ...                  ...
        42                          0.6471671              17.6103
      -------------------------------------------------------------
                  HL-Gap            0.1427115 Eh            3.8834 eV
             Fermi-level           -0.3212084 Eh           -8.7405 eV

 SCC (total)                   0 d,  0 h,  0 min,  0.069 sec
 SCC setup                      ...        0 min,  0.000 sec (  0.464%)
 Dispersion                     ...        0 min,  0.000 sec (  0.115%)
 classical contributions        ...        0 min,  0.000 sec (  0.039%)
 integral evaluation            ...        0 min,  0.062 sec ( 89.875%)
 iterations                     ...        0 min,  0.005 sec (  7.325%)
 molecular gradient             ...        0 min,  0.001 sec (  1.891%)
 printout                       ...        0 min,  0.000 sec (  0.261%)

         :::::::::::::::::::::::::::::::::::::::::::::::::::::
         ::                     SUMMARY                     ::
         :::::::::::::::::::::::::::::::::::::::::::::::::::::
         :: total energy             -21.128379769226 Eh    ::
         :: gradient norm              0.007389542242 Eh/a0 ::
         :: HOMO-LUMO gap              3.883376802865 eV    ::
         ::.................................................::
         :: SCC energy               -21.479529035870 Eh    ::
         :: -> isotropic ES            0.004379831317 Eh    ::
         :: -> anisotropic ES          0.002774958585 Eh    ::
         :: -> anisotropic XC          0.016906461053 Eh    ::
         :: -> dispersion             -0.014230445489 Eh    ::
         :: repulsion energy           0.351149266644 Eh    ::
         :: add. restraining           0.000000000000 Eh    ::
         :: total charge              -0.000000000000 e     ::
         :::::::::::::::::::::::::::::::::::::::::::::::::::::


Property printout bound to 'properties.out'

           -------------------------------------------------
          | TOTAL ENERGY              -21.128379769226 Eh   |
          | GRADIENT NORM               0.007389542242 Eh/α |
          | HOMO-LUMO GAP               3.883376802865 eV   |
           -------------------------------------------------

------------------------------------------------------------------------
 * finished run on 2026/03/16 at 14:18:16.866     
------------------------------------------------------------------------
 total:
 * wall-time:     0 d,  0 h,  0 min,  0.120 sec
 *  cpu-time:     0 d,  0 h,  0 min,  0.332 sec
 * ratio c/w:     2.774 speedup
 SCF:
 * wall-time:     0 d,  0 h,  0 min,  0.069 sec
 *  cpu-time:     0 d,  0 h,  0 min,  0.239 sec
 * ratio c/w:     3.470 speedup


-------------------------   --------------------
FINAL SINGLE POINT ENERGY       -21.128379769230
-------------------------   --------------------


-------------
DIPOLE MOMENT
-------------
                                X             Y             Z
Total Dipole Moment    :     -0.04000      -1.33200      -0.30100
                        -----------------------------------------
Magnitude (a.u.)       :      1.36617
Magnitude (Debye)      :      3.47253


------------------
CARTESIAN GRADIENT
------------------

   1   C   :    0.000987321   -0.000138560    0.001532639
   2   C   :    0.000210061   -0.000410102   -0.000406122
   3   C   :   -0.000283058   -0.000066242   -0.000371098
   4   C   :   -0.000474430   -0.000030204    0.001355635
   5   C   :   -0.000171569    0.000012045   -0.001637774
   6   C   :   -0.000254348    0.000171769   -0.001935443
   7   H   :    0.001094506   -0.000110856    0.003362912
   8   H   :    0.001206165    0.000215964    0.001672094
   9   H   :   -0.000049194    0.000134830   -0.000402025
  10   H   :   -0.000228415    0.000096516   -0.000369059
  11   H   :   -0.000936722   -0.000029888    0.002846105
  12   H   :   -0.000878489   -0.000079377    0.001333926
  13   H   :    0.000012683    0.000413636   -0.001615076
  14   H   :   -0.000486838    0.000223694   -0.002322119
  15   H   :    0.000067724   -0.000303398   -0.001722150
  16   I   :    0.000184604   -0.000099830   -0.001322445

Difference to translation invariance:
           :    0.0000000000    0.0000000000   -0.0000000000

Difference to rotation invariance:
           :   -0.0000001251   -0.0000000167    0.0000000165

Norm of the Cartesian gradient     ...    0.0073895422
RMS gradient                       ...    0.0010665886
MAX gradient                       ...    0.0033629123
------------------------------------------------------------------------------
                         ORCA GEOMETRY RELAXATION STEP
------------------------------------------------------------------------------

Reading the OPT-File                    .... done
Getting information on internals        .... done
Copying old internal coords+grads       .... done
Making the new internal coordinates     .... (2022 redundants) done
Validating the new internal coordinates .... (2022 redundants) done
Calculating the B-matrix                .... done
Calculating the G,G- and P matrices     .... done
Transforming gradient to internals      .... done
Projecting the internal gradient        .... done
Number of atoms                         ....  16
Number of internal coordinates          .... 150
Current Energy                          ....   -21.128379769 Eh
Current gradient norm                   ....     0.007389542 Eh/bohr
Maximum allowed component of the step   ....  0.300
Current trust radius                    ....  0.300
Evaluating the initial hessian          ....  (Almloef) done
Projecting the Hessian                  .... done
Forming the augmented Hessian           .... done
Diagonalizing the augmented Hessian     .... done
Last element of RFO vector              ....  0.965187001
Lowest eigenvalues of augmented Hessian:
 -0.001068683  0.011171666  0.014316546  0.017393021  0.024585677
Length of the computed step             ....  0.270994950
The final length of the internal step   ....  0.270994950
Converting the step to Cartesian space:
 Initial RMS(Int)=    0.0221266451
Transforming coordinates:
 Iter   0:  RMS(Cart)=    0.0228460213 RMS(Int)=    0.0221624790
done
Storing new coordinates                 .... done

                                .--------------------.
          ----------------------|Geometry convergence|-------------------------
          Item                value                   Tolerance       Converged
          ---------------------------------------------------------------------
          RMS gradient        0.0004630972            0.0001000000      NO
          MAX gradient        0.0020331301            0.0003000000      NO
          RMS step            0.0221266451            0.0020000000      NO
          MAX step            0.0825569560            0.0040000000      NO
          -------------------------------------------------------------------------
          ........................................................
          Max(Bonds)      0.0437      Max(Angles)    0.74
          Max(Dihed)        1.33      Max(Improp)    0.00
          ---------------------------------------------------------------------

The optimization has not yet converged - more geometry cycles are needed


    ---------------------------------------------------------------------------
                         Redundant Internal Coordinates
                            (Angstroem and degrees)

        Definition                    Value    dE/dq     Step     New-Value
    ----------------------------------------------------------------------------
     1. B(C   1,C   0)                1.3282 -0.000209  0.0002    1.3284   
     2. B(C   2,C   1)                1.4506 -0.000274  0.0006    1.4512   
     3. B(C   3,C   2)                1.3279 -0.000001  0.0001    1.3280   
     4. B(C   4,C   2)                3.0100 -0.000382  0.0255    3.0355   
     5. B(C   4,C   3)                2.9153 -0.001283  0.0387    2.9540   
     6. B(C   5,C   1)                2.9450  0.000091  0.0212    2.9662   
     7. B(C   5,C   0)                2.7155 -0.000678  0.0320    2.7475   
     8. B(C   5,C   4)                1.3155 -0.002033  0.0012    1.3167   
     9. B(H   6,C   5)                3.0113 -0.000986  0.0367    3.0480   
    10. B(H   6,C   0)                1.0762  0.000887 -0.0009    1.0753   
    11. B(H   7,C   5)                2.8596 -0.000966  0.0349    2.8945   
    12. B(H   7,C   0)                1.0782  0.000565 -0.0007    1.0775   
    13. B(H   8,C   1)                1.0818 -0.000067 -0.0001    1.0817   
    14. B(H   9,C   2)                1.0821  0.000230 -0.0003    1.0818   
    15. B(H  10,C   3)                1.0763  0.000532 -0.0004    1.0760   
    16. B(H  11,C   3)                1.0787  0.000386 -0.0004    1.0783   
    17. B(H  11,C   4)                3.0623 -0.001159  0.0385    3.1008   
    18. B(H  12,H   7)                2.4550 -0.000962  0.0380    2.4929   
    19. B(H  12,C   5)                1.0752 -0.000166  0.0002    1.0754   
    20. B(H  12,H   6)                2.7965 -0.000895  0.0366    2.8330   
    21. B(H  12,C   0)                2.6089 -0.000563  0.0315    2.6404   
    22. B(H  13,H   8)                3.0578  0.000080  0.0161    3.0738   
    23. B(H  13,C   1)                2.9545 -0.000044  0.0196    2.9740   
    24. B(H  13,C   5)                1.0770  0.000351 -0.0005    1.0765   
    25. B(H  13,H   6)                2.8566 -0.001142  0.0373    2.8938   
    26. B(H  13,C   0)                2.8424 -0.000583  0.0292    2.8716   
    27. B(H  14,C   4)                1.0750 -0.000383  0.0002    1.0752   
    28. B(H  14,H  10)                2.8750 -0.001523  0.0437    2.9187   
    29. B(H  14,C   3)                2.5875 -0.000642  0.0353    2.6228   
    30. B(H  14,C   2)                3.1354  0.000054  0.0198    3.1552   
    31. B(H  14,H  11)                2.4620 -0.000752  0.0404    2.5024   
    32. B(I  15,C   4)                2.1059 -0.000276  0.0010    2.1069   
    33. A(C   1,C   0,H   6)          122.74  0.000078   -0.10    122.64   
    34. A(C   5,C   0,H   7)           86.48 -0.000268    0.31     86.79   
    35. A(C   1,C   0,C   5)           86.30  0.000337   -0.35     85.95   
    36. A(C   5,C   0,H   6)           95.26 -0.000406    0.43     95.68   
    37. A(H   6,C   0,H   7)          116.63  0.000151   -0.06    116.57   
    38. A(C   1,C   0,H   7)          120.59 -0.000241    0.17    120.76   
    39. A(C   0,C   1,C   5)           66.95 -0.000298    0.56     67.51   
    40. A(C   0,C   1,H   8)          121.07  0.000166   -0.11    120.96   
    41. A(C   2,C   1,H   8)          117.20  0.000305   -0.10    117.10   
    42. A(C   0,C   1,C   2)          121.04 -0.000524    0.27    121.31   
    43. A(C   2,C   1,C   5)           90.56 -0.000282    0.13     90.69   
    44. A(C   5,C   1,H   8)          105.17  0.000136   -0.27    104.90   
    45. A(C   3,C   2,C   4)           73.10 -0.000379    0.68     73.78   
    46. A(C   4,C   2,H   9)          103.78 -0.000005   -0.10    103.68   
    47. A(C   3,C   2,H   9)          120.63  0.000033   -0.02    120.61   
    48. A(C   1,C   2,H   9)          116.79  0.000173    0.02    116.81   
    49. A(C   1,C   2,C   3)          121.91 -0.000269    0.09    122.00   
    50. A(C   1,C   2,C   4)           86.00 -0.000048   -0.08     85.92   
    51. A(C   4,C   3,H  11)           87.40 -0.000040    0.14     87.54   
    52. A(C   4,C   3,H  10)           99.79 -0.000817    0.74    100.52   
    53. A(C   2,C   3,C   4)           81.07  0.000322   -0.42     80.65   
    54. A(H  10,C   3,H  11)          116.68  0.000250   -0.06    116.62   
    55. A(C   2,C   3,H  11)          121.04 -0.000092    0.07    121.11   
    56. A(C   2,C   3,H  10)          122.23 -0.000178    0.00    122.24   
    57. A(C   3,C   4,I  15)           94.03 -0.000912    0.55     94.58   
    58. A(C   3,C   4,H  14)           61.82  0.000252   -0.03     61.79   
    59. A(C   3,C   4,C   5)          109.98  0.000252   -0.34    109.64   
    60. A(C   2,C   4,C   3)           25.84  0.000057   -0.27     25.57   
    61. A(C   2,C   4,H  14)           86.59  0.000268   -0.24     86.36   
    62. A(C   2,C   4,C   5)           90.50  0.000196   -0.08     90.43   
    63. A(H  14,C   4,I  15)          112.93  0.000024   -0.07    112.86   
    64. A(C   5,C   4,I  15)          122.84  0.000155   -0.05    122.79   
    65. A(C   5,C   4,H  14)          124.20 -0.000193    0.13    124.33   
    66. A(C   2,C   4,I  15)           91.02 -0.000912    0.51     91.52   
    67. A(H  12,C   5,H  13)          116.75  0.000294   -0.11    116.64   
    68. A(C   4,C   5,H  13)          120.62  0.000004   -0.02    120.61   
    69. A(C   4,C   5,H  12)          122.62 -0.000299    0.12    122.75   
    70. A(C   0,C   5,H  13)           85.54 -0.000032   -0.01     85.53   
    71. A(C   0,C   5,H  12)           72.83  0.000039    0.11     72.94   
    72. A(C   0,C   5,C   4)          110.91  0.000014   -0.11    110.80   
    73. A(C   0,C   5,C   1)           26.75 -0.000039   -0.21     26.53   
    74. A(C   1,C   5,H  13)           79.98 -0.000098   -0.01     79.97   
    75. A(C   1,C   5,H  12)           98.58 -0.000018   -0.07     98.51   
    76. A(C   1,C   5,C   4)           91.12  0.000092    0.07     91.19   
    77. D(C   5,C   1,C   0,H   6)    -93.88  0.000269   -0.29    -94.16   
    78. D(H   8,C   1,C   0,H   6)      0.46  0.000202   -0.25      0.21   
    79. D(C   2,C   1,C   0,H   7)      7.81  0.000197   -0.29      7.52   
    80. D(H   8,C   1,C   0,C   5)     94.33 -0.000067    0.04     94.37   
    81. D(C   2,C   1,C   0,H   6)   -169.77  0.000546   -0.71   -170.48   
    82. D(H   8,C   1,C   0,H   7)    178.04 -0.000147    0.17    178.20   
    83. D(C   2,C   1,C   0,C   5)    -75.89  0.000277   -0.42    -76.32   
    84. D(C   5,C   1,C   0,H   7)     83.70 -0.000079    0.13     83.83   
    85. D(C   3,C   2,C   1,C   5)     73.82 -0.000400    0.64     74.46   
    86. D(H   9,C   2,C   1,C   5)    -96.84  0.000029    0.03    -96.80   
    87. D(H   9,C   2,C   1,C   0)    -33.65 -0.000365    0.72    -32.93   
    88. D(H   9,C   2,C   1,H   8)    155.76 -0.000024    0.28    156.04   
    89. D(C   3,C   2,C   1,C   0)    137.00 -0.000794    1.33    138.33   
    90. D(C   4,C   2,C   1,C   0)     69.77 -0.000386    0.57     70.34   
    91. D(C   3,C   2,C   1,H   8)    -33.59 -0.000454    0.89    -32.70   
    92. D(C   4,C   2,C   1,H   8)   -100.82 -0.000046    0.13   -100.69   
    93. D(C   4,C   3,C   2,H   9)     96.28 -0.000227    0.27     96.55   
    94. D(C   4,C   3,C   2,C   1)    -74.03  0.000207   -0.36    -74.39   
    95. D(H  11,C   3,C   2,C   4)     81.48  0.000179   -0.12     81.36   
    96. D(H  10,C   3,C   2,C   4)    -95.99  0.000753   -0.61    -96.60   
    97. D(H  10,C   3,C   2,H   9)      0.29  0.000526   -0.34     -0.05   
    98. D(H  10,C   3,C   2,C   1)   -170.01  0.000960   -0.98   -170.99   
    99. D(H  11,C   3,C   2,H   9)    177.76 -0.000049    0.15    177.91   
   100. D(H  11,C   3,C   2,C   1)      7.46  0.000386   -0.48      6.98   
   101. D(H  14,C   4,C   2,C   1)    109.36 -0.000454    0.31    109.66   
   102. D(C   5,C   4,C   2,H   9)    101.74 -0.000073    0.16    101.90   
   103. D(C   5,C   4,C   2,C   3)   -139.98 -0.000080    0.24   -139.74   
   104. D(C   5,C   4,C   2,C   1)    -14.88 -0.000239    0.17    -14.71   
   105. D(I  15,C   4,C   2,C   1)   -137.73 -0.000380    0.20   -137.52   
   106. D(I  15,C   4,C   3,H  11)    154.03  0.000327   -0.06    153.98   
   107. D(I  15,C   4,C   3,H  10)     37.40  0.000110   -0.05     37.35   
   108. D(I  15,C   4,C   3,C   2)    -83.99  0.000193    0.05    -83.94   
   109. D(H  14,C   4,C   2,H   9)   -134.03 -0.000288    0.30   -133.72   
   110. D(H  14,C   4,C   3,H  10)    -76.52 -0.000382    0.33    -76.18   
   111. D(C   5,C   4,C   3,H  11)    -78.81  0.000129    0.05    -78.76   
   112. D(C   5,C   4,C   3,H  10)    164.55 -0.000088    0.06    164.61   
   113. D(C   5,C   4,C   3,C   2)     43.17 -0.000005    0.16     43.32   
   114. D(H  14,C   4,C   3,H  11)     40.12 -0.000165    0.33     40.44   
   115. D(H  14,C   4,C   3,C   2)    162.10 -0.000300    0.43    162.53   
   116. D(I  15,C   4,C   2,H   9)    -21.11 -0.000214    0.20    -20.91   
   117. D(I  15,C   4,C   2,C   3)     97.16 -0.000221    0.28     97.44   
   118. D(H  14,C   4,C   2,C   3)    -15.75 -0.000295    0.38    -15.37   
   119. D(H  13,C   5,C   1,H   8)    -17.66  0.000038    0.08    -17.59   
   120. D(H  13,C   5,C   1,C   2)   -136.10 -0.000214    0.18   -135.93   
   121. D(H  13,C   5,C   1,C   0)    100.10  0.000149    0.09    100.19   
   122. D(H  12,C   5,C   1,C   2)    108.07 -0.000508    0.28    108.35   
   123. D(H  12,C   5,C   1,C   0)    -15.73 -0.000145    0.20    -15.53   
   124. D(C   4,C   5,C   1,H   8)    103.26  0.000033    0.05    103.31   
   125. D(C   4,C   5,C   1,C   0)   -138.97  0.000143    0.07   -138.91   
   126. D(C   1,C   5,C   0,H   7)   -120.99  0.000250   -0.18   -121.17   
   127. D(C   1,C   5,C   0,H   6)    122.57  0.000108   -0.14    122.43   
   128. D(H  13,C   5,C   0,H   7)    162.50  0.000423   -0.11    162.39   
   129. D(H  13,C   5,C   0,H   6)     46.06  0.000281   -0.07     45.99   
   130. D(C   4,C   5,C   1,C   2)    -15.18 -0.000220    0.15    -15.03   
   131. D(H  13,C   5,C   0,C   1)    -76.51  0.000172    0.07    -76.44   
   132. D(H  12,C   5,C   0,H   7)     42.72  0.000102    0.03     42.75   
   133. D(H  12,C   5,C   0,H   6)    -73.72 -0.000040    0.07    -73.65   
   134. D(H  12,C   5,C   1,H   8)   -133.49 -0.000256    0.18   -133.31   
   135. D(H  12,C   5,C   0,C   1)    163.71 -0.000148    0.21    163.92   
   136. D(C   4,C   5,C   0,H   7)    -76.36  0.000416   -0.15    -76.51   
   137. D(C   4,C   5,C   0,H   6)    167.20  0.000274   -0.10    167.10   
   138. D(C   0,C   5,C   1,C   2)    123.80 -0.000363    0.08    123.88   
   139. D(C   4,C   5,C   0,C   1)     44.63  0.000166    0.03     44.66   
   140. D(C   0,C   5,C   4,C   3)    -28.54  0.000033    0.12    -28.42   
   141. D(C   0,C   5,C   4,I  15)     80.35 -0.000886    0.55     80.90   
   142. D(C   0,C   5,C   4,H  14)    -97.41 -0.000396    0.34    -97.07   
   143. D(H  13,C   5,C   4,C   2)     86.25  0.000040   -0.09     86.16   
   144. D(H  13,C   5,C   4,C   3)     68.90  0.000005    0.03     68.93   
   145. D(H  13,C   5,C   4,I  15)    177.79 -0.000915    0.46    178.24   
   146. D(H  13,C   5,C   4,H  14)      0.03 -0.000425    0.25      0.28   
   147. D(H  12,C   5,C   4,C   2)    -93.68  0.000103   -0.11    -93.79   
   148. D(H  12,C   5,C   4,C   3)   -111.03  0.000067    0.01   -111.02   
   149. D(H  12,C   5,C   4,I  15)     -2.15 -0.000852    0.45     -1.70   
   150. D(H  12,C   5,C   4,H  14)   -179.90 -0.000362    0.24   -179.67   
    ----------------------------------------------------------------------------

Geometry step timings:
Preparation and reading OPT file:      0.000 s ( 0.595 %)
Internal coordinates            :      0.000 s ( 1.071 %)
B/P matrices and projection     :      0.001 s (17.288 %)
Hessian update/contruction      :      0.003 s (34.114 %)
Making the step                 :      0.002 s (20.635 %)
Converting the step to Cartesian:      0.000 s ( 2.328 %)
Storing new data                :      0.000 s ( 1.653 %)
Checking convergence            :      0.000 s ( 1.204 %)
Final printing                  :      0.002 s (21.019 %)
Total time                      :      0.008 s

Time for energy+gradient        :      0.162 s
Time for complete geometry iter :      0.245 s

         *************************************************************
         *                GEOMETRY OPTIMIZATION CYCLE   2            *
         *************************************************************
---------------------------------
CARTESIAN COORDINATES (ANGSTROEM)
---------------------------------
  C     0.078672    0.195284   -0.036975
  C     1.323699    0.080536   -0.485857
  C     2.237359    1.207880   -0.471691
  C     3.510376    1.077582   -0.116881
  C     2.247483    0.883895    2.546461
  C     1.184135    0.110486    2.476886
  H    -0.567986   -0.652437    0.102399
  H    -0.321786    1.157236    0.237523
  H     1.738540   -0.886889   -0.735063
  H     1.805131    2.188065   -0.622301
  H     4.154399    1.926494    0.032334
  H     3.940673    0.106308    0.067815
  H     0.182709    0.487200    2.585134
  H     1.286004   -0.947258    2.304676
  H     3.258791    0.535533    2.436946
  I     2.125725    2.968453    2.826937

----------------------------
CARTESIAN COORDINATES (A.U.)
----------------------------
  NO LB    ZA    FRAG    MASS        X           Y           Z
   0 C   6.0000    0    12.011    0.148668    0.369033   -0.069873
   1 C   6.0000    0    12.011    2.501428    0.152191   -0.918137
   2 C   6.0000    0    12.011    4.227995    2.282562   -0.891366
   3 C   6.0000    0    12.011    6.633650    2.036334   -0.220873
   4 C   6.0000    0    12.011    4.247127    1.670319    4.812114
   5 C   6.0000    0    12.011    2.237691    0.208788    4.680637
   6 H   1.0000    0     1.008   -1.073337   -1.232928    0.193507
   7 H   1.0000    0     1.008   -0.608087    2.186859    0.448853
   8 H   1.0000    0     1.008    3.285364   -1.675978   -1.389068
   9 H   1.0000    0     1.008    3.411203    4.134844   -1.175978
  10 H   1.0000    0     1.008    7.850676    3.640546    0.061102
  11 H   1.0000    0     1.008    7.446792    0.200893    0.128152
  12 H   1.0000    0     1.008    0.345270    0.920675    4.885195
  13 H   1.0000    0     1.008    2.430196   -1.790059    4.355206
  14 H   1.0000    0     1.008    6.158223    1.012012    4.605160
  15 I  53.0000    0   126.900    4.017038    5.609564    5.342136

      -----------------------------------------------------------      
     |                   =====================                   |     
     |                           x T B                           |     
     |                   =====================                   |     
     |                         S. Grimme                         |     
     |          Mulliken Center for Theoretical Chemistry        |     
     |                    University of Bonn                     |     
      -----------------------------------------------------------      

   * xtb version 6.7.1 (edcfbbe) compiled by 'albert@albert-system' on 2024-07-22

   xtb is free software: you can redistribute it and/or modify it under
   the terms of the GNU Lesser General Public License as published by
   the Free Software Foundation, either version 3 of the License, or
   (at your option) any later version.
   
   xtb is distributed in the hope that it will be useful,
   but WITHOUT ANY WARRANTY; without even the implied warranty of
   MERCHANTABILITY or FITNESS FOR A PARTICULAR PURPOSE.  See the
   GNU Lesser General Public License for more details.
   
   Cite this work as:
   * C. Bannwarth, E. Caldeweyher, S. Ehlert, A. Hansen, P. Pracht,
     J. Seibert, S. Spicher, S. Grimme, WIREs Comput. Mol. Sci., 2020, 11,
     e01493. DOI: 10.1002/wcms.1493
   
   for GFN2-xTB:
   * C. Bannwarth, S. Ehlert and S. Grimme., J. Chem. Theory Comput., 2019,
     15, 1652-1671. DOI: 10.1021/acs.jctc.8b01176
   for GFN1-xTB:
   * S. Grimme, C. Bannwarth, P. Shushkov, J. Chem. Theory Comput., 2017,
     13, 1989-2009. DOI: 10.1021/acs.jctc.7b00118
   for GFN0-xTB:
   * P. Pracht, E. Caldeweyher, S. Ehlert, S. Grimme, ChemRxiv, 2019, preprint.
     DOI: 10.26434/chemrxiv.8326202.v1
   for GFN-FF:
   * S. Spicher and S. Grimme, Angew. Chem. Int. Ed., 2020, 59, 15665-15673.
     DOI: 10.1002/anie.202004239
   
   for ALPB and GBSA implicit solvation:
   * S. Ehlert, M. Stahn, S. Spicher, S. Grimme, J. Chem. Theory Comput.,
     2021, 17, 4250-4261. DOI: 10.1021/acs.jctc.1c00471
   
   for ddCOSMO and CPCM-X implicit solvation:
   * M. Stahn, S. Ehlert, S. Grimme, J. Phys. Chem. A,
     2023, XX, XXXX-XXXX. DOI: 10.1021/acs.jpca.3c04382
   
   for DFT-D4:
   * E. Caldeweyher, C. Bannwarth and S. Grimme, J. Chem. Phys., 2017,
     147, 034112. DOI: 10.1063/1.4993215
   * E. Caldeweyher, S. Ehlert, A. Hansen, H. Neugebauer, S. Spicher,
     C. Bannwarth and S. Grimme, J. Chem. Phys., 2019, 150, 154122.
     DOI: 10.1063/1.5090222
   * E. Caldeweyher, J.-M. Mewes, S. Ehlert and S. Grimme, Phys. Chem. Chem. Phys.
     2020, 22, 8499-8512. DOI: 10.1039/D0CP00502A
   
   for sTDA-xTB:
   * S. Grimme and C. Bannwarth, J. Chem. Phys., 2016, 145, 054103.
     DOI: 10.1063/1.4959605
   
   in the mass-spec context:
   * V. Asgeirsson, C. Bauer and S. Grimme, Chem. Sci., 2017, 8, 4879.
     DOI: 10.1039/c7sc00601b
   * J. Koopman and S. Grimme, ACS Omega 2019, 4, 12, 15120-15133.
     DOI: 10.1021/acsomega.9b02011
   
   for metadynamics refer to:
   * S. Grimme, J. Chem. Theory Comput., 2019, 155, 2847-2862
     DOI: 10.1021/acs.jctc.9b00143
   
   for SPH calculations refer to:
   * S. Spicher and S. Grimme, J. Chem. Theory Comput., 2021, 17, 1701-1714
     DOI: 10.1021/acs.jctc.0c01306
   
   for ONIOM refer to:
   * C. Plett, A. Katbashev, S. Ehlert, S. Grimme, M. Bursch,
     Phys. Chem. Chem. Phys., 2023, 25, 17860-17868. DOI: 10.1039/D3CP02178E
   
   for DIPRO refer to:
   * J. Kohn, N. Gildemeister, S. Grimme, D. Fazzi, A. Hansen,
     J. Chem. Phys., 2023, just accepted.
   
   for PTB refer to:
   * S. Grimme, M. Mueller, A. Hansen, J. Chem. Phys., 2023, 158, 124111.
     DOI: 10.1063/5.0137838
   
   with help from (in alphabetical order)
   P. Atkinson, C. Bannwarth, F. Bohle, G. Brandenburg, E. Caldeweyher
   M. Checinski, S. Dohm, S. Ehlert, S. Ehrlich, I. Gerasimov, C. Hölzer
   A. Katbashev, J. Kohn, J. Koopman, C. Lavigne, S. Lehtola, F. März, M. Müller,
   F. Musil, H. Neugebauer, J. Pisarek, C. Plett, P. Pracht, F. Pultar,
   J. Seibert, P. Shushkov, S. Spicher, M. Stahn, M. Steiner, T. Strunk,
   J. Stückrath, T. Rose, and J. Unsleber
   
 * started run on 2026/03/16 at 14:18:16.962     
   ID    Z sym.   atoms
    1    6 C      1-6
    2    1 H      7-15
    3   53 I      16

           -------------------------------------------------
          |                Calculation Setup                |
           -------------------------------------------------

          program call               : /software/orca-6.1.0-el8-x86_64/bin/otool_xtb reactant_optfreq_XTB.xyz --grad -c 0 -u 0 -P 8 --namespace reactant_optfreq --input reactant_optfreq_XTB.input.tmp --acc 0.200000
          hostname                   : midway3-login4.rcc.local
          calculation namespace      : reactant_optfreq
          coordinate file            : reactant_optfreq_XTB.xyz
          omp threads                :                     8


molecular fragmentation (1/2 indicates fragments):
1111221111112222
# atoms in fragment 1/2:    10     6
 fragment masses (1/2) :       54.09      153.95
CMA distance (Bohr)    :   6.768
constraining FC (au)   :  0.0500

           -------------------------------------------------
          |                 G F N 2 - x T B                 |
           -------------------------------------------------

        Reference                      10.1021/acs.jctc.8b01176
      * Hamiltonian:
        H0-scaling (s, p, d)           1.850000    2.230000    2.230000
        zeta-weighting                 0.500000
      * Dispersion:
        s8                             2.700000
        a1                             0.520000
        a2                             5.000000
        s9                             5.000000
      * Repulsion:
        kExp                           1.500000    1.000000
        rExp                           1.000000
      * Coulomb:
        alpha                          2.000000
        third order                    shell-resolved
        anisotropic                    true
        a3                             3.000000
        a5                             4.000000
        cn-shift                       1.200000
        cn-exp                         4.000000
        max-rad                        5.000000

q/qsh data taken from xtbrestart
CAMM data taken from xtbrestart

          ...................................................
          :                      SETUP                      :
          :.................................................:
          :  # basis functions                  43          :
          :  # atomic orbitals                  42          :
          :  # shells                           24          :
          :  # electrons                        40          :
          :  max. iterations                   250          :
          :  Hamiltonian                  GFN2-xTB          :
          :  restarted?                       true          :
          :  GBSA solvation                  false          :
          :  PC potential                    false          :
          :  electronic temp.          300.0000000     K    :
          :  accuracy                    0.2000000          :
          :  -> integral cutoff          0.3198970E+02      :
          :  -> integral neglect         0.2000000E-08      :
          :  -> SCF convergence          0.2000000E-06 Eh   :
          :  -> wf. convergence          0.2000000E-04 e    :
          :  Broyden damping             0.4000000          :
          :  net charge                          0          :
          :  unpaired electrons                  0          :
          ...................................................

 iter      E             dE          RMSdq      gap      omega  full diag
   1    -21.4803470 -0.214803E+02  0.827E-02    3.88       0.0  T
   2    -21.4803478 -0.752840E-06  0.472E-02    3.88       1.0  T
   3    -21.4803443  0.350113E-05  0.219E-02    3.88       1.1  T
   4    -21.4803483 -0.399742E-05  0.577E-03    3.88       4.3  T
   5    -21.4803483  0.401863E-07  0.350E-03    3.88       7.1  T
   6    -21.4803483 -0.593312E-07  0.208E-03    3.88      12.0  T
   7    -21.4803483  0.778567E-09  0.151E-03    3.88      16.5  T
   8    -21.4803483 -0.914218E-08  0.502E-04    3.88      49.8  T
   9    -21.4803483 -0.850697E-10  0.216E-04    3.88     115.8  T
  10    -21.4803483 -0.250694E-09  0.140E-04    3.88     178.1  T
  11    -21.4803483 -0.298535E-10  0.615E-05    3.88     406.8  T

   *** convergence criteria satisfied after 11 iterations ***

         #    Occupation            Energy/Eh            Energy/eV
      -------------------------------------------------------------
         1        2.0000           -0.7352907             -20.0083
       ...           ...                  ...                  ...
        14        2.0000           -0.4602322             -12.5236
        15        2.0000           -0.4559857             -12.4080
        16        2.0000           -0.4403391             -11.9822
        17        2.0000           -0.4293061             -11.6820
        18        2.0000           -0.4066573             -11.0657
        19        2.0000           -0.4045901             -11.0095
        20        2.0000           -0.3928628             -10.6903 (HOMO)
        21                         -0.2501463              -6.8068 (LUMO)
        22                         -0.2331982              -6.3456
        23                         -0.2186762              -5.9505
        24                         -0.1688371              -4.5943
        25                          0.0240483               0.6544
       ...                                ...                  ...
        42                          0.6478893              17.6300
      -------------------------------------------------------------
                  HL-Gap            0.1427165 Eh            3.8835 eV
             Fermi-level           -0.3215045 Eh           -8.7486 eV

 SCC (total)                   0 d,  0 h,  0 min,  0.201 sec
 SCC setup                      ...        0 min,  0.000 sec (  0.131%)
 Dispersion                     ...        0 min,  0.000 sec (  0.048%)
 classical contributions        ...        0 min,  0.000 sec (  0.019%)
 integral evaluation            ...        0 min,  0.121 sec ( 59.944%)
 iterations                     ...        0 min,  0.079 sec ( 39.098%)
 molecular gradient             ...        0 min,  0.001 sec (  0.664%)
 printout                       ...        0 min,  0.000 sec (  0.085%)

         :::::::::::::::::::::::::::::::::::::::::::::::::::::
         ::                     SUMMARY                     ::
         :::::::::::::::::::::::::::::::::::::::::::::::::::::
         :: total energy             -21.129367216723 Eh    ::
         :: gradient norm              0.007194037401 Eh/a0 ::
         :: HOMO-LUMO gap              3.883512556261 eV    ::
         ::.................................................::
         :: SCC energy               -21.480284607691 Eh    ::
         :: -> isotropic ES            0.004384037103 Eh    ::
         :: -> anisotropic ES          0.002793633096 Eh    ::
         :: -> anisotropic XC          0.016947537535 Eh    ::
         :: -> dispersion             -0.014121636436 Eh    ::
         :: repulsion energy           0.350917390968 Eh    ::
         :: add. restraining           0.000000000000 Eh    ::
         :: total charge               0.000000000000 e     ::
         :::::::::::::::::::::::::::::::::::::::::::::::::::::


Property printout bound to 'properties.out'

           -------------------------------------------------
          | TOTAL ENERGY              -21.129367216723 Eh   |
          | GRADIENT NORM               0.007194037401 Eh/α |
          | HOMO-LUMO GAP               3.883512556261 eV   |
           -------------------------------------------------

------------------------------------------------------------------------
 * finished run on 2026/03/16 at 14:18:17.257     
------------------------------------------------------------------------
 total:
 * wall-time:     0 d,  0 h,  0 min,  0.294 sec
 *  cpu-time:     0 d,  0 h,  0 min,  0.513 sec
 * ratio c/w:     1.743 speedup
 SCF:
 * wall-time:     0 d,  0 h,  0 min,  0.202 sec
 *  cpu-time:     0 d,  0 h,  0 min,  0.420 sec
 * ratio c/w:     2.085 speedup


-------------------------   --------------------
FINAL SINGLE POINT ENERGY       -21.129367216720
-------------------------   --------------------


-------------
DIPOLE MOMENT
-------------
                                X             Y             Z
Total Dipole Moment    :     -0.03700      -1.32500      -0.30100
                        -----------------------------------------
Magnitude (a.u.)       :      1.35926
Magnitude (Debye)      :      3.45497


------------------
CARTESIAN GRADIENT
------------------

   1   C   :    0.000190649   -0.000189007    0.001967598
   2   C   :    0.000513305   -0.000768778   -0.000927121
   3   C   :   -0.000440801    0.000393953   -0.000606047
   4   C   :   -0.000143754   -0.000180234    0.001609069
   5   C   :    0.001352725    0.000517459   -0.001378867
   6   C   :   -0.001617092   -0.000910100   -0.001794831
   7   H   :    0.001337509    0.000439911    0.002938588
   8   H   :    0.001049332   -0.000215832    0.001333945
   9   H   :   -0.000124307    0.000178202   -0.000413341
  10   H   :   -0.000074270   -0.000045554   -0.000409616
  11   H   :   -0.000867376   -0.000277865    0.002356671
  12   H   :   -0.000809949    0.000186291    0.001108810
  13   H   :   -0.000162851    0.000188400   -0.001503991
  14   H   :   -0.000576232    0.000515466   -0.001884928
  15   H   :    0.000293143   -0.000159556   -0.001560065
  16   I   :    0.000079971    0.000327243   -0.000835874

Difference to translation invariance:
           :   -0.0000000000   -0.0000000000   -0.0000000000

Difference to rotation invariance:
           :   -0.0000002435   -0.0000000157   -0.0000000047

Norm of the Cartesian gradient     ...    0.0071940374
RMS gradient                       ...    0.0010383699
MAX gradient                       ...    0.0029385878
------------------------------------------------------------------------------
                         ORCA GEOMETRY RELAXATION STEP
------------------------------------------------------------------------------

Reading the OPT-File                    .... done
Getting information on internals        .... done
Copying old internal coords+grads       .... done
Making the new internal coordinates     .... (2022 redundants) done
Validating the new internal coordinates .... (2022 redundants) done
Calculating the B-matrix                .... done
Calculating the G,G- and P matrices     .... done
Transforming gradient to internals      .... done
Projecting the internal gradient        .... done
Number of atoms                         ....  16
Number of internal coordinates          .... 150
Current Energy                          ....   -21.129367217 Eh
Current gradient norm                   ....     0.007194037 Eh/bohr
Maximum allowed component of the step   ....  0.300
Current trust radius                    ....  0.300
Updating the Hessian (BFGS)             .... done
Forming the augmented Hessian           .... done
Diagonalizing the augmented Hessian     .... done
Last element of RFO vector              ....  0.804439363
Lowest eigenvalues of augmented Hessian:
 -0.002563615  0.004316105  0.014306359  0.017396702  0.023395062
Length of the computed step             ....  0.738445681
Warning: the length of the step is outside the trust region - taking restricted step instead
The input lambda is                     ....     0.000907
   iter:   5  x=   -0.004862  g=  194.784662 f(x)=     0.381521
   iter:  10  x=   -0.009220  g=   15.840301 f(x)=     0.000005
The output lambda is                    ....    -0.009220 (12 iterations)
The final length of the internal step   ....  0.300000000
Converting the step to Cartesian space:
 Initial RMS(Int)=    0.0244948974
Transforming coordinates:
 Iter   0:  RMS(Cart)=    0.0268005763 RMS(Int)=    0.0245415220
done
Storing new coordinates                 .... done
The predicted energy change is          ....    -0.000962229
Previously predicted energy change      ....    -0.000573583
Actually observed energy change         ....    -0.000987447
Ratio of predicted to observed change   ....     1.721543101
New trust radius                        ....     0.200000000

                                .--------------------.
          ----------------------|Geometry convergence|-------------------------
          Item                value                   Tolerance       Converged
          ---------------------------------------------------------------------
          Energy change      -0.0009874475            0.0000050000      NO
          RMS gradient        0.0003484265            0.0001000000      NO
          MAX gradient        0.0014435434            0.0003000000      NO
          RMS step            0.0244948974            0.0020000000      NO
          MAX step            0.0993435691            0.0040000000      NO
          -------------------------------------------------------------------------
          ........................................................
          Max(Bonds)      0.0526      Max(Angles)    1.20
          Max(Dihed)        2.08      Max(Improp)    0.00
          ---------------------------------------------------------------------

The optimization has not yet converged - more geometry cycles are needed


[...]
     43       0.883792   0.004295  -0.001093   0.016066   0.001338   0.003335
     44       0.009602   0.000257  -0.001173   0.003617   0.001077   0.000055
     45       0.001566   0.000009  -0.000004  -0.000021   0.000009   0.000005
     46      -0.001226  -0.000025   0.000004   0.000445  -0.000011  -0.000013
     47      -0.000152   0.000012   0.000006   0.000014  -0.000001  -0.000004
                 36         37         38         39         40         41    
      0      -0.335565   0.021201  -0.314567  -0.001428   0.001935  -0.005047
      1       0.021668  -0.001307   0.029332   0.006687  -0.007842   0.005759
      2       0.011325  -0.000933   0.011099   0.000281  -0.000330   0.000355
      3       0.310250  -0.018426   0.402448   0.032514  -0.015823   0.001322
      4      -0.006819   0.001553   0.036641  -0.065183   0.029034  -0.003225
      5      -0.010264   0.000679  -0.009855  -0.003150   0.001391  -0.000151
      6       0.341774  -0.027970  -0.374449  -0.012641  -0.034121   0.000016
      7      -0.002071  -0.000956  -0.037647   0.027040   0.065945  -0.007932
      8       0.002272  -0.000028  -0.000959   0.000221   0.000689  -0.000120
      9      -0.359478   0.027819   0.285205   0.000024   0.004692   0.053677
     10       0.022749  -0.001364  -0.026767  -0.000157  -0.013476  -0.040133
     11      -0.001546   0.000081   0.001217   0.000002  -0.000182  -0.000423
     12      -0.024257  -0.375573   0.003002  -0.000751   0.000019  -0.004166
     13      -0.020381  -0.319398   0.003007   0.000130   0.000186   0.000990
     14       0.000794   0.014600  -0.000354   0.000049  -0.000044   0.000373
     15       0.026525   0.411420  -0.003243   0.000173   0.000259  -0.000278
     16       0.020075   0.310255  -0.003006   0.000915  -0.001207  -0.000419
     17      -0.001076  -0.017230   0.000087   0.000036  -0.000067   0.000004
     18       0.075314  -0.004567   0.062598  -0.045326   0.029689   0.013884
     19      -0.304820   0.018391  -0.267496  -0.053424   0.032634   0.023534
     20      -0.011319   0.002105  -0.012433  -0.000442   0.000271   0.000336
     21       0.193386  -0.011480   0.159503   0.031024  -0.033296   0.042887
     22       0.285440  -0.017622   0.262932  -0.052626   0.068762  -0.093888
     23       0.003079   0.000329   0.003491  -0.002798   0.003273  -0.004507
     24      -0.012253  -0.000405  -0.205487  -0.378399   0.160220  -0.016221
     25      -0.184033   0.010055  -0.255283   0.826912  -0.345404   0.038850
     26      -0.005763   0.000333  -0.008820   0.038505  -0.016318   0.001762
     27      -0.028048   0.003878   0.200528   0.163461   0.377766  -0.036622
     28      -0.202085   0.015379   0.237945  -0.359568  -0.818652   0.084762
     29      -0.005138   0.000273  -0.000625  -0.004178  -0.009294   0.001095
     30       0.082418  -0.003994  -0.059774   0.012654   0.048903  -0.214847
     31      -0.323530   0.022877   0.241006   0.016499   0.053756  -0.328340
     32      -0.004928   0.000061   0.001272   0.000362   0.000996  -0.005766
     33       0.202257  -0.014606  -0.140410  -0.003463  -0.067140  -0.384546
     34       0.306275  -0.024011  -0.238695  -0.001046   0.130814   0.817790
     35       0.004534  -0.000491  -0.002992  -0.000146   0.001836   0.011512
     36       0.011204   0.174192  -0.000432  -0.001734  -0.002151   0.005627
     37      -0.027350  -0.405091   0.004278   0.000926   0.000445  -0.002832
     38      -0.000921  -0.026191   0.002355   0.000236   0.000096  -0.000497
     39      -0.025223  -0.363857   0.002364   0.001284  -0.001664  -0.001256
     40       0.014788   0.225969  -0.002008  -0.010308   0.013683   0.011296
     41       0.003058   0.032445  -0.000938  -0.000531   0.000860   0.000584
     42      -0.017208  -0.278844   0.001285   0.007371   0.000273   0.049064
     43       0.012586   0.167444  -0.004135  -0.002309   0.000100  -0.015644
     44      -0.000221   0.025025   0.002172  -0.000538   0.000049  -0.004648
     45       0.000030   0.000328  -0.000009  -0.000000   0.000002  -0.000003
     46       0.000024   0.000955   0.000023  -0.000007  -0.000013   0.000001
     47      -0.000003  -0.000001   0.000014   0.000000   0.000007  -0.000003
                 42         43         44         45         46         47    
      0      -0.004737  -0.057787   0.001096   0.022412  -0.014177   0.000638
      1       0.000957   0.028634   0.000790   0.073867  -0.050186   0.005611
      2       0.000186   0.002755  -0.000013   0.001818  -0.001272   0.000158
      3       0.000041   0.002337   0.000392  -0.003340   0.004024  -0.000668
      4       0.000540   0.003309  -0.000872   0.009141  -0.008338   0.001447
      5       0.000002   0.000025  -0.000039   0.000395  -0.000411   0.000094
      6      -0.000227  -0.000405  -0.000020   0.001988   0.005674  -0.000693
      7       0.000381   0.003288  -0.000278  -0.005235  -0.011649   0.001436
      8       0.000013   0.000039   0.000013  -0.000069  -0.000116  -0.000004
      9       0.001424  -0.006375   0.002286  -0.020076  -0.027606   0.001343
     10      -0.002191   0.002159  -0.000646  -0.046981  -0.070014   0.005426
     11      -0.000039   0.000014  -0.000014  -0.000814  -0.001202   0.000106
     12       0.040173  -0.001495   0.068547   0.000231  -0.000917  -0.015220
     13      -0.011298   0.000434  -0.015750  -0.000145   0.000431   0.007943
     14      -0.003343   0.000119  -0.005518  -0.000024   0.000112   0.001386
     15       0.014430  -0.000336  -0.028809   0.001322  -0.006468  -0.071330
     16       0.054652  -0.005269  -0.028975  -0.000346   0.003547   0.056173
     17       0.001077  -0.000154   0.000837  -0.000102   0.000570   0.006702
     18       0.029263   0.292672  -0.010904  -0.446086   0.291965  -0.025678
     19       0.040781   0.420857  -0.014192  -0.557104   0.364980  -0.031474
     20       0.000473   0.005308  -0.000177  -0.005260   0.003511  -0.000248
     21       0.023139   0.349979  -0.001303   0.191430  -0.136271   0.019578
     22      -0.052087  -0.768194   0.003942  -0.352252   0.251974  -0.037457
     23      -0.002411  -0.036774   0.000016  -0.017758   0.012699  -0.001891
     24       0.003197   0.014332  -0.005548   0.029553  -0.033699   0.006448
     25      -0.006885  -0.035213   0.012092  -0.067639   0.082782  -0.015262
     26      -0.000219  -0.001684   0.000519  -0.003069   0.003754  -0.000868
     27       0.002370   0.015325  -0.000805  -0.014866  -0.045956   0.006485
     28      -0.005027  -0.036679   0.002147   0.031102   0.109566  -0.015154
     29      -0.000013  -0.000426  -0.000140   0.000394   0.001291  -0.000055
     30      -0.001594   0.033873  -0.013410   0.324482   0.462283  -0.029936
     31      -0.003699   0.048555  -0.019115   0.415352   0.592126  -0.037922
     32      -0.000040   0.000821  -0.000334   0.007581   0.010741  -0.000717
     33      -0.014699   0.035315  -0.012788  -0.096174  -0.155917   0.015851
     34       0.030454  -0.074856   0.027344   0.163698   0.269334  -0.028819
     35       0.000380  -0.001052   0.000245   0.002309   0.003742  -0.000469
     36      -0.245833   0.009872   0.352026  -0.015966   0.077127   0.831360
     37       0.117172  -0.006014  -0.139699   0.006251  -0.028095  -0.293948
     38       0.020120  -0.001218  -0.027990   0.001184  -0.006022  -0.064670
     39       0.096425  -0.008296  -0.060365   0.000849  -0.000257   0.022730
     40      -0.786233   0.069989   0.426282  -0.001232  -0.016756  -0.408361
     41      -0.035391   0.003272   0.019738   0.000027  -0.000859  -0.016513
     42      -0.505923   0.020550  -0.770101  -0.003424   0.011087   0.175616
     43       0.164077  -0.006328   0.253148   0.000872  -0.004116  -0.059835
     44       0.042872  -0.001637   0.065245   0.000185  -0.000967  -0.015044
     45       0.000037  -0.000002   0.000039  -0.000000  -0.000000   0.000012
     46      -0.000091  -0.000000  -0.000056  -0.000001   0.000010  -0.000013
     47      -0.000006   0.000000  -0.000006   0.000000  -0.000002  -0.000001


The first frequency considered to be a vibration is 7
The total number of vibrations considered is 41


--------------------------
THERMOCHEMISTRY AT 298.15K
--------------------------

Temperature         ...   298.15 K
Pressure            ...     1.00 atm
Total Mass          ...   208.04 AMU
Quasi RRHO          ...     True
Cut-Off Frequency   ...     1.00 cm^-1

Throughout the following assumptions are being made:
  (1) The electronic state is orbitally nondegenerate
  (2) There are no thermally accessible electronically excited states
  (3) Hindered rotations indicated by low frequency modes are not
      treated as such but are treated as vibrations and this may
      cause some error
  (4) All equations used are the standard statistical mechanics
      equations for an ideal gas
  (5) All vibrations are strictly harmonic

freq.      25.52  E(vib)   ...       0.56 
freq.      30.66  E(vib)   ...       0.55 
freq.      48.25  E(vib)   ...       0.53 
freq.      66.25  E(vib)   ...       0.50 
freq.      78.65  E(vib)   ...       0.49 
freq.     154.10  E(vib)   ...       0.40 
freq.     296.36  E(vib)   ...       0.27 
freq.     314.54  E(vib)   ...       0.25 
freq.     500.85  E(vib)   ...       0.14 
freq.     510.42  E(vib)   ...       0.14 
freq.     545.76  E(vib)   ...       0.12 
freq.     569.43  E(vib)   ...       0.11 
freq.     742.07  E(vib)   ...       0.06 
freq.     868.77  E(vib)   ...       0.04 
freq.     887.29  E(vib)   ...       0.04 
freq.     891.59  E(vib)   ...       0.03 
freq.     913.03  E(vib)   ...       0.03 
freq.     974.15  E(vib)   ...       0.03 
freq.     986.56  E(vib)   ...       0.02 
freq.     993.02  E(vib)   ...       0.02 
freq.    1001.92  E(vib)   ...       0.02 
freq.    1043.63  E(vib)   ...       0.02 
freq.    1198.51  E(vib)   ...       0.01 
freq.    1226.56  E(vib)   ...       0.01 
freq.    1264.13  E(vib)   ...       0.01 
freq.    1293.26  E(vib)   ...       0.01 
freq.    1382.41  E(vib)   ...       0.01 
freq.    1397.36  E(vib)   ...       0.00 
freq.    1423.64  E(vib)   ...       0.00 
freq.    1663.99  E(vib)   ...       0.00 
freq.    1667.12  E(vib)   ...       0.00 
freq.    1674.62  E(vib)   ...       0.00 
freq.    3047.67  E(vib)   ...       0.00 
freq.    3061.17  E(vib)   ...       0.00 
freq.    3092.80  E(vib)   ...       0.00 
freq.    3095.91  E(vib)   ...       0.00 
freq.    3098.96  E(vib)   ...       0.00 
freq.    3103.69  E(vib)   ...       0.00 
freq.    3127.62  E(vib)   ...       0.00 
freq.    3129.21  E(vib)   ...       0.00 
freq.    3135.04  E(vib)   ...       0.00 

------------
INNER ENERGY
------------

The inner energy is: U= E(el) + E(ZPE) + E(vib) + E(rot) + E(trans)
    E(el)   - is the total energy from the electronic structure calculation
              = E(kin-el) + E(nuc-el) + E(el-el) + E(nuc-nuc)
    E(ZPE)  - the the zero temperature vibrational energy from the frequency calculation
    E(vib)  - the the finite temperature correction to E(ZPE) due to population
              of excited vibrational states
    E(rot)  - is the rotational thermal energy
    E(trans)- is the translational thermal energy

Summary of contributions to the inner energy U:
Electronic energy                ...    -21.13614602 Eh
Zero point energy                ...      0.12422043 Eh      77.95 kcal/mol
Thermal vibrational correction   ...      0.00704527 Eh       4.42 kcal/mol
Thermal rotational correction    ...      0.00141627 Eh       0.89 kcal/mol
Thermal translational correction ...      0.00141627 Eh       0.89 kcal/mol
-----------------------------------------------------------------------
Total thermal energy                    -21.00204778 Eh


Summary of corrections to the electronic energy:
(perhaps to be used in another calculation)
Total thermal correction                  0.00987781 Eh       6.20 kcal/mol
Non-thermal (ZPE) correction              0.12422043 Eh      77.95 kcal/mol
-----------------------------------------------------------------------
Total correction                          0.13409824 Eh      84.15 kcal/mol


--------
ENTHALPY
--------

The enthalpy is H = U + kB*T
                kB is Boltzmann's constant
Total thermal energy              ...    -21.00204778 Eh 
Thermal Enthalpy correction       ...      0.00094421 Eh       0.59 kcal/mol
-----------------------------------------------------------------------
Total Enthalpy                    ...    -21.00110357 Eh


WARNING (ORCA/SYM): The number of Z matrix atoms does not agree with
the number of centers in the basis set. The point group will therefore
be determined without considering basis set information.


Note: Only C1 symmetry has been detected, increase convergence thresholds 
      if your molecule has a higher symmetry. Symmetry factor of 1.0 is   
      used for the rotational entropy correction. 
 

Note: Rotational entropy computed according to Herzberg 
Infrared and Raman Spectra, Chapter V,1, Van Nostrand Reinhold, 1945 
Point Group:  C1, Symmetry Number:   1  
Rotational constants in cm-1:     0.073115     0.023250     0.020898 

Vibrational entropy computed according to the QRRHO of S. Grimme
Chem.Eur.J. 2012 18 9955 using a reference frequency of 100.0 cm-1


-------
ENTROPY
-------

The entropy contributions are T*S = T*(S(el)+S(vib)+S(rot)+S(trans))
     S(el)   - electronic entropy
     S(vib)  - vibrational entropy
     S(rot)  - rotational entropy
     S(trans)- translational entropy
The entropies will be listed as multiplied by the temperature to get
units of energy

Electronic entropy                ...      0.00000000 Eh      0.00 kcal/mol
Vibrational entropy               ...      0.01325907 Eh      8.32 kcal/mol
Rotational entropy                ...      0.01434752 Eh      9.00 kcal/mol
Translational entropy             ...      0.01990873 Eh     12.49 kcal/mol
-----------------------------------------------------------------------
Final entropy term                ...      0.04751533 Eh     29.82 kcal/mol

In case the symmetry of your molecule has not been determined correctly
or in case you have a reason to use a different symmetry number we print 
out the resulting rotational entropy values for sn=1,12:

 non-linear molecules -----------------------------------
|  sn= 1 | S(rot)=       0.01434752 Eh      9.00 kcal/mol|
|  sn= 2 | S(rot)=       0.01369306 Eh      8.59 kcal/mol|
|  sn= 3 | S(rot)=       0.01331023 Eh      8.35 kcal/mol|
|  sn= 4 | S(rot)=       0.01303861 Eh      8.18 kcal/mol|
|  sn= 5 | S(rot)=       0.01282792 Eh      8.05 kcal/mol|
|  sn= 6 | S(rot)=       0.01265577 Eh      7.94 kcal/mol|
|  sn= 7 | S(rot)=       0.01251023 Eh      7.85 kcal/mol|
|  sn= 8 | S(rot)=       0.01238415 Eh      7.77 kcal/mol|
|  sn= 9 | S(rot)=       0.01227294 Eh      7.70 kcal/mol|
|  sn=10 | S(rot)=       0.01217346 Eh      7.64 kcal/mol|
|  sn=11 | S(rot)=       0.01208347 Eh      7.58 kcal/mol|
|  sn=12 | S(rot)=       0.01200132 Eh      7.53 kcal/mol|
 linear molecules ---------------------------------------
|  Dinfh | S(rot)=       0.00897800 Eh      5.63 kcal/mol|
|  Cinfv | S(rot)=       0.00963246 Eh      6.04 kcal/mol|
 --------------------------------------------------------


-------------------
GIBBS FREE ENERGY
-------------------

The Gibbs free energy is G = H - T*S

Total enthalpy                    ...    -21.00110357 Eh 
Total entropy correction          ...     -0.04751533 Eh    -29.82 kcal/mol
-----------------------------------------------------------------------
Final Gibbs free energy         ...    -21.04861890 Eh

For completeness - the Gibbs free energy minus the electronic energy
G-E(el)                           ...      0.08752712 Eh     54.92 kcal/mol


--------------------------------
SUGGESTED CITATIONS FOR THIS RUN
--------------------------------

Below you find a list of papers that are relevant to this ORCA run
We neither can nor want to force you to cite these papers, but we appreciate if you do
You receive ORCA, which is the product of decades of hard work by many enthusiastic individuals, for free
The only thing we kindly ask in return is that you cite our papers,
We deeply appreciate it, if you show your appreciation for ORCA by not just citing the generic ORCA reference.

Please note that relegating all ORCA citations to the supporting information does *not* help us.
SI sections are not indexed - citations you put there will not count into any citation statistics
But we need these citations in order to attract the funding resources that allow us to do what we are doing

Therefore, if you are a happy ORCA user, please consider citing a few of the papers listed below in the main body of your paper

In addition to the list printed below, the program has created the file reactant_optfreq.bibtex that contains the list in bibtex format
You can import this file easily into all common literature databanks and citation aid programs


List of essential papers. We consider these as the minimum necessary citations

  1. Bannwarth, C.; Ehlert, S.; Grimme, S.
     GFN2-xTB—An Accurate and Broadly Parametrized Self-Consistent Tight-Binding Quantum Chemical Method with Multipole Electrostatics and Density-Dependent Dispersion Contributions
     J. Chem. Theory Comput. 2019 15(3), 1652-1671
     doi.org/10.1021/acs.jctc.8b01176
  2. Neese, F.
     Software update: the ORCA program system, version 6.0
     WIRES Comput. Molec. Sci. 2025 15(1), e70019
     doi.org/10.1002/wcms.7019

List of papers to cite with high priority. The work reported in these papers was absolutely
necessary for this run to complete.
Our perspective: the developers of density functionals and basis sets usually get cited in chemistry papers
Good! But without the algorithms to do something with them, the functionals or basis sets would not do anything.
Hence, in our opinion, the algorithm design and method developments papers are equally worthy of getting cited

  1. Bykov, D.; Petrenko, T.; Izsak, R.; Kossmann, S.; Becker, U.; Valeev, E.; Neese, F.
     Efficient implementation of the analytic second derivatives of Hartree-Fock and hybrid DFT energies: a detailed analysis of different approximations
     Molec. Phys. 2015 113 , 1961-1977
     doi.org/10.1080/00268976.2015.1025114
  2. Bannwarth, C.; Caldeweyher, E.; Ehlert, S.; Hansen, A.; Pracht, P.; Seibert, J.; Spicher, S.; Grimme, S.
     Extended tight-binding quantum chemistry methods
     WIRES Comput. Molec. Sci. 2020 11(2), e1493
     doi.org/10.1002/wcms.1493

List of suggested additional citations. These are papers that are important in the 'surrounding' of 
of this run, or papers that preceded the highly important papers. If you like your results we are grateful for a citation.

  1. Neese, F.
     The ORCA program system
     WIRES Comput. Molec. Sci. 2012 2(1), 73-78
     doi.org/10.1002/wcms.81
  2. Neese, F.
     Software update: the ORCA program system, version 4.0
     WIRES Comput. Molec. Sci. 2018 8(1), 1-6
     doi.org/10.1002/wcms.1327
  3. Neese, F.; Wennmohs, F.; Becker, U.; Riplinger, C.
     The ORCA quantum chemistry program package
     J. Chem. Phys. 2020 152(22), 224108
     doi.org/10.1063/5.0004608
  4. Neese, F.
     Software update: The ORCA program system—Version 5.0
     WIRES Comput. Molec. Sci. 2022 12(1), e1606
     doi.org/10.1002/wcms.1606

List of optional additional citations

  1. Neese, F.
     Approximate second-order SCF convergence for spin unrestricted wavefunctions
     Chem. Phys. Lett. 2000 325(1-3), 93-98
     doi.org/10.1016/s0009-2614(00)00662-x

Timings for individual modules:

Sum of individual times          ...        5.692 sec (=   0.095 min)
Geometry relaxation              ...        0.370 sec (=   0.006 min)   6.5 %
XTB module                       ...        5.322 sec (=   0.089 min)  93.5 %
                             ****ORCA TERMINATED NORMALLY****
TOTAL RUN TIME: 0 days 0 hours 0 minutes 6 seconds 616 msec
