
                                 *****************
                                 * O   R   C   A *
                                 *****************

                                            #,                                       
                                            ###                                      
                                            ####                                     
                                            #####                                    
                                            ######                                   
                                           ########,                                 
                                     ,,################,,,,,                         
                               ,,#################################,,                 
                          ,,##########################################,,             
                       ,#########################################, ''#####,          
                    ,#############################################,,   '####,        
                  ,##################################################,,,,####,       
                ,###########''''           ''''###############################       
              ,#####''   ,,,,##########,,,,          '''####'''          '####       
            ,##' ,,,,###########################,,,                        '##       
           ' ,,###''''                  '''############,,,                           
         ,,##''                                '''############,,,,        ,,,,,,###''
      ,#''                                            '''#######################'''  
     '                                                          ''''####''''         
             ,#######,   #######,   ,#######,      ##                                
            ,#'     '#,  ##    ##  ,#'     '#,    #''#        ,####,    ,#,          
            ##       ##  ##   ,#'  ##            #'  '#       #'       ,# #          
            ##       ##  #######   ##           ,######,      #####,      #          
            '#,     ,#'  ##    ##  '#,     ,#' ,#      #,     #,   #      #          
             '#######'   ##     ##  '#######'  #'      '#     '####' #    #          



                #########################################################
                #                        -***-                          #
                #          Department of theory and spectroscopy        #
                #                                                       #
                #                      Frank Neese                      #
                #                                                       #
                #     Directorship, Architecture, Infrastructure        #
                #                    SHARK, DRIVERS                     #
                #        Core code/Algorithms in most modules           #
                #                                                       #
                #        Max Planck Institute fuer Kohlenforschung      #
                #                Kaiser Wilhelm Platz 1                 #
                #                 D-45470 Muelheim/Ruhr                 #
                #                      Germany                          #
                #                                                       #
                #                  All rights reserved                  #
                #                        -***-                          #
                #########################################################


                         Program Version 6.1.0  -  RELEASE   -
                                (GIT: $679e74b$)
                          ($2025-06-10 18:02:51 +0200$)


 With contributions from (in alphabetic order):
[Max-Planck-Institut fuer Kohlenforschung]                               
  Daniel Aravena         : Magnetic Suceptibility                        
  Michael Atanasov       : Ab Initio Ligand Field Theory (pilot matlab implementation)
  Alexander A. Auer      : GIAO ZORA, VPT2 properties, NMR spectrum      
  Ute Becker             : All parallelization in ORCA, NUMFREQ, NUMCALC 
  Giovanni Bistoni       : ED, misc. LED, open-shell LED, HFLD           
  Dmytro Bykov           : pre 5.0 version of the SCF Hessian            
  Marcos Casanova-Páez   : Triplet and SCS-CIS(D). UHF-(DLPNO)-IP/EA/STEOM-CCSD. UHF-CVS-IP/STEOM-CCSD   
  Vijay G. Chilkuri      : MRCI spin determinant printing, contributions to CSF-ICE 
  Pauline Colinet        : FMM embedding                                 
  Dipayan Datta          : RHF DLPNO-CCSD density                        
  Achintya Kumar Dutta   : EOM-CC, STEOM-CC                              
  Nicolas Foglia         : Exact transition moments, OPA infrastructure, MCD improvements    
  Dmitry Ganyushin       : Spin-Orbit,Spin-Spin,Magnetic field MRCI      
  Miquel Garcia-Rates    : C-PCM and meta-GGA Hessian, CCSD/C-PCM, Gaussian charge scheme 
  Tiago L. C. Gouveia    : GS-ROHF, GS-ROCIS                             
  Yang Guo               : DLPNO-NEVPT2, F12-NEVPT2, CIM, IAO-localization        
  Andreas Hansen         : Spin unrestricted coupled pair/coupled cluster methods 
  Ingolf Harden          : AUTO-CI MPn and infrastructure                
  Benjamin Helmich-Paris : MC-RPA, TRAH-(SCF,CASSCF), AVAS, COSX integrals, SCF dyn. polar., MC-PDFT, srDFT 
  Lee Huntington         : MR-EOM, pCC                                   
  Robert Izsak           : Overlap fitted RIJCOSX, COSX-SCS-MP3, EOM     
  Riya Kayal             : Wick's Theorem for AUTO-CI, AUTO-CI UHF-CCSDT 
  Emily Kempfer          : AUTO-CI RHF CISDT and CCSDT, approximate NEVPT4
  Christian Kollmar      : KDIIS, OOCD, Brueckner-CCSD(T), CCSD density, CASPT2, CASPT2-K, improved NEVPT2 
  Axel Koslowski         : Symmetry handling                             
  Simone Kossmann        : meta-GGA functionals, TD-DFT gradient, OOMP2, (MP2 Hessian; deprecated post 5.0) 
  Lucas Lang             : DCDCAS, Hyperfine gauge corrections, ICE-SOC+SSC
  Marvin Lechner         : AUTO-CI (C++ implementation), FIC-MRCC        
  Spencer Leger          : CASSCF response                               
  Dagmar Lenk            : GEPOL surface, SMD, ORCA-2-JSON               
  Dimitrios Liakos       : Extrapolation schemes; Compound Job, Property file
  Dimitrios Manganas     : Further ROCIS development; embedding schemes. LFT, Crystal Embedding 
  Dimitrios Pantazis     : SARC Basis sets                               
  Anastasios Papadopoulos: AUTO-CI, single reference methods and gradients 
  Taras Petrenko         : pre 6.0 DFT Hessian and TD-DFT gradient,  ECA, NRVS 
  Petra Pikulova         : Analytic Raman intensities                    
  Peter Pinski           : DLPNO-MP2, DLPNO-MP2 Gradient                 
  Shashank Vittal Rao    : ES-AILFT, MagRelax                            
  Christoph Reimann      : Effective Core Potentials                     
  Marius Retegan         : Local ZFS, SOC                                
  Christoph Riplinger    : Optimizer, TS searches, QM/MM, DLPNO-CCSD(T), (RO)-DLPNO pert. Triples 
  Michael Roemelt        : Original ROCIS implementation, recursive CI coupling coefficients
  Masaaki Saitow         : Open-shell DLPNO-CCSD energy and density      
  Barbara Sandhoefer     : DKH picture change effects                    
  Yorick L. A. Schmerwitz: GMF and freeze-and-release deltaSCF, NEB S-IDPP initial path                    
  Kantharuban Sivalingam : CASSCF convergence/infrastructure, NEVPT2, NEVPT3, NEVPT4(SD), FIC-MRCI and CEPA variants
  Bernardo de Souza      : ESD, SOC TD-DFT                               
  Georgi L. Stoychev     : AutoAux, RI-MP2 NMR, DLPNO-MP2 response, X2C  
  Van Anh Tran           : RI-MP2 g-tensors                              
  Willem Van den Heuvel  : Paramagnetic NMR                              
  Zikuan Wang            : NOTCH, Electric field optimization            
  Frank Wennmohs         : Technical directorship and infrastructure     
  Hang Xu                : AUTO-CI-Response properties                   
                                                                         
[FACCTs GmbH]                                                            
  Markus Bursch, Nicolas Foglia, Miquel Garcia-Rates, Ingolf Harden, Hagen Neugebauer, Anastasios Papadopoulos, 
  Christoph Riplinger, Bernardo de Souza, Georgi L. Stoychev                                                    
                                                                 
  APM, various basis sets, CI-OPT, improved COSX, DLPNO-Multilevel,           
  DOCKER, DRACO, updates on ESD, Fragmentator, GOAT, IRC, LR-CPCM, L-BFGS, MBIS, meta-GGA TD-DFT gradient, ML-optimized integration grids, 
  MM, NACMEs, nearIR, NEB, NEB-TS, NL-DFT gradient (VV10), 2- and 3-layer-ONIOM, interface openCOSMO-RS, QMMM,   
  Crystal-QMMM, RESP, rigid body optimization, SF, symmetry and pop. for TD-DFT, various functionals, SOLVATOR                                   
                                                                         
[Other institutions]                                                     
  V. Asgeirsson          : NEB                                           
  Christoph Bannwarth    : sTDA-DFT, sTD-DFT, PBEh-3c, B97-3c, D3        
  Giovanni Bistoni       : ETS/NOCV, ADLD/ADEX, COVALED                  
  Martin Brehm           : Molecular dynamics                            
  Ronald Cardenas        : ETS/NOCV                                      
  Martina Colucci        : COVALED                                       
  Sebastian Ehlert       : rSCAN, r2SCAN, r2SCAN-3c, D4, dhf basis sets  
  Marvin Friede          : D4 for Fr, Ra, Ac-Lr                          
  Lars Goerigk           : TD-DFT with DH, B97 family of functionals     
  Stefan Grimme          : VdW corrections, initial TS optimization, DFT functionals, gCP, sTDA/sTD-DF 
  Waldemar Hujo          : DFT-NL                                        
  H. Jonsson             : NEB                                           
  Holger Kruse           : gCP                                           
  Marcel Mueller         : wB97X-3c, vDZP basis set                      
  Hagen Neugebauer       : wr2SCAN, Native XTB                           
  Gianluca Regni         : ADLD/ADEX                                     
  Tobias Risthaus        : pre 6.0 range-separated hybrid DFT and stability analysis
  Lukas Wittmann         : regularized MP2, r2SCAN double-hybrids, wr2SCAN        
                                                                         
We gratefully acknowledge several colleagues who have allowed us to      
interface, adapt or use parts of their codes:                            
  Ed Valeev, F. Pavosevic, A. Kumar             : LibInt (2-el integral package), F12 methods 
  Garnet Chan, S. Sharma, J. Yang, R. Olivares  : DMRG                   
  Ulf Ekstrom                                   : XCFun DFT Library      
  Mihaly Kallay                                 : mrcc  (arbitrary order and MRCC methods)
  Frank Weinhold                                : gennbo (NPA and NBO analysis)           
  Simon Mueller                                 : openCOSMO-RS                            
  Christopher J. Cramer and Donald G. Truhlar   : smd solvation model                     
  S Lehtola, MJT Oliveira, MAL Marques          : LibXC Library                           
  Liviu Ungur et al                             : ANISO software                          


 Your calculation uses the libint2 library for the computation of 2-el integrals
 For citations please refer to: http://libint.valeyev.net

 Your ORCA version has been built with support for libXC version: 7.0.0
 For citations please refer to: https://libxc.gitlab.io

 This ORCA versions uses:
   CBLAS   interface :  Fast vector & matrix operations
   LAPACKE interface :  Fast linear algebra routines
   SCALAPACK package :  Parallel linear algebra routines
   Shared memory     :  Shared parallel matrices
   BLAS/LAPACK       :  OpenBLAS 0.3.29  USE64BITINT DYNAMIC_ARCH NO_AFFINITY SkylakeX SINGLE_THREADED
        Core in use  :  SkylakeX
   Copyright (c) 2011-2014, The OpenBLAS Project


  ***********************************
  * Starting time: Mon Mar 16 14:16:03 2026
  * Host name:     midway3-login4.rcc.local
  * Process ID:    73271
  * Working dir.:  /home/rzhu16/evans-polanyi-principle-validation/runs/da_cl/geo_opt_reactant_product
  ***********************************

Your calculation utilizes the semiempirical GFN2-xTB method
Please cite in your paper:
Bannwarth, C.; Ehlert S.; Grimme, S. J. Chem. Theory Comput. 2019, 15, 1652.
   

================================================================================

================================================================================
                                        WARNINGS
                       Please study these warnings very carefully!
================================================================================


WARNING: Analytical Hessian for XTB is limited in the analysis of the data.
       : If you want to obtain extensive IR and deltaG analysis, please use ! XTB NumFreq. 


WARNING: Geometry Optimization
  ===> : Switching off AutoStart
         For restart on a previous wavefunction, please use MOREAD

WARNING: Found dipole moment calculation with XTB calculation
  ===> : Switching off dipole moment calculation


WARNING: Found frequency calculation in combination with XTB calculation
  ===> : Need to redirect dipole moment calculation to properties.out


================================================================================
                                       INPUT FILE
================================================================================
NAME = product_optfreq.inp
|  1> ! XTB2 Opt Freq PAL8
|  2> 
|  3> %geom
|  4>   MaxIter 500
|  5> end
|  6> 
|  7> * xyz 0 1
|  8>   C       0.241014      0.177608      0.424175
|  9>   C       1.356815      0.083983     -0.539417
| 10>   C       2.126745      1.206030     -0.513804
| 11>   C       3.267721      1.052002      0.410612
| 12>   C       2.467250      0.910584      1.775840
| 13>   C       1.088201      0.188307      1.766128
| 14>   H      -0.450578     -0.663882      0.440025
| 15>   H      -0.309552      1.111627      0.334556
| 16>   H       1.854074     -0.879448     -0.589928
| 17>   H       1.627904      2.167931     -0.474425
| 18>   H       3.950436      1.898463      0.472991
| 19>   H       3.827588      0.131593      0.247226
| 20>   H       0.468931      0.644161      2.539969
| 21>   H       1.264069     -0.849441      2.053788
| 22>   H       3.115140      0.401563      2.494604
| 23>   Cl      2.252872      2.557889      2.452313
| 24> *
| 25> 
| 26>                          ****END OF INPUT****
================================================================================

                       *****************************
                       * Geometry Optimization Run *
                       *****************************

Geometry optimization settings:
Update method            Update   .... BFGS
Choice of coordinates    CoordSys .... (2022) Redundant Internals
Initial Hessian          InHess   .... Almloef's Model
Max. no of cycles        MaxIter  .... 500

Convergence Tolerances:
Energy Change            TolE     ....  5.0000e-06 Eh
Max. Gradient            TolMAXG  ....  3.0000e-04 Eh/bohr
RMS Gradient             TolRMSG  ....  1.0000e-04 Eh/bohr
Max. Displacement        TolMAXD  ....  4.0000e-03 bohr
RMS Displacement         TolRMSD  ....  2.0000e-03 bohr
Strict Convergence                .... False

------------------------------------------------------------------------------
                        ORCA OPTIMIZATION COORDINATE SETUP
------------------------------------------------------------------------------

The optimization will be done in redundant internal coordinates (2022)
Making redundant internal coordinates   ...  (2022 redundants) done
Evaluating the initial hessian          ...  (Almloef) done
Evaluating the coordinates              ...  done
Calculating the B-matrix                .... done
Calculating the G-matrix                .... done
The number of degrees of freedom        ....   78

    -----------------------------------------------------------------
                    Redundant Internal Coordinates


    -----------------------------------------------------------------
         Definition                    Initial Value    Approx d2E/dq
    -----------------------------------------------------------------
      1. B(C   1,C   0)                  1.4773         0.453447   
      2. B(C   2,C   1)                  1.3610         0.694925   
      3. B(C   3,C   2)                  1.4765         0.454684   
      4. B(C   4,C   3)                  1.5889         0.300890   
      5. B(C   5,C   4)                  1.5568         0.338576   
      6. B(C   5,C   0)                  1.5870         0.302958   
      7. B(H   6,C   0)                  1.0893         0.360978   
      8. B(H   7,C   0)                  1.0879         0.362877   
      9. B(H   8,C   1)                  1.0854         0.366284   
     10. B(H   9,C   2)                  1.0843         0.367757   
     11. B(H  10,C   3)                  1.0893         0.361080   
     12. B(H  11,C   3)                  1.0896         0.360587   
     13. B(H  12,C   5)                  1.0909         0.358872   
     14. B(H  13,C   5)                  1.0911         0.358588   
     15. B(H  14,C   4)                  1.0934         0.355653   
     16. B(Cl 15,C   4)                  1.7937         0.318224   
     17. A(C   5,C   0,H   7)          109.5130         0.313810   
     18. A(C   1,C   0,C   5)           98.5561         0.362374   
     19. A(H   6,C   0,H   7)          110.0665         0.291302   
     20. A(C   1,C   0,H   6)          116.1081         0.335004   
     21. A(C   5,C   0,H   6)          109.3788         0.313543   
     22. A(C   1,C   0,H   7)          112.5152         0.335296   
     23. A(C   0,C   1,C   2)          111.2694         0.418887   
     24. A(C   2,C   1,H   8)          118.2611         0.360858   
     25. A(C   0,C   1,H   8)          115.6367         0.335818   
     26. A(C   1,C   2,C   3)          111.2796         0.419090   
     27. A(C   3,C   2,H   9)          115.1713         0.336195   
     28. A(C   1,C   2,H   9)          118.1503         0.361105   
     29. A(C   2,C   3,C   4)           99.0866         0.362119   
     30. A(H  10,C   3,H  11)          110.0571         0.291025   
     31. A(C   2,C   3,H  11)          113.0347         0.335095   
     32. A(C   4,C   3,H  10)          109.6163         0.313210   
     33. A(C   2,C   3,H  10)          116.0480         0.335172   
     34. A(C   4,C   3,H  11)          108.2106         0.313141   
     35. A(H  14,C   4,Cl 15)          104.5045         0.328347   
     36. A(C   5,C   4,Cl 15)          108.8190         0.362673   
     37. A(C   3,C   4,Cl 15)          107.6095         0.355460   
     38. A(C   3,C   4,H  14)          107.9236         0.312443   
     39. A(C   5,C   4,H  14)          108.2410         0.318491   
     40. A(C   3,C   4,C   5)          118.8297         0.344487   
     41. A(H  12,C   5,H  13)          107.5716         0.290491   
     42. A(C   4,C   5,H  13)          107.2673         0.318918   
     43. A(C   0,C   5,C   4)          118.7689         0.344884   
     44. A(C   0,C   5,H  13)          107.6107         0.313206   
     45. A(C   4,C   5,H  12)          107.7314         0.318960   
     46. A(C   0,C   5,H  12)          107.4331         0.313246   
     47. D(C   2,C   1,C   0,C   5)    -65.8227         0.015161   
     48. D(C   2,C   1,C   0,H   6)    177.5999         0.015161   
     49. D(H   8,C   1,C   0,H   6)    -43.7756         0.015161   
     50. D(C   2,C   1,C   0,H   7)     49.5191         0.015161   
     51. D(H   8,C   1,C   0,C   5)     72.8018         0.015161   
     52. D(C   3,C   2,C   1,C   0)     93.3176         0.033971   
     53. D(H   9,C   2,C   1,H   8)    179.3349         0.033971   
     54. D(C   3,C   2,C   1,H   8)    -44.1064         0.033971   
     55. D(H   9,C   2,C   1,C   0)    -43.2411         0.033971   
     56. D(H  10,C   3,C   2,C   1)    178.5662         0.015244   
     57. D(H  10,C   3,C   2,H   9)    -43.4922         0.015244   
     58. D(H  11,C   3,C   2,C   1)     50.0582         0.015244   
     59. D(C   4,C   3,C   2,H   9)     73.6753         0.015244   
     60. D(C   4,C   3,C   2,C   1)    -64.2663         0.015244   
     61. D(H  14,C   4,C   3,H  11)     39.7080         0.010000   
     62. D(C   5,C   4,C   3,C   2)     34.1159         0.010000   
     63. D(H  14,C   4,C   3,H  10)    -80.3275         0.010000   
     64. D(H  14,C   4,C   3,C   2)    157.7274         0.010000   
     65. D(C   5,C   4,C   3,H  11)    -83.9035         0.010000   
     66. D(C   5,C   4,C   3,H  10)    156.0609         0.010000   
     67. D(H  12,C   5,C   4,C   3)   -148.4918         0.010000   
     68. D(C   0,C   5,C   4,Cl 15)     97.3431         0.010000   
     69. D(C   0,C   5,C   4,H  14)   -149.6451         0.010000   
     70. D(C   0,C   5,C   4,C   3)    -26.1900         0.010000   
     71. D(H  12,C   5,C   0,H   7)     40.1206         0.010000   
     72. D(H  12,C   5,C   0,H   6)    -80.5784         0.010000   
     73. D(H  12,C   5,C   0,C   1)    157.7759         0.010000   
     74. D(C   4,C   5,C   0,H   7)    -82.3303         0.010000   
     75. D(C   4,C   5,C   0,H   6)    156.9707         0.010000   
     76. D(H  12,C   5,C   4,H  14)     88.0530         0.010000   
     77. D(C   4,C   5,C   0,C   1)     35.3250         0.010000   
     78. D(H  12,C   5,C   4,Cl 15)    -24.9588         0.010000   
    -----------------------------------------------------------------

Number of atoms                         .... 16
Number of degrees of freedom            .... 78


         *************************************************************
         *                GEOMETRY OPTIMIZATION CYCLE   1            *
         *************************************************************
---------------------------------
CARTESIAN COORDINATES (ANGSTROEM)
---------------------------------
  C     0.241014    0.177608    0.424175
  C     1.356815    0.083983   -0.539417
  C     2.126745    1.206030   -0.513804
  C     3.267721    1.052002    0.410612
  C     2.467250    0.910584    1.775840
  C     1.088201    0.188307    1.766128
  H    -0.450578   -0.663882    0.440025
  H    -0.309552    1.111627    0.334556
  H     1.854074   -0.879448   -0.589928
  H     1.627904    2.167931   -0.474425
  H     3.950436    1.898463    0.472991
  H     3.827588    0.131593    0.247226
  H     0.468931    0.644161    2.539969
  H     1.264069   -0.849441    2.053788
  H     3.115140    0.401563    2.494604
  Cl    2.252872    2.557889    2.452313

----------------------------
CARTESIAN COORDINATES (A.U.)
----------------------------
  NO LB    ZA    FRAG    MASS        X           Y           Z
   0 C   6.0000    0    12.011    0.455450    0.335630    0.801575
   1 C   6.0000    0    12.011    2.564009    0.158705   -1.019350
   2 C   6.0000    0    12.011    4.018966    2.279066   -0.970949
   3 C   6.0000    0    12.011    6.175098    1.987996    0.775944
   4 C   6.0000    0    12.011    4.662427    1.720754    3.355851
   5 C   6.0000    0    12.011    2.056402    0.355849    3.337498
   6 H   1.0000    0     1.008   -0.851469   -1.254555    0.831527
   7 H   1.0000    0     1.008   -0.584969    2.100671    0.632219
   8 H   1.0000    0     1.008    3.503692   -1.661916   -1.114802
   9 H   1.0000    0     1.008    3.076293    4.096796   -0.896533
  10 H   1.0000    0     1.008    7.465242    3.587575    0.893823
  11 H   1.0000    0     1.008    7.233093    0.248675    0.467189
  12 H   1.0000    0     1.008    0.886151    1.217288    4.799846
  13 H   1.0000    0     1.008    2.388744   -1.605211    3.881097
  14 H   1.0000    0     1.008    5.886761    0.758844    4.714118
  15 Cl 17.0000    0    35.453    4.257311    4.833710    4.634200

      -----------------------------------------------------------      
     |                   =====================                   |     
     |                           x T B                           |     
     |                   =====================                   |     
     |                         S. Grimme                         |     
     |          Mulliken Center for Theoretical Chemistry        |     
     |                    University of Bonn                     |     
      -----------------------------------------------------------      

   * xtb version 6.7.1 (edcfbbe) compiled by 'albert@albert-system' on 2024-07-22

   xtb is free software: you can redistribute it and/or modify it under
   the terms of the GNU Lesser General Public License as published by
   the Free Software Foundation, either version 3 of the License, or
   (at your option) any later version.
   
   xtb is distributed in the hope that it will be useful,
   but WITHOUT ANY WARRANTY; without even the implied warranty of
   MERCHANTABILITY or FITNESS FOR A PARTICULAR PURPOSE.  See the
   GNU Lesser General Public License for more details.
   
   Cite this work as:
   * C. Bannwarth, E. Caldeweyher, S. Ehlert, A. Hansen, P. Pracht,
     J. Seibert, S. Spicher, S. Grimme, WIREs Comput. Mol. Sci., 2020, 11,
     e01493. DOI: 10.1002/wcms.1493
   
   for GFN2-xTB:
   * C. Bannwarth, S. Ehlert and S. Grimme., J. Chem. Theory Comput., 2019,
     15, 1652-1671. DOI: 10.1021/acs.jctc.8b01176
   for GFN1-xTB:
   * S. Grimme, C. Bannwarth, P. Shushkov, J. Chem. Theory Comput., 2017,
     13, 1989-2009. DOI: 10.1021/acs.jctc.7b00118
   for GFN0-xTB:
   * P. Pracht, E. Caldeweyher, S. Ehlert, S. Grimme, ChemRxiv, 2019, preprint.
     DOI: 10.26434/chemrxiv.8326202.v1
   for GFN-FF:
   * S. Spicher and S. Grimme, Angew. Chem. Int. Ed., 2020, 59, 15665-15673.
     DOI: 10.1002/anie.202004239
   
   for ALPB and GBSA implicit solvation:
   * S. Ehlert, M. Stahn, S. Spicher, S. Grimme, J. Chem. Theory Comput.,
     2021, 17, 4250-4261. DOI: 10.1021/acs.jctc.1c00471
   
   for ddCOSMO and CPCM-X implicit solvation:
   * M. Stahn, S. Ehlert, S. Grimme, J. Phys. Chem. A,
     2023, XX, XXXX-XXXX. DOI: 10.1021/acs.jpca.3c04382
   
   for DFT-D4:
   * E. Caldeweyher, C. Bannwarth and S. Grimme, J. Chem. Phys., 2017,
     147, 034112. DOI: 10.1063/1.4993215
   * E. Caldeweyher, S. Ehlert, A. Hansen, H. Neugebauer, S. Spicher,
     C. Bannwarth and S. Grimme, J. Chem. Phys., 2019, 150, 154122.
     DOI: 10.1063/1.5090222
   * E. Caldeweyher, J.-M. Mewes, S. Ehlert and S. Grimme, Phys. Chem. Chem. Phys.
     2020, 22, 8499-8512. DOI: 10.1039/D0CP00502A
   
   for sTDA-xTB:
   * S. Grimme and C. Bannwarth, J. Chem. Phys., 2016, 145, 054103.
     DOI: 10.1063/1.4959605
   
   in the mass-spec context:
   * V. Asgeirsson, C. Bauer and S. Grimme, Chem. Sci., 2017, 8, 4879.
     DOI: 10.1039/c7sc00601b
   * J. Koopman and S. Grimme, ACS Omega 2019, 4, 12, 15120-15133.
     DOI: 10.1021/acsomega.9b02011
   
   for metadynamics refer to:
   * S. Grimme, J. Chem. Theory Comput., 2019, 155, 2847-2862
     DOI: 10.1021/acs.jctc.9b00143
   
   for SPH calculations refer to:
   * S. Spicher and S. Grimme, J. Chem. Theory Comput., 2021, 17, 1701-1714
     DOI: 10.1021/acs.jctc.0c01306
   
   for ONIOM refer to:
   * C. Plett, A. Katbashev, S. Ehlert, S. Grimme, M. Bursch,
     Phys. Chem. Chem. Phys., 2023, 25, 17860-17868. DOI: 10.1039/D3CP02178E
   
   for DIPRO refer to:
   * J. Kohn, N. Gildemeister, S. Grimme, D. Fazzi, A. Hansen,
     J. Chem. Phys., 2023, just accepted.
   
   for PTB refer to:
   * S. Grimme, M. Mueller, A. Hansen, J. Chem. Phys., 2023, 158, 124111.
     DOI: 10.1063/5.0137838
   
   with help from (in alphabetical order)
   P. Atkinson, C. Bannwarth, F. Bohle, G. Brandenburg, E. Caldeweyher
   M. Checinski, S. Dohm, S. Ehlert, S. Ehrlich, I. Gerasimov, C. Hölzer
   A. Katbashev, J. Kohn, J. Koopman, C. Lavigne, S. Lehtola, F. März, M. Müller,
   F. Musil, H. Neugebauer, J. Pisarek, C. Plett, P. Pracht, F. Pultar,
   J. Seibert, P. Shushkov, S. Spicher, M. Stahn, M. Steiner, T. Strunk,
   J. Stückrath, T. Rose, and J. Unsleber
   
 * started run on 2026/03/16 at 14:16:04.474     
   ID    Z sym.   atoms
    1    6 C      1-6
    2    1 H      7-15
    3   17 Cl     16

           -------------------------------------------------
          |                Calculation Setup                |
           -------------------------------------------------

          program call               : /software/orca-6.1.0-el8-x86_64/bin/otool_xtb product_optfreq_XTB.xyz --grad -c 0 -u 0 -P 8 --namespace product_optfreq --input product_optfreq_XTB.input.tmp --acc 0.200000
          hostname                   : midway3-login4.rcc.local
          calculation namespace      : product_optfreq
          coordinate file            : product_optfreq_XTB.xyz
          omp threads                :                     8


           -------------------------------------------------
          |                 G F N 2 - x T B                 |
           -------------------------------------------------

        Reference                      10.1021/acs.jctc.8b01176
      * Hamiltonian:
        H0-scaling (s, p, d)           1.850000    2.230000    2.230000
        zeta-weighting                 0.500000
      * Dispersion:
        s8                             2.700000
        a1                             0.520000
        a2                             5.000000
        s9                             5.000000
      * Repulsion:
        kExp                           1.500000    1.000000
        rExp                           1.000000
      * Coulomb:
        alpha                          2.000000
        third order                    shell-resolved
        anisotropic                    true
        a3                             3.000000
        a5                             4.000000
        cn-shift                       1.200000
        cn-exp                         4.000000
        max-rad                        5.000000


          ...................................................
          :                      SETUP                      :
          :.................................................:
          :  # basis functions                  43          :
          :  # atomic orbitals                  42          :
          :  # shells                           24          :
          :  # electrons                        40          :
          :  max. iterations                   250          :
          :  Hamiltonian                  GFN2-xTB          :
          :  restarted?                      false          :
          :  GBSA solvation                  false          :
          :  PC potential                    false          :
          :  electronic temp.          300.0000000     K    :
          :  accuracy                    0.2000000          :
          :  -> integral cutoff          0.3198970E+02      :
          :  -> integral neglect         0.2000000E-08      :
          :  -> SCF convergence          0.2000000E-06 Eh   :
          :  -> wf. convergence          0.2000000E-04 e    :
          :  Broyden damping             0.4000000          :
          :  net charge                          0          :
          :  unpaired electrons                  0          :
          ...................................................

 iter      E             dE          RMSdq      gap      omega  full diag
   1    -22.1029464 -0.221029E+02  0.386E+00    2.60       0.0  T
   2    -22.1500838 -0.471373E-01  0.236E+00    2.54       1.0  T
   3    -22.1513427 -0.125891E-02  0.108E+00    2.52       1.0  T
   4    -22.1529058 -0.156316E-02  0.292E-01    2.52       1.0  T
   5    -22.1531447 -0.238885E-03  0.212E-01    2.52       1.0  T
   6    -22.1536340 -0.489295E-03  0.911E-02    2.52       1.0  T
   7    -22.1536698 -0.357821E-04  0.519E-02    2.52       1.0  T
   8    -22.1536816 -0.117936E-04  0.352E-02    2.52       1.0  T
   9    -22.1536915 -0.988445E-05  0.907E-03    2.52       2.8  T
  10    -22.1536919 -0.470977E-06  0.396E-03    2.52       6.3  T
  11    -22.1536920 -0.455657E-07  0.742E-04    2.52      33.7  T
  12    -22.1536920 -0.267695E-08  0.362E-04    2.52      69.1  T
  13    -22.1536920 -0.318543E-09  0.196E-04    2.52     127.5  T
  14    -22.1536920 -0.124096E-09  0.139E-04    2.52     180.2  T

   *** convergence criteria satisfied after 14 iterations ***

         #    Occupation            Energy/Eh            Energy/eV
      -------------------------------------------------------------
         1        2.0000           -1.0495000             -28.5583
       ...           ...                  ...                  ...
        14        2.0000           -0.4614898             -12.5578
        15        2.0000           -0.4548564             -12.3773
        16        2.0000           -0.4488449             -12.2137
        17        2.0000           -0.4365537             -11.8792
        18        2.0000           -0.4129406             -11.2367
        19        2.0000           -0.4096973             -11.1484
        20        2.0000           -0.3498529              -9.5200 (HOMO)
        21                         -0.2573489              -7.0028 (LUMO)
        22                         -0.1608373              -4.3766
        23                         -0.0098496              -0.2680
        24                         -0.0032651              -0.0888
        25                          0.0261984               0.7129
       ...                                ...                  ...
        42                          0.5092336              13.8570
      -------------------------------------------------------------
                  HL-Gap            0.0925040 Eh            2.5172 eV
             Fermi-level           -0.3036009 Eh           -8.2614 eV

 SCC (total)                   0 d,  0 h,  0 min,  0.178 sec
 SCC setup                      ...        0 min,  0.000 sec (  0.172%)
 Dispersion                     ...        0 min,  0.000 sec (  0.055%)
 classical contributions        ...        0 min,  0.000 sec (  0.019%)
 integral evaluation            ...        0 min,  0.164 sec ( 92.114%)
 iterations                     ...        0 min,  0.011 sec (  6.335%)
 molecular gradient             ...        0 min,  0.002 sec (  1.160%)
 printout                       ...        0 min,  0.000 sec (  0.133%)

         :::::::::::::::::::::::::::::::::::::::::::::::::::::
         ::                     SUMMARY                     ::
         :::::::::::::::::::::::::::::::::::::::::::::::::::::
         :: total energy             -21.889812409525 Eh    ::
         :: gradient norm              0.003289965544 Eh/a0 ::
         :: HOMO-LUMO gap              2.517162639396 eV    ::
         ::.................................................::
         :: SCC energy               -22.153663688681 Eh    ::
         :: -> isotropic ES            0.007589008383 Eh    ::
         :: -> anisotropic ES          0.002386057190 Eh    ::
         :: -> anisotropic XC          0.011846342223 Eh    ::
         :: -> dispersion             -0.012509564906 Eh    ::
         :: repulsion energy           0.263851279156 Eh    ::
         :: add. restraining           0.000000000000 Eh    ::
         :: total charge              -0.000000000000 e     ::
         :::::::::::::::::::::::::::::::::::::::::::::::::::::


Property printout bound to 'properties.out'

           -------------------------------------------------
          | TOTAL ENERGY              -21.889812409525 Eh   |
          | GRADIENT NORM               0.003289965544 Eh/α |
          | HOMO-LUMO GAP               2.517162639396 eV   |
           -------------------------------------------------

------------------------------------------------------------------------
 * finished run on 2026/03/16 at 14:16:04.669     
------------------------------------------------------------------------
 total:
 * wall-time:     0 d,  0 h,  0 min,  0.194 sec
 *  cpu-time:     0 d,  0 h,  0 min,  0.439 sec
 * ratio c/w:     2.265 speedup
 SCF:
 * wall-time:     0 d,  0 h,  0 min,  0.178 sec
 *  cpu-time:     0 d,  0 h,  0 min,  0.354 sec
 * ratio c/w:     1.986 speedup


-------------------------   --------------------
FINAL SINGLE POINT ENERGY       -21.889812409530
-------------------------   --------------------


-------------
DIPOLE MOMENT
-------------
                                X             Y             Z
Total Dipole Moment    :      0.01800      -0.82900       0.08300
                        -----------------------------------------
Magnitude (a.u.)       :      0.83334
Magnitude (Debye)      :      2.11818


------------------
CARTESIAN GRADIENT
------------------

   1   C   :    0.000133702   -0.000376355   -0.000055312
   2   C   :   -0.000127068   -0.000241617   -0.000189681
   3   C   :    0.000285447    0.000012336   -0.000103246
   4   C   :   -0.000273934    0.000284169   -0.000086779
   5   C   :   -0.000024992   -0.000018669   -0.000078765
   6   C   :   -0.000007145    0.000065330    0.000158948
   7   H   :    0.000357698   -0.000318293   -0.000063971
   8   H   :    0.000271548   -0.000323588    0.000035334
   9   H   :    0.000082513   -0.000173591   -0.000860689
  10   H   :   -0.000117526    0.000096800   -0.000504544
  11   H   :   -0.000312608    0.000379177   -0.000291754
  12   H   :    0.000009626    0.000270542    0.000011025
  13   H   :   -0.000640890    0.001089028   -0.000549401
  14   H   :   -0.000686092    0.000483312    0.001469914
  15   H   :    0.000489162   -0.000624953   -0.000368320
  16   Cl  :    0.000560559   -0.000603628    0.001477243

Difference to translation invariance:
           :   -0.0000000000    0.0000000000    0.0000000000

Difference to rotation invariance:
           :    0.0000003782    0.0000012353   -0.0000021614

Norm of the Cartesian gradient     ...    0.0032899655
RMS gradient                       ...    0.0004748656
MAX gradient                       ...    0.0014772430
------------------------------------------------------------------------------
                         ORCA GEOMETRY RELAXATION STEP
------------------------------------------------------------------------------

Reading the OPT-File                    .... done
Getting information on internals        .... done
Copying old internal coords+grads       .... done
Making the new internal coordinates     .... (2022 redundants) done
Validating the new internal coordinates .... (2022 redundants) done
Calculating the B-matrix                .... done
Calculating the G,G- and P matrices     .... done
Transforming gradient to internals      .... done
Projecting the internal gradient        .... done
Number of atoms                         ....  16
Number of internal coordinates          ....  78
Current Energy                          ....   -21.889812410 Eh
Current gradient norm                   ....     0.003289966 Eh/bohr
Maximum allowed component of the step   ....  0.300
Current trust radius                    ....  0.300
Evaluating the initial hessian          ....  (Almloef) done
Projecting the Hessian                  .... done
Forming the augmented Hessian           .... done
Diagonalizing the augmented Hessian     .... done
Last element of RFO vector              ....  0.967411151
Lowest eigenvalues of augmented Hessian:
 -0.000946165  0.012314283  0.016923842  0.032927116  0.047550965
Length of the computed step             ....  0.261740535
The final length of the internal step   ....  0.261740535
Converting the step to Cartesian space:
 Initial RMS(Int)=    0.0296362797
Transforming coordinates:
 Iter   0:  RMS(Cart)=    0.0488878642 RMS(Int)=    0.0295181119
 Iter   5:  RMS(Cart)=    0.0000000075 RMS(Int)=    0.0000000060
done
Storing new coordinates                 .... done

                                .--------------------.
          ----------------------|Geometry convergence|-------------------------
          Item                value                   Tolerance       Converged
          ---------------------------------------------------------------------
          RMS gradient        0.0006287662            0.0001000000      NO
          MAX gradient        0.0024846990            0.0003000000      NO
          RMS step            0.0296362797            0.0020000000      NO
          MAX step            0.0902779334            0.0040000000      NO
          -------------------------------------------------------------------------
          ........................................................
          Max(Bonds)      0.0020      Max(Angles)    0.50
          Max(Dihed)        5.17      Max(Improp)    0.00
          ---------------------------------------------------------------------

The optimization has not yet converged - more geometry cycles are needed


    ---------------------------------------------------------------------------
                         Redundant Internal Coordinates
                            (Angstroem and degrees)

        Definition                    Value    dE/dq     Step     New-Value
    ----------------------------------------------------------------------------
     1. B(C   1,C   0)                1.4773  0.000523 -0.0001    1.4771   
     2. B(C   2,C   1)                1.3610  0.000445  0.0000    1.3611   
     3. B(C   3,C   2)                1.4765  0.000417  0.0001    1.4766   
     4. B(C   4,C   3)                1.5889  0.000872 -0.0020    1.5869   
     5. B(C   5,C   4)                1.5568  0.000168 -0.0013    1.5555   
     6. B(C   5,C   0)                1.5870  0.000333 -0.0013    1.5858   
     7. B(H   6,C   0)                1.0893  0.000018 -0.0000    1.0893   
     8. B(H   7,C   0)                1.0879 -0.000418  0.0006    1.0885   
     9. B(H   8,C   1)                1.0854  0.000232 -0.0003    1.0850   
    10. B(H   9,C   2)                1.0843  0.000122 -0.0002    1.0841   
    11. B(H  10,C   3)                1.0893  0.000082 -0.0001    1.0891   
    12. B(H  11,C   3)                1.0896 -0.000225  0.0003    1.0900   
    13. B(H  12,C   5)                1.0909  0.000429 -0.0006    1.0903   
    14. B(H  13,C   5)                1.0911 -0.000183  0.0003    1.0914   
    15. B(H  14,C   4)                1.0934  0.000339 -0.0005    1.0929   
    16. B(Cl 15,C   4)                1.7937 -0.000064  0.0001    1.7938   
    17. A(C   5,C   0,H   7)          109.51 -0.000172    0.14    109.65   
    18. A(C   1,C   0,C   5)           98.56  0.000634   -0.45     98.11   
    19. A(H   6,C   0,H   7)          110.07  0.000250    0.03    110.09   
    20. A(C   1,C   0,H   6)          116.11 -0.000140   -0.01    116.10   
    21. A(C   5,C   0,H   6)          109.38 -0.000188    0.01    109.39   
    22. A(C   1,C   0,H   7)          112.52 -0.000371    0.25    112.76   
    23. A(C   0,C   1,C   2)          111.27 -0.000629    0.15    111.42   
    24. A(C   2,C   1,H   8)          118.26  0.000170   -0.13    118.13   
    25. A(C   0,C   1,H   8)          115.64  0.000470   -0.28    115.35   
    26. A(C   1,C   2,C   3)          111.28 -0.000203    0.05    111.33   
    27. A(C   3,C   2,H   9)          115.17  0.000120   -0.16    115.01   
    28. A(C   1,C   2,H   9)          118.15  0.000129   -0.04    118.11   
    29. A(C   2,C   3,C   4)           99.09  0.000678   -0.43     98.66   
    30. A(H  10,C   3,H  11)          110.06  0.000165    0.06    110.12   
    31. A(C   2,C   3,H  11)          113.03 -0.000441    0.22    113.25   
    32. A(C   4,C   3,H  10)          109.62 -0.000207   -0.04    109.58   
    33. A(C   2,C   3,H  10)          116.05 -0.000182    0.04    116.09   
    34. A(C   4,C   3,H  11)          108.21  0.000042    0.10    108.31   
    35. A(H  14,C   4,Cl 15)          104.50 -0.001263    0.46    104.96   
    36. A(C   5,C   4,Cl 15)          108.82  0.000668   -0.12    108.70   
    37. A(C   3,C   4,Cl 15)          107.61  0.000511   -0.26    107.35   
    38. A(C   3,C   4,H  14)          107.92  0.000062    0.26    108.19   
    39. A(C   5,C   4,H  14)          108.24  0.000408    0.12    108.36   
    40. A(C   3,C   4,C   5)          118.83 -0.000526   -0.36    118.47   
    41. A(H  12,C   5,H  13)          107.57 -0.002485    0.50    108.07   
    42. A(C   4,C   5,H  13)          107.27  0.000739   -0.12    107.14   
    43. A(C   0,C   5,C   4)          118.77  0.000185   -0.44    118.33   
    44. A(C   0,C   5,H  13)          107.61  0.001418   -0.25    107.36   
    45. A(C   4,C   5,H  12)          107.73 -0.000270    0.16    107.89   
    46. A(C   0,C   5,H  12)          107.43  0.000060    0.26    107.69   
    47. D(C   2,C   1,C   0,C   5)    -65.82  0.000101   -0.60    -66.43   
    48. D(C   2,C   1,C   0,H   6)    177.60 -0.000014   -0.33    177.27   
    49. D(H   8,C   1,C   0,H   6)    -43.78  0.000054   -0.69    -44.46   
    50. D(C   2,C   1,C   0,H   7)     49.52  0.000106   -0.59     48.93   
    51. D(H   8,C   1,C   0,C   5)     72.80  0.000169   -0.96     71.84   
    52. D(C   3,C   2,C   1,C   0)     93.32 -0.000304   -0.40     92.91   
    53. D(H   9,C   2,C   1,H   8)    179.33 -0.000594    0.28    179.61   
    54. D(C   3,C   2,C   1,H   8)    -44.11 -0.000498    0.03    -44.08   
    55. D(H   9,C   2,C   1,C   0)    -43.24 -0.000400   -0.15    -43.39   
    56. D(H  10,C   3,C   2,C   1)    178.57 -0.000263   -0.30    178.26   
    57. D(H  10,C   3,C   2,H   9)    -43.49 -0.000160   -0.49    -43.98   
    58. D(H  11,C   3,C   2,C   1)     50.06  0.000091   -0.64     49.42   
    59. D(C   4,C   3,C   2,H   9)     73.68 -0.000057   -0.79     72.88   
    60. D(C   4,C   3,C   2,C   1)    -64.27 -0.000160   -0.60    -64.87   
    61. D(H  14,C   4,C   3,H  11)     39.71 -0.000258    2.85     42.55   
    62. D(C   5,C   4,C   3,C   2)     34.12 -0.000639    2.79     36.91   
    63. D(H  14,C   4,C   3,H  10)    -80.33 -0.000363    2.74    -77.59   
    64. D(H  14,C   4,C   3,C   2)    157.73 -0.000423    2.93    160.65   
    65. D(C   5,C   4,C   3,H  11)    -83.90 -0.000474    2.71    -81.19   
    66. D(C   5,C   4,C   3,H  10)    156.06 -0.000579    2.60    158.67   
    67. D(H  12,C   5,C   4,C   3)   -148.49  0.001071   -4.43   -152.93   
    68. D(C   0,C   5,C   4,Cl 15)     97.34  0.001946   -5.01     92.33   
    69. D(C   0,C   5,C   4,H  14)   -149.65  0.001012   -4.47   -154.12   
    70. D(C   0,C   5,C   4,C   3)    -26.19  0.001056   -4.27    -30.46   
    71. D(H  12,C   5,C   0,H   7)     40.12 -0.000282    2.69     42.81   
    72. D(H  12,C   5,C   0,H   6)    -80.58 -0.000365    2.56    -78.02   
    73. D(H  12,C   5,C   0,C   1)    157.78 -0.000454    2.80    160.57   
    74. D(C   4,C   5,C   0,H   7)    -82.33 -0.000102    2.58    -79.75   
    75. D(C   4,C   5,C   0,H   6)    156.97 -0.000185    2.45    159.42   
    76. D(H  12,C   5,C   4,H  14)     88.05  0.001027   -4.63     83.42   
    77. D(C   4,C   5,C   0,C   1)     35.33 -0.000275    2.69     38.01   
    78. D(H  12,C   5,C   4,Cl 15)    -24.96  0.001961   -5.17    -30.13   
    ----------------------------------------------------------------------------

Geometry step timings:
Preparation and reading OPT file:      0.000 s ( 1.339 %)
Internal coordinates            :      0.000 s ( 2.287 %)
B/P matrices and projection     :      0.001 s (17.680 %)
Hessian update/contruction      :      0.001 s (22.922 %)
Making the step                 :      0.001 s (16.509 %)
Converting the step to Cartesian:      0.000 s ( 3.151 %)
Storing new data                :      0.000 s ( 3.486 %)
Checking convergence            :      0.000 s ( 3.067 %)
Final printing                  :      0.001 s (29.420 %)
Total time                      :      0.004 s

Time for energy+gradient        :      0.205 s
Time for complete geometry iter :      0.210 s

         *************************************************************
         *                GEOMETRY OPTIMIZATION CYCLE   2            *
         *************************************************************
---------------------------------
CARTESIAN COORDINATES (ANGSTROEM)
---------------------------------
  C     0.238275    0.193634    0.432496
  C     1.349080    0.093852   -0.536144
  C     2.133837    1.205673   -0.508725
  C     3.272409    1.036606    0.416279
  C     2.460630    0.922085    1.774938
  C     1.099928    0.168603    1.763462
  H    -0.465768   -0.637532    0.441672
  H    -0.298741    1.137811    0.361688
  H     1.835700   -0.874610   -0.586876
  H     1.647161    2.173380   -0.464483
  H     3.968945    1.871738    0.476427
  H     3.816718    0.104812    0.262964
  H     0.483902    0.577036    2.564990
  H     1.309098   -0.876932    1.996462
  H     3.107669    0.453523    2.520711
  Cl    2.189787    2.589291    2.378792

----------------------------
CARTESIAN COORDINATES (A.U.)
----------------------------
  NO LB    ZA    FRAG    MASS        X           Y           Z
   0 C   6.0000    0    12.011    0.450275    0.365916    0.817298
   1 C   6.0000    0    12.011    2.549391    0.177354   -1.013165
   2 C   6.0000    0    12.011    4.032367    2.278392   -0.961351
   3 C   6.0000    0    12.011    6.183957    1.958901    0.786653
   4 C   6.0000    0    12.011    4.649917    1.742488    3.354147
   5 C   6.0000    0    12.011    2.078563    0.318614    3.332461
   6 H   1.0000    0     1.008   -0.880175   -1.204761    0.834639
   7 H   1.0000    0     1.008   -0.564538    2.150152    0.683491
   8 H   1.0000    0     1.008    3.468970   -1.652774   -1.109036
   9 H   1.0000    0     1.008    3.112683    4.107093   -0.877745
  10 H   1.0000    0     1.008    7.500218    3.537073    0.900317
  11 H   1.0000    0     1.008    7.212552    0.198066    0.496930
  12 H   1.0000    0     1.008    0.914442    1.090440    4.847128
  13 H   1.0000    0     1.008    2.473836   -1.657162    3.772767
  14 H   1.0000    0     1.008    5.872644    0.857034    4.763453
  15 Cl 17.0000    0    35.453    4.138098    4.893051    4.495265

      -----------------------------------------------------------      
     |                   =====================                   |     
     |                           x T B                           |     
     |                   =====================                   |     
     |                         S. Grimme                         |     
     |          Mulliken Center for Theoretical Chemistry        |     
     |                    University of Bonn                     |     
      -----------------------------------------------------------      

   * xtb version 6.7.1 (edcfbbe) compiled by 'albert@albert-system' on 2024-07-22

   xtb is free software: you can redistribute it and/or modify it under
   the terms of the GNU Lesser General Public License as published by
   the Free Software Foundation, either version 3 of the License, or
   (at your option) any later version.
   
   xtb is distributed in the hope that it will be useful,
   but WITHOUT ANY WARRANTY; without even the implied warranty of
   MERCHANTABILITY or FITNESS FOR A PARTICULAR PURPOSE.  See the
   GNU Lesser General Public License for more details.
   
   Cite this work as:
   * C. Bannwarth, E. Caldeweyher, S. Ehlert, A. Hansen, P. Pracht,
     J. Seibert, S. Spicher, S. Grimme, WIREs Comput. Mol. Sci., 2020, 11,
     e01493. DOI: 10.1002/wcms.1493
   
   for GFN2-xTB:
   * C. Bannwarth, S. Ehlert and S. Grimme., J. Chem. Theory Comput., 2019,
     15, 1652-1671. DOI: 10.1021/acs.jctc.8b01176
   for GFN1-xTB:
   * S. Grimme, C. Bannwarth, P. Shushkov, J. Chem. Theory Comput., 2017,
     13, 1989-2009. DOI: 10.1021/acs.jctc.7b00118
   for GFN0-xTB:
   * P. Pracht, E. Caldeweyher, S. Ehlert, S. Grimme, ChemRxiv, 2019, preprint.
     DOI: 10.26434/chemrxiv.8326202.v1
   for GFN-FF:
   * S. Spicher and S. Grimme, Angew. Chem. Int. Ed., 2020, 59, 15665-15673.
     DOI: 10.1002/anie.202004239
   
   for ALPB and GBSA implicit solvation:
   * S. Ehlert, M. Stahn, S. Spicher, S. Grimme, J. Chem. Theory Comput.,
     2021, 17, 4250-4261. DOI: 10.1021/acs.jctc.1c00471
   
   for ddCOSMO and CPCM-X implicit solvation:
   * M. Stahn, S. Ehlert, S. Grimme, J. Phys. Chem. A,
     2023, XX, XXXX-XXXX. DOI: 10.1021/acs.jpca.3c04382
   
   for DFT-D4:
   * E. Caldeweyher, C. Bannwarth and S. Grimme, J. Chem. Phys., 2017,
     147, 034112. DOI: 10.1063/1.4993215
   * E. Caldeweyher, S. Ehlert, A. Hansen, H. Neugebauer, S. Spicher,
     C. Bannwarth and S. Grimme, J. Chem. Phys., 2019, 150, 154122.
     DOI: 10.1063/1.5090222
   * E. Caldeweyher, J.-M. Mewes, S. Ehlert and S. Grimme, Phys. Chem. Chem. Phys.
     2020, 22, 8499-8512. DOI: 10.1039/D0CP00502A
   
   for sTDA-xTB:
   * S. Grimme and C. Bannwarth, J. Chem. Phys., 2016, 145, 054103.
     DOI: 10.1063/1.4959605
   
   in the mass-spec context:
   * V. Asgeirsson, C. Bauer and S. Grimme, Chem. Sci., 2017, 8, 4879.
     DOI: 10.1039/c7sc00601b
   * J. Koopman and S. Grimme, ACS Omega 2019, 4, 12, 15120-15133.
     DOI: 10.1021/acsomega.9b02011
   
   for metadynamics refer to:
   * S. Grimme, J. Chem. Theory Comput., 2019, 155, 2847-2862
     DOI: 10.1021/acs.jctc.9b00143
   
   for SPH calculations refer to:
   * S. Spicher and S. Grimme, J. Chem. Theory Comput., 2021, 17, 1701-1714
     DOI: 10.1021/acs.jctc.0c01306
   
   for ONIOM refer to:
   * C. Plett, A. Katbashev, S. Ehlert, S. Grimme, M. Bursch,
     Phys. Chem. Chem. Phys., 2023, 25, 17860-17868. DOI: 10.1039/D3CP02178E
   
   for DIPRO refer to:
   * J. Kohn, N. Gildemeister, S. Grimme, D. Fazzi, A. Hansen,
     J. Chem. Phys., 2023, just accepted.
   
   for PTB refer to:
   * S. Grimme, M. Mueller, A. Hansen, J. Chem. Phys., 2023, 158, 124111.
     DOI: 10.1063/5.0137838
   
   with help from (in alphabetical order)
   P. Atkinson, C. Bannwarth, F. Bohle, G. Brandenburg, E. Caldeweyher
   M. Checinski, S. Dohm, S. Ehlert, S. Ehrlich, I. Gerasimov, C. Hölzer
   A. Katbashev, J. Kohn, J. Koopman, C. Lavigne, S. Lehtola, F. März, M. Müller,
   F. Musil, H. Neugebauer, J. Pisarek, C. Plett, P. Pracht, F. Pultar,
   J. Seibert, P. Shushkov, S. Spicher, M. Stahn, M. Steiner, T. Strunk,
   J. Stückrath, T. Rose, and J. Unsleber
   
 * started run on 2026/03/16 at 14:16:04.685     
   ID    Z sym.   atoms
    1    6 C      1-6
    2    1 H      7-15
    3   17 Cl     16

           -------------------------------------------------
          |                Calculation Setup                |
           -------------------------------------------------

          program call               : /software/orca-6.1.0-el8-x86_64/bin/otool_xtb product_optfreq_XTB.xyz --grad -c 0 -u 0 -P 8 --namespace product_optfreq --input product_optfreq_XTB.input.tmp --acc 0.200000
          hostname                   : midway3-login4.rcc.local
          calculation namespace      : product_optfreq
          coordinate file            : product_optfreq_XTB.xyz
          omp threads                :                     8


           -------------------------------------------------
          |                 G F N 2 - x T B                 |
           -------------------------------------------------

        Reference                      10.1021/acs.jctc.8b01176
      * Hamiltonian:
        H0-scaling (s, p, d)           1.850000    2.230000    2.230000
        zeta-weighting                 0.500000
      * Dispersion:
        s8                             2.700000
        a1                             0.520000
        a2                             5.000000
        s9                             5.000000
      * Repulsion:
        kExp                           1.500000    1.000000
        rExp                           1.000000
      * Coulomb:
        alpha                          2.000000
        third order                    shell-resolved
        anisotropic                    true
        a3                             3.000000
        a5                             4.000000
        cn-shift                       1.200000
        cn-exp                         4.000000
        max-rad                        5.000000

q/qsh data taken from xtbrestart
CAMM data taken from xtbrestart

          ...................................................
          :                      SETUP                      :
          :.................................................:
          :  # basis functions                  43          :
          :  # atomic orbitals                  42          :
          :  # shells                           24          :
          :  # electrons                        40          :
          :  max. iterations                   250          :
          :  Hamiltonian                  GFN2-xTB          :
          :  restarted?                       true          :
          :  GBSA solvation                  false          :
          :  PC potential                    false          :
          :  electronic temp.          300.0000000     K    :
          :  accuracy                    0.2000000          :
          :  -> integral cutoff          0.3198970E+02      :
          :  -> integral neglect         0.2000000E-08      :
          :  -> SCF convergence          0.2000000E-06 Eh   :
          :  -> wf. convergence          0.2000000E-04 e    :
          :  Broyden damping             0.4000000          :
          :  net charge                          0          :
          :  unpaired electrons                  0          :
          ...................................................

 iter      E             dE          RMSdq      gap      omega  full diag
   1    -22.1548804 -0.221549E+02  0.169E-01    2.52       0.0  T
   2    -22.1548821 -0.167676E-05  0.990E-02    2.52       1.0  T
   3    -22.1548713  0.107299E-04  0.286E-02    2.52       1.0  T
   4    -22.1548821 -0.107203E-04  0.774E-03    2.52       3.2  T
   5    -22.1548828 -0.772764E-06  0.199E-03    2.52      12.6  T
   6    -22.1548828 -0.781370E-08  0.112E-03    2.52      22.2  T
   7    -22.1548828 -0.452543E-08  0.812E-04    2.52      30.8  T
   8    -22.1548828 -0.338441E-08  0.426E-04    2.52      58.7  T
   9    -22.1548828 -0.117428E-08  0.144E-04    2.52     173.2  T
  10    -22.1548828 -0.842881E-10  0.786E-05    2.52     317.9  T

   *** convergence criteria satisfied after 10 iterations ***

         #    Occupation            Energy/Eh            Energy/eV
      -------------------------------------------------------------
         1        2.0000           -1.0493257             -28.5536
       ...           ...                  ...                  ...
        14        2.0000           -0.4615190             -12.5586
        15        2.0000           -0.4548548             -12.3772
        16        2.0000           -0.4488343             -12.2134
        17        2.0000           -0.4367359             -11.8842
        18        2.0000           -0.4128616             -11.2345
        19        2.0000           -0.4095011             -11.1431
        20        2.0000           -0.3494021              -9.5077 (HOMO)
        21                         -0.2568523              -6.9893 (LUMO)
        22                         -0.1603916              -4.3645
        23                         -0.0081652              -0.2222
        24                         -0.0016024              -0.0436
        25                          0.0261569               0.7118
       ...                                ...                  ...
        42                          0.5092930              13.8586
      -------------------------------------------------------------
                  HL-Gap            0.0925498 Eh            2.5184 eV
             Fermi-level           -0.3031272 Eh           -8.2485 eV

 SCC (total)                   0 d,  0 h,  0 min,  0.093 sec
 SCC setup                      ...        0 min,  0.000 sec (  0.341%)
 Dispersion                     ...        0 min,  0.000 sec (  0.120%)
 classical contributions        ...        0 min,  0.000 sec (  0.042%)
 integral evaluation            ...        0 min,  0.082 sec ( 88.254%)
 iterations                     ...        0 min,  0.008 sec (  8.285%)
 molecular gradient             ...        0 min,  0.003 sec (  2.737%)
 printout                       ...        0 min,  0.000 sec (  0.186%)

         :::::::::::::::::::::::::::::::::::::::::::::::::::::
         ::                     SUMMARY                     ::
         :::::::::::::::::::::::::::::::::::::::::::::::::::::
         :: total energy             -21.890668050951 Eh    ::
         :: gradient norm              0.003489430241 Eh/a0 ::
         :: HOMO-LUMO gap              2.518408074571 eV    ::
         ::.................................................::
         :: SCC energy               -22.154855063983 Eh    ::
         :: -> isotropic ES            0.007614119382 Eh    ::
         :: -> anisotropic ES          0.002410907306 Eh    ::
         :: -> anisotropic XC          0.011825372582 Eh    ::
         :: -> dispersion             -0.012561518031 Eh    ::
         :: repulsion energy           0.264187013032 Eh    ::
         :: add. restraining           0.000000000000 Eh    ::
         :: total charge               0.000000000000 e     ::
         :::::::::::::::::::::::::::::::::::::::::::::::::::::


Property printout bound to 'properties.out'

           -------------------------------------------------
          | TOTAL ENERGY              -21.890668050951 Eh   |
          | GRADIENT NORM               0.003489430241 Eh/α |
          | HOMO-LUMO GAP               2.518408074571 eV   |
           -------------------------------------------------

------------------------------------------------------------------------
 * finished run on 2026/03/16 at 14:16:04.865     
------------------------------------------------------------------------
 total:
 * wall-time:     0 d,  0 h,  0 min,  0.180 sec
 *  cpu-time:     0 d,  0 h,  0 min,  0.264 sec
 * ratio c/w:     1.469 speedup
 SCF:
 * wall-time:     0 d,  0 h,  0 min,  0.094 sec
 *  cpu-time:     0 d,  0 h,  0 min,  0.184 sec
 * ratio c/w:     1.968 speedup


-------------------------   --------------------
FINAL SINGLE POINT ENERGY       -21.890668050950
-------------------------   --------------------


-------------
DIPOLE MOMENT
-------------
                                X             Y             Z
Total Dipole Moment    :      0.04700      -0.84400       0.12100
                        -----------------------------------------
Magnitude (a.u.)       :      0.85392
Magnitude (Debye)      :      2.17050


------------------
CARTESIAN GRADIENT
------------------

   1   C   :    0.000441323   -0.000666690   -0.000494221
   2   C   :   -0.000501246   -0.000700170    0.000355592
   3   C   :    0.000747177    0.000390878    0.000587973
   4   C   :   -0.000357997    0.000473052   -0.000504254
   5   C   :    0.000749969   -0.000365231    0.000192086
   6   C   :   -0.000782713    0.000147554    0.001057926
   7   H   :    0.000450566   -0.000292179   -0.000158814
   8   H   :   -0.000091026    0.000006575    0.000102068
   9   H   :   -0.000012115    0.000157710   -0.000501265
  10   H   :   -0.000135751    0.000010298   -0.000191786
  11   H   :   -0.000449824    0.000309417   -0.000265621
  12   H   :    0.000197411    0.000069607    0.000141117
  13   H   :   -0.000696610    0.001133407   -0.000880176
  14   H   :   -0.000389339    0.000238429    0.000608398
  15   H   :    0.000479277   -0.000699353   -0.000788459
  16   Cl  :    0.000350900   -0.000213304    0.000739439

Difference to translation invariance:
           :    0.0000000000   -0.0000000000    0.0000000000

Difference to rotation invariance:
           :   -0.0000002489   -0.0000001702    0.0000002004

Norm of the Cartesian gradient     ...    0.0034894302
RMS gradient                       ...    0.0005036559
MAX gradient                       ...    0.0011334072
------------------------------------------------------------------------------
                         ORCA GEOMETRY RELAXATION STEP
------------------------------------------------------------------------------

Reading the OPT-File                    .... done
Getting information on internals        .... done
Copying old internal coords+grads       .... done
Making the new internal coordinates     .... (2022 redundants) done
Validating the new internal coordinates .... (2022 redundants) done
Calculating the B-matrix                .... done
Calculating the G,G- and P matrices     .... done
Transforming gradient to internals      .... done
Projecting the internal gradient        .... done
Number of atoms                         ....  16
Number of internal coordinates          ....  78
Current Energy                          ....   -21.890668051 Eh
Current gradient norm                   ....     0.003489430 Eh/bohr
Maximum allowed component of the step   ....  0.300
Current trust radius                    ....  0.300
Updating the Hessian (BFGS)             .... done
Forming the augmented Hessian           .... done
Diagonalizing the augmented Hessian     .... done
Last element of RFO vector              ....  0.830114750
Lowest eigenvalues of augmented Hessian:
 -0.001918114  0.004176769  0.017023271  0.033196541  0.047539790
Length of the computed step             ....  0.671705443
Warning: the length of the step is outside the trust region - taking restricted step instead
The input lambda is                     ....     0.001283
   iter:   5  x=   -0.004193  g=  152.294746 f(x)=     0.268858
   iter:  10  x=   -0.007129  g=   19.094302 f(x)=     0.000000
The output lambda is                    ....    -0.007129 (12 iterations)
The final length of the internal step   ....  0.300000000
Converting the step to Cartesian space:
 Initial RMS(Int)=    0.0339683110
Transforming coordinates:
 Iter   0:  RMS(Cart)=    0.0559703786 RMS(Int)=    0.0337868384
 Iter   5:  RMS(Cart)=    0.0000000161 RMS(Int)=    0.0000000127
done
Storing new coordinates                 .... done
The predicted energy change is          ....    -0.000754943
Previously predicted energy change      ....    -0.000505492
Actually observed energy change         ....    -0.000855641
Ratio of predicted to observed change   ....     1.692689026
New trust radius                        ....     0.200000000

                                .--------------------.
          ----------------------|Geometry convergence|-------------------------
          Item                value                   Tolerance       Converged
          ---------------------------------------------------------------------
          Energy change      -0.0008556414            0.0000050000      NO
          RMS gradient        0.0004073362            0.0001000000      NO
          MAX gradient        0.0012115066            0.0003000000      NO
          RMS step            0.0339683110            0.0020000000      NO
          MAX step            0.1011321977            0.0040000000      NO
          -------------------------------------------------------------------------
          ........................................................
          Max(Bonds)      0.0038      Max(Angles)    0.54
          Max(Dihed)        5.79      Max(Improp)    0.00
          ---------------------------------------------------------------------

The optimization has not yet converged - more geometry cycles are needed


    ---------------------------------------------------------------------------
                         Redundant Internal Coordinates
                            (Angstroem and degrees)

        Definition                    Value    dE/dq     Step     New-Value
    ----------------------------------------------------------------------------
     1. B(C   1,C   0)                1.4772 -0.000169  0.0010    1.4782   
     2. B(C   2,C   1)                1.3612  0.000693 -0.0005    1.3607   
     3. B(C   3,C   2)                1.4767 -0.000322  0.0016    1.4783   
     4. B(C   4,C   3)                1.5868  0.000255 -0.0018    1.5851   
     5. B(C   5,C   4)                1.5554  0.000768 -0.0038    1.5516   
     6. B(C   5,C   0)                1.5857  0.000030 -0.0013    1.5844   
     7. B(H   6,C   0)                1.0893 -0.000070  0.0002    1.0895   
     8. B(H   7,C   0)                1.0885  0.000044 -0.0000    1.0885   
     9. B(H   8,C   1)                1.0850 -0.000123  0.0003    1.0853   
    10. B(H   9,C   2)                1.0841  0.000062 -0.0002    1.0839   
    11. B(H  10,C   3)                1.0891 -0.000065  0.0002    1.0893   
    12. B(H  11,C   3)                1.0900  0.000019 -0.0000    1.0900   
    13. B(H  12,C   5)                1.0903  0.000171 -0.0006    1.0897   
    14. B(H  13,C   5)                1.0914 -0.000173  0.0005    1.0919   
    15. B(H  14,C   4)                1.0929  0.000046 -0.0002    1.0927   
    16. B(Cl 15,C   4)                1.7938 -0.000002  0.0000    1.7938   
    17. A(C   5,C   0,H   7)          109.66 -0.000149    0.19    109.84   
    18. A(C   1,C   0,C   5)           98.09  0.000306   -0.49     97.60   
    19. A(H   6,C   0,H   7)          110.09  0.000179   -0.02    110.07   
    20. A(C   1,C   0,H   6)          116.10 -0.000139    0.02    116.12   
    21. A(C   5,C   0,H   6)          109.40 -0.000017   -0.02    109.38   
    22. A(C   1,C   0,H   7)          112.76 -0.000179    0.29    113.05   
    23. A(C   0,C   1,C   2)          111.42 -0.000280    0.20    111.61   
    24. A(C   2,C   1,H   8)          118.13 -0.000062   -0.13    117.99   
    25. A(C   0,C   1,H   8)          115.35  0.000446   -0.41    114.94   
    26. A(C   1,C   2,C   3)          111.32  0.000052    0.07    111.40   
    27. A(C   3,C   2,H   9)          115.01  0.000148   -0.22    114.79   
    28. A(C   1,C   2,H   9)          118.11 -0.000086   -0.02    118.08   
    29. A(C   2,C   3,C   4)           98.64  0.000133   -0.34     98.30   
    30. A(H  10,C   3,H  11)          110.12  0.000120   -0.01    110.10   
    31. A(C   2,C   3,H  11)          113.25 -0.000074    0.17    113.43   
    32. A(C   4,C   3,H  10)          109.59 -0.000035   -0.05    109.54   
    33. A(C   2,C   3,H  10)          116.10 -0.000170    0.09    116.19   
    34. A(C   4,C   3,H  11)          108.31  0.000037    0.10    108.41   
    35. A(H  14,C   4,Cl 15)          104.96 -0.000487    0.40    105.36   
    36. A(C   5,C   4,Cl 15)          108.70  0.000467   -0.13    108.57   
    37. A(C   3,C   4,Cl 15)          107.36 -0.000115   -0.07    107.30   
    38. A(C   3,C   4,H  14)          108.20 -0.000226    0.40    108.60   
    39. A(C   5,C   4,H  14)          108.38  0.000392   -0.02    108.36   
    40. A(C   3,C   4,C   5)          118.44 -0.000097   -0.47    117.97   
    41. A(H  12,C   5,H  13)          108.07 -0.001088    0.51    108.58   
    42. A(C   4,C   5,H  13)          107.15  0.000447   -0.14    107.00   
    43. A(C   0,C   5,C   4)          118.29 -0.000020   -0.54    117.75   
    44. A(C   0,C   5,H  13)          107.36  0.000550   -0.20    107.16   
    45. A(C   4,C   5,H  12)          107.90  0.000177    0.04    107.94   
    46. A(C   0,C   5,H  12)          107.70 -0.000199    0.43    108.13   
    47. D(C   2,C   1,C   0,C   5)    -66.42  0.000141   -0.76    -67.18   
    48. D(C   2,C   1,C   0,H   6)    177.27  0.000028   -0.44    176.83   
    49. D(H   8,C   1,C   0,H   6)    -44.46  0.000108   -0.89    -45.35   
    50. D(C   2,C   1,C   0,H   7)     48.92  0.000070   -0.71     48.22   
    51. D(H   8,C   1,C   0,C   5)     71.84  0.000220   -1.21     70.63   
    52. D(C   3,C   2,C   1,C   0)     92.91  0.000204   -0.80     92.11   
    53. D(H   9,C   2,C   1,H   8)    179.61 -0.000307    0.09    179.70   
    54. D(C   3,C   2,C   1,H   8)    -44.08 -0.000107   -0.21    -44.30   
    55. D(H   9,C   2,C   1,C   0)    -43.40  0.000005   -0.50    -43.90   
    56. D(H  10,C   3,C   2,C   1)    178.27 -0.000102   -0.18    178.09   
    57. D(H  10,C   3,C   2,H   9)    -43.98 -0.000017   -0.38    -44.36   
    58. D(H  11,C   3,C   2,C   1)     49.42 -0.000044   -0.41     49.00   
    59. D(C   4,C   3,C   2,H   9)     72.89 -0.000046   -0.61     72.28   
    60. D(C   4,C   3,C   2,C   1)    -64.86 -0.000131   -0.41    -65.27   
    61. D(H  14,C   4,C   3,H  11)     42.55 -0.000202    3.00     45.55   
    62. D(C   5,C   4,C   3,C   2)     36.91 -0.000475    3.10     40.01   
    63. D(H  14,C   4,C   3,H  10)    -77.59 -0.000349    2.98    -74.62   
    64. D(H  14,C   4,C   3,C   2)    160.65 -0.000211    3.07    163.72   
    65. D(C   5,C   4,C   3,H  11)    -81.19 -0.000467    3.03    -78.15   
    66. D(C   5,C   4,C   3,H  10)    158.66 -0.000614    3.01    161.68   
    67. D(H  12,C   5,C   4,C   3)   -152.92  0.001039   -5.23   -158.16   
    68. D(C   0,C   5,C   4,Cl 15)     92.33  0.001079   -5.57     86.76   
    69. D(C   0,C   5,C   4,H  14)   -154.11  0.000948   -5.18   -159.29   
    70. D(C   0,C   5,C   4,C   3)    -30.46  0.000906   -5.01    -35.47   
    71. D(H  12,C   5,C   0,H   7)     42.81 -0.000227    3.13     45.94   
    72. D(H  12,C   5,C   0,H   6)    -78.02 -0.000344    3.05    -74.97   
    73. D(H  12,C   5,C   0,C   1)    160.57 -0.000333    3.29    163.86   
    74. D(C   4,C   5,C   0,H   7)    -79.75 -0.000284    3.11    -76.65   
    75. D(C   4,C   5,C   0,H   6)    159.42 -0.000401    3.03    162.44   
    76. D(H  12,C   5,C   4,H  14)     83.42  0.001080   -5.40     78.02   
    77. D(C   4,C   5,C   0,C   1)     38.01 -0.000390    3.26     41.27   
    78. D(H  12,C   5,C   4,Cl 15)    -30.13  0.001212   -5.79    -35.93   
    ----------------------------------------------------------------------------

Geometry step timings:
Preparation and reading OPT file:      0.000 s ( 0.844 %)
Internal coordinates            :      0.000 s ( 1.880 %)
B/P matrices and projection     :      0.001 s (14.341 %)
Hessian update/contruction      :      0.001 s (16.703 %)
Making the step                 :      0.001 s (23.379 %)
Converting the step to Cartesian:      0.000 s ( 2.651 %)
Storing new data                :      0.000 s ( 3.543 %)
Checking convergence            :      0.000 s ( 2.989 %)
Final printing                  :      0.001 s (33.671 %)
Total time                      :      0.004 s

Time for energy+gradient        :      0.191 s
Time for complete geometry iter :      0.196 s

         *************************************************************
         *                GEOMETRY OPTIMIZATION CYCLE   3            *
         *************************************************************
---------------------------------
CARTESIAN COORDINATES (ANGSTROEM)
---------------------------------
  C     0.235885    0.213444    0.443572
  C     1.339909    0.104494   -0.533582
  C     2.142398    1.203199   -0.507102
  C     3.276351    1.020075    0.423686
  C     2.450830    0.935811    1.774100
  C     1.115381    0.146359    1.759675
  H    -0.484049   -0.604297    0.447441
  H    -0.283959    1.168524    0.394817
  H     1.813211   -0.870960   -0.582592
  H     1.671165    2.178307   -0.463031
  H     3.988284    1.842464    0.482140
  H     3.804294    0.076882    0.283451
  H     0.507540    0.498393    2.592797
  H     1.363090   -0.903595    1.928743
  H     3.093227    0.512455    2.550010
  Cl    2.115074    2.617415    2.300528

----------------------------
CARTESIAN COORDINATES (A.U.)
----------------------------
  NO LB    ZA    FRAG    MASS        X           Y           Z
   0 C   6.0000    0    12.011    0.445758    0.403351    0.838230
   1 C   6.0000    0    12.011    2.532061    0.197466   -1.008324
   2 C   6.0000    0    12.011    4.048545    2.273716   -0.958284
   3 C   6.0000    0    12.011    6.191406    1.927662    0.800651
   4 C   6.0000    0    12.011    4.631397    1.768427    3.352562
   5 C   6.0000    0    12.011    2.107764    0.276578    3.325304
   6 H   1.0000    0     1.008   -0.914719   -1.141955    0.845541
   7 H   1.0000    0     1.008   -0.536605    2.208190    0.746096
   8 H   1.0000    0     1.008    3.426472   -1.645877   -1.100939
   9 H   1.0000    0     1.008    3.158044    4.116403   -0.875002
  10 H   1.0000    0     1.008    7.536764    3.481752    0.911113
  11 H   1.0000    0     1.008    7.189074    0.145285    0.535644
  12 H   1.0000    0     1.008    0.959112    0.941827    4.899676
  13 H   1.0000    0     1.008    2.575866   -1.707548    3.644796
  14 H   1.0000    0     1.008    5.845352    0.968400    4.818821
  15 Cl 17.0000    0    35.453    3.996911    4.946198    4.347367

      -----------------------------------------------------------      
     |                   =====================                   |     
     |                           x T B                           |     
     |                   =====================                   |     
     |                         S. Grimme                         |     
     |          Mulliken Center for Theoretical Chemistry        |     
     |                    University of Bonn                     |     
      -----------------------------------------------------------      

   * xtb version 6.7.1 (edcfbbe) compiled by 'albert@albert-system' on 2024-07-22

   xtb is free software: you can redistribute it and/or modify it under
   the terms of the GNU Lesser General Public License as published by
   the Free Software Foundation, either version 3 of the License, or
   (at your option) any later version.
   
   xtb is distributed in the hope that it will be useful,
   but WITHOUT ANY WARRANTY; without even the implied warranty of
   MERCHANTABILITY or FITNESS FOR A PARTICULAR PURPOSE.  See the
   GNU Lesser General Public License for more details.
   
   Cite this work as:
   * C. Bannwarth, E. Caldeweyher, S. Ehlert, A. Hansen, P. Pracht,
     J. Seibert, S. Spicher, S. Grimme, WIREs Comput. Mol. Sci., 2020, 11,
     e01493. DOI: 10.1002/wcms.1493
   
   for GFN2-xTB:
   * C. Bannwarth, S. Ehlert and S. Grimme., J. Chem. Theory Comput., 2019,
     15, 1652-1671. DOI: 10.1021/acs.jctc.8b01176
   for GFN1-xTB:
   * S. Grimme, C. Bannwarth, P. Shushkov, J. Chem. Theory Comput., 2017,
     13, 1989-2009. DOI: 10.1021/acs.jctc.7b00118
   for GFN0-xTB:
   * P. Pracht, E. Caldeweyher, S. Ehlert, S. Grimme, ChemRxiv, 2019, preprint.
     DOI: 10.26434/chemrxiv.8326202.v1
   for GFN-FF:
   * S. Spicher and S. Grimme, Angew. Chem. Int. Ed., 2020, 59, 15665-15673.
     DOI: 10.1002/anie.202004239
   
   for ALPB and GBSA implicit solvation:
   * S. Ehlert, M. Stahn, S. Spicher, S. Grimme, J. Chem. Theory Comput.,
     2021, 17, 4250-4261. DOI: 10.1021/acs.jctc.1c00471
   
   for ddCOSMO and CPCM-X implicit solvation:
   * M. Stahn, S. Ehlert, S. Grimme, J. Phys. Chem. A,
     2023, XX, XXXX-XXXX. DOI: 10.1021/acs.jpca.3c04382
   
   for DFT-D4:
   * E. Caldeweyher, C. Bannwarth and S. Grimme, J. Chem. Phys., 2017,
     147, 034112. DOI: 10.1063/1.4993215
   * E. Caldeweyher, S. Ehlert, A. Hansen, H. Neugebauer, S. Spicher,
     C. Bannwarth and S. Grimme, J. Chem. Phys., 2019, 150, 154122.
[...]
     44      -0.158636  -0.203604   0.053363   0.137141  -0.024023   0.015045
     45       0.001511   0.000953  -0.000604  -0.000232  -0.000588  -0.000119
     46      -0.000649   0.000398   0.000440   0.000093  -0.000102  -0.000245
     47       0.000005   0.000578   0.000343   0.000523   0.000213   0.000128
                 36         37         38         39         40         41    
      0      -0.033434   0.093910  -0.033872  -0.001002  -0.004515  -0.045543
      1       0.003401  -0.012000  -0.032548   0.000020  -0.011412  -0.047052
      2       0.001768  -0.017669   0.047701   0.000157  -0.000031  -0.000845
      3       0.007757  -0.002691   0.337346   0.000364   0.001495  -0.004429
      4       0.011355   0.012410   0.329786  -0.000361  -0.004024   0.006918
      5      -0.004240   0.016919  -0.058242   0.000020  -0.000071   0.000729
      6       0.001069  -0.011900  -0.334692  -0.000674   0.000290  -0.001058
      7      -0.008257  -0.017151  -0.323421   0.000810  -0.000613   0.001587
      8       0.007111  -0.002316  -0.068580  -0.000035  -0.000003  -0.000179
      9      -0.041821  -0.003759   0.028410  -0.001650   0.001119  -0.001047
     10       0.005542   0.004317   0.027375   0.001374  -0.005472  -0.005392
     11      -0.005968   0.001789   0.045243   0.002170  -0.000613  -0.000417
     12      -0.000774  -0.002059  -0.010754   0.046473  -0.004361  -0.000081
     13       0.004074  -0.000390  -0.002859  -0.023730   0.004539   0.000189
     14      -0.003612   0.000075   0.015150   0.058667  -0.004893  -0.001842
     15       0.024117   0.010406   0.010387  -0.000378  -0.029433   0.020061
     16       0.043863   0.018594  -0.000788   0.006300   0.075241  -0.010631
     17      -0.048287  -0.021874   0.021272  -0.000785   0.007375  -0.030466
     18       0.161694  -0.460905  -0.052720   0.006719   0.081936   0.576559
     19      -0.159406   0.459648   0.008397   0.007520   0.083873   0.632946
     20       0.006771  -0.009336   0.129101  -0.000021  -0.000117   0.001934
     21       0.213326  -0.581527   0.121577   0.001110  -0.040948  -0.008100
     22       0.114656  -0.309077   0.043688  -0.004764   0.072338  -0.050460
     23      -0.027635   0.021846  -0.132790  -0.000649  -0.004223   0.001562
     24      -0.018097   0.013851  -0.461552  -0.001565  -0.018694   0.046765
     25       0.002195   0.022856  -0.036981   0.003437   0.043557  -0.102926
     26      -0.006314  -0.029887   0.068125   0.000177   0.002487  -0.006635
     27      -0.014602   0.036535   0.449130   0.002105  -0.002512   0.006875
     28      -0.013004   0.004416   0.021739  -0.005972   0.006307  -0.012473
     29      -0.014117  -0.008575   0.051945  -0.000912  -0.000215   0.000872
     30       0.211698   0.035441   0.072760   0.013115   0.013724   0.029236
     31      -0.201171  -0.030074  -0.036907   0.017490   0.012496   0.031804
     32      -0.028561   0.004652   0.120692   0.001625   0.000573   0.001064
     33       0.255497   0.025763  -0.093761   0.019631  -0.028029  -0.018946
     34       0.143125   0.018029  -0.019296  -0.040644   0.054671   0.034051
     35       0.011358  -0.014179  -0.130374  -0.005794   0.006653   0.004846
     36       0.019725   0.033457  -0.018754  -0.012906   0.107109  -0.272454
     37      -0.563303  -0.232181   0.087667   0.010768  -0.019742   0.129279
     38       0.181679   0.088108  -0.029715   0.018449  -0.171807   0.387662
     39      -0.313096  -0.108651   0.005629   0.027338   0.254189   0.011911
     40      -0.031783  -0.007584  -0.009076  -0.096511  -0.919573  -0.011140
     41       0.507871   0.223137  -0.094338   0.006461   0.080112  -0.013633
     42      -0.012398   0.001960   0.009226  -0.579557   0.052745   0.011657
     43       0.006608   0.005582  -0.022875   0.323509  -0.030363  -0.006593
     44       0.003779  -0.001182  -0.005543  -0.734697   0.065482   0.014429
     45       0.000274   0.000122   0.000179   0.000286   0.000067  -0.000030
     46      -0.000359  -0.000014  -0.000202  -0.000827   0.000064   0.000099
     47      -0.000016   0.000011  -0.000211  -0.000054   0.000001   0.000039
                 42         43         44         45         46         47    
      0       0.006404  -0.024095  -0.000195  -0.017365  -0.028758   0.003084
      1       0.007266  -0.028273  -0.003221   0.020641   0.066654  -0.010164
      2      -0.000653   0.001622  -0.000034  -0.000066  -0.001633   0.000015
      3       0.004543   0.000888  -0.002718   0.027632  -0.012325   0.004543
      4      -0.009348  -0.002695   0.005627  -0.064722   0.029516  -0.005932
      5      -0.000731  -0.000073   0.000597  -0.004623   0.001987  -0.000963
      6       0.001921  -0.000091  -0.002077   0.001543   0.004069   0.031065
      7      -0.004023  -0.000063   0.001281   0.000750  -0.010744  -0.072586
      8       0.000061  -0.000080  -0.000190   0.000505  -0.000314  -0.000367
      9      -0.037047  -0.006665  -0.048961   0.000731  -0.001457   0.001767
     10       0.055950   0.031132  -0.060126  -0.012162   0.001897  -0.009841
     11       0.007025   0.003920  -0.004295  -0.000974   0.000083  -0.001453
     12      -0.003652   0.000067  -0.001851   0.000176  -0.000660   0.000861
     13       0.002965   0.000505  -0.001467  -0.000539   0.000743  -0.000987
     14      -0.003123   0.002218  -0.000052  -0.000226  -0.000435   0.000473
     15       0.010873  -0.029529  -0.004586   0.000543  -0.005209   0.000922
     16       0.003256   0.000138  -0.001136  -0.001744   0.009009  -0.002411
     17      -0.019422   0.047568   0.008956  -0.000319   0.002888   0.000063
     18      -0.083185   0.315316   0.013231   0.053677  -0.041746   0.016746
     19      -0.091154   0.344134   0.013684   0.078308  -0.002551   0.013584
     20      -0.000568   0.001811   0.001059  -0.000333  -0.000342   0.000336
     21       0.006572  -0.019390  -0.013513   0.173155   0.392816  -0.057288
     22      -0.002825   0.006139   0.026938  -0.361951  -0.809692   0.112854
     23      -0.000419  -0.000768  -0.000647   0.007485   0.022887  -0.001631
     24      -0.055367  -0.008880   0.029882  -0.370600   0.156155  -0.026408
     25       0.117400   0.018650  -0.062491   0.814010  -0.347347   0.061068
     26       0.009294   0.001175  -0.004513   0.051777  -0.021173   0.011514
     27      -0.032586  -0.007691   0.017286   0.012164  -0.063646  -0.403542
     28       0.066005   0.016737  -0.036856  -0.026756   0.136390   0.894695
     29      -0.000043  -0.000202  -0.000036  -0.008032   0.004488   0.014049
     30       0.054130  -0.080363   0.648178   0.046146   0.002895   0.024101
     31       0.106885  -0.072976   0.734055   0.047452   0.004273   0.023499
     32       0.008381  -0.004141   0.044385   0.002295   0.000598   0.001625
     33       0.408760   0.166372  -0.040873  -0.059348   0.019097  -0.038126
     34      -0.805102  -0.315637   0.011429   0.107351  -0.033785   0.072292
     35      -0.105609  -0.042050   0.003021   0.012736  -0.003238   0.011622
     36      -0.170447   0.423701   0.077463  -0.004920   0.034068  -0.002213
     37       0.085775  -0.209233  -0.039325   0.001548  -0.014454   0.000341
     38       0.242353  -0.604567  -0.111092   0.006462  -0.050237   0.002872
     39       0.039669  -0.069379  -0.017143  -0.007873   0.021553  -0.007011
     40      -0.125425   0.201214   0.054953   0.027746  -0.083721   0.027162
     41       0.000933   0.006362  -0.000410  -0.004448   0.009234  -0.003281
     42       0.036044  -0.012643   0.004727  -0.000293   0.006388  -0.007542
     43      -0.020991   0.006175  -0.004176   0.000420  -0.003358   0.003573
     44       0.044855  -0.013634   0.008023   0.000256   0.007867  -0.009345
     45      -0.000043   0.000030   0.000009  -0.000003   0.000021  -0.000059
     46       0.000039  -0.000116   0.000151   0.000009  -0.000070   0.000153
     47       0.000043  -0.000041   0.000024  -0.000007  -0.000022  -0.000033


The first frequency considered to be a vibration is 6
The total number of vibrations considered is 42


--------------------------
THERMOCHEMISTRY AT 298.15K
--------------------------

Temperature         ...   298.15 K
Pressure            ...     1.00 atm
Total Mass          ...   116.59 AMU
Quasi RRHO          ...     True
Cut-Off Frequency   ...     1.00 cm^-1

Throughout the following assumptions are being made:
  (1) The electronic state is orbitally nondegenerate
  (2) There are no thermally accessible electronically excited states
  (3) Hindered rotations indicated by low frequency modes are not
      treated as such but are treated as vibrations and this may
      cause some error
  (4) All equations used are the standard statistical mechanics
      equations for an ideal gas
  (5) All vibrations are strictly harmonic

freq.     121.95  E(vib)   ...       0.44 
freq.     225.44  E(vib)   ...       0.33 
freq.     301.99  E(vib)   ...       0.26 
freq.     358.42  E(vib)   ...       0.22 
freq.     409.10  E(vib)   ...       0.19 
freq.     495.15  E(vib)   ...       0.14 
freq.     558.10  E(vib)   ...       0.12 
freq.     598.75  E(vib)   ...       0.10 
freq.     674.80  E(vib)   ...       0.08 
freq.     736.27  E(vib)   ...       0.06 
freq.     801.10  E(vib)   ...       0.05 
freq.     833.68  E(vib)   ...       0.04 
freq.     905.41  E(vib)   ...       0.03 
freq.     930.05  E(vib)   ...       0.03 
freq.     961.72  E(vib)   ...       0.03 
freq.    1025.50  E(vib)   ...       0.02 
freq.    1048.11  E(vib)   ...       0.02 
freq.    1080.78  E(vib)   ...       0.02 
freq.    1099.42  E(vib)   ...       0.02 
freq.    1116.01  E(vib)   ...       0.01 
freq.    1123.19  E(vib)   ...       0.01 
freq.    1172.13  E(vib)   ...       0.01 
freq.    1191.59  E(vib)   ...       0.01 
freq.    1219.31  E(vib)   ...       0.01 
freq.    1246.63  E(vib)   ...       0.01 
freq.    1263.01  E(vib)   ...       0.01 
freq.    1285.13  E(vib)   ...       0.01 
freq.    1295.03  E(vib)   ...       0.01 
freq.    1314.03  E(vib)   ...       0.01 
freq.    1451.10  E(vib)   ...       0.00 
freq.    1458.77  E(vib)   ...       0.00 
freq.    1467.42  E(vib)   ...       0.00 
freq.    1539.37  E(vib)   ...       0.00 
freq.    2932.40  E(vib)   ...       0.00 
freq.    2964.66  E(vib)   ...       0.00 
freq.    2984.62  E(vib)   ...       0.00 
freq.    2988.12  E(vib)   ...       0.00 
freq.    2989.76  E(vib)   ...       0.00 
freq.    2991.28  E(vib)   ...       0.00 
freq.    3005.98  E(vib)   ...       0.00 
freq.    3018.06  E(vib)   ...       0.00 
freq.    3039.52  E(vib)   ...       0.00 

------------
INNER ENERGY
------------

The inner energy is: U= E(el) + E(ZPE) + E(vib) + E(rot) + E(trans)
    E(el)   - is the total energy from the electronic structure calculation
              = E(kin-el) + E(nuc-el) + E(el-el) + E(nuc-nuc)
    E(ZPE)  - the the zero temperature vibrational energy from the frequency calculation
    E(vib)  - the the finite temperature correction to E(ZPE) due to population
              of excited vibrational states
    E(rot)  - is the rotational thermal energy
    E(trans)- is the translational thermal energy

Summary of contributions to the inner energy U:
Electronic energy                ...    -21.89176275 Eh
Zero point energy                ...      0.13264137 Eh      83.23 kcal/mol
Thermal vibrational correction   ...      0.00366813 Eh       2.30 kcal/mol
Thermal rotational correction    ...      0.00141627 Eh       0.89 kcal/mol
Thermal translational correction ...      0.00141627 Eh       0.89 kcal/mol
-----------------------------------------------------------------------
Total thermal energy                    -21.75262071 Eh


Summary of corrections to the electronic energy:
(perhaps to be used in another calculation)
Total thermal correction                  0.00650067 Eh       4.08 kcal/mol
Non-thermal (ZPE) correction              0.13264137 Eh      83.23 kcal/mol
-----------------------------------------------------------------------
Total correction                          0.13914205 Eh      87.31 kcal/mol


--------
ENTHALPY
--------

The enthalpy is H = U + kB*T
                kB is Boltzmann's constant
Total thermal energy              ...    -21.75262071 Eh 
Thermal Enthalpy correction       ...      0.00094421 Eh       0.59 kcal/mol
-----------------------------------------------------------------------
Total Enthalpy                    ...    -21.75167650 Eh


WARNING (ORCA/SYM): The number of Z matrix atoms does not agree with
the number of centers in the basis set. The point group will therefore
be determined without considering basis set information.


Note: Only C1 symmetry has been detected, increase convergence thresholds 
      if your molecule has a higher symmetry. Symmetry factor of 1.0 is   
      used for the rotational entropy correction. 
 

Note: Rotational entropy computed according to Herzberg 
Infrared and Raman Spectra, Chapter V,1, Van Nostrand Reinhold, 1945 
Point Group:  C1, Symmetry Number:   1  
Rotational constants in cm-1:     0.120221     0.062741     0.052586 

Vibrational entropy computed according to the QRRHO of S. Grimme
Chem.Eur.J. 2012 18 9955 using a reference frequency of 100.0 cm-1


-------
ENTROPY
-------

The entropy contributions are T*S = T*(S(el)+S(vib)+S(rot)+S(trans))
     S(el)   - electronic entropy
     S(vib)  - vibrational entropy
     S(rot)  - rotational entropy
     S(trans)- translational entropy
The entropies will be listed as multiplied by the temperature to get
units of energy

Electronic entropy                ...      0.00000000 Eh      0.00 kcal/mol
Vibrational entropy               ...      0.00574123 Eh      3.60 kcal/mol
Rotational entropy                ...      0.01320844 Eh      8.29 kcal/mol
Translational entropy             ...      0.01908864 Eh     11.98 kcal/mol
-----------------------------------------------------------------------
Final entropy term                ...      0.03803831 Eh     23.87 kcal/mol

In case the symmetry of your molecule has not been determined correctly
or in case you have a reason to use a different symmetry number we print 
out the resulting rotational entropy values for sn=1,12:

 non-linear molecules -----------------------------------
|  sn= 1 | S(rot)=       0.01320844 Eh      8.29 kcal/mol|
|  sn= 2 | S(rot)=       0.01255398 Eh      7.88 kcal/mol|
|  sn= 3 | S(rot)=       0.01217115 Eh      7.64 kcal/mol|
|  sn= 4 | S(rot)=       0.01189953 Eh      7.47 kcal/mol|
|  sn= 5 | S(rot)=       0.01168884 Eh      7.33 kcal/mol|
|  sn= 6 | S(rot)=       0.01151670 Eh      7.23 kcal/mol|
|  sn= 7 | S(rot)=       0.01137115 Eh      7.14 kcal/mol|
|  sn= 8 | S(rot)=       0.01124507 Eh      7.06 kcal/mol|
|  sn= 9 | S(rot)=       0.01113386 Eh      6.99 kcal/mol|
|  sn=10 | S(rot)=       0.01103438 Eh      6.92 kcal/mol|
|  sn=11 | S(rot)=       0.01094439 Eh      6.87 kcal/mol|
|  sn=12 | S(rot)=       0.01086224 Eh      6.82 kcal/mol|
 linear molecules ---------------------------------------
|  Dinfh | S(rot)=       0.00810670 Eh      5.09 kcal/mol|
|  Cinfv | S(rot)=       0.00876116 Eh      5.50 kcal/mol|
 --------------------------------------------------------


-------------------
GIBBS FREE ENERGY
-------------------

The Gibbs free energy is G = H - T*S

Total enthalpy                    ...    -21.75167650 Eh 
Total entropy correction          ...     -0.03803831 Eh    -23.87 kcal/mol
-----------------------------------------------------------------------
Final Gibbs free energy         ...    -21.78971481 Eh

For completeness - the Gibbs free energy minus the electronic energy
G-E(el)                           ...      0.10204794 Eh     64.04 kcal/mol


--------------------------------
SUGGESTED CITATIONS FOR THIS RUN
--------------------------------

Below you find a list of papers that are relevant to this ORCA run
We neither can nor want to force you to cite these papers, but we appreciate if you do
You receive ORCA, which is the product of decades of hard work by many enthusiastic individuals, for free
The only thing we kindly ask in return is that you cite our papers,
We deeply appreciate it, if you show your appreciation for ORCA by not just citing the generic ORCA reference.

Please note that relegating all ORCA citations to the supporting information does *not* help us.
SI sections are not indexed - citations you put there will not count into any citation statistics
But we need these citations in order to attract the funding resources that allow us to do what we are doing

Therefore, if you are a happy ORCA user, please consider citing a few of the papers listed below in the main body of your paper

In addition to the list printed below, the program has created the file product_optfreq.bibtex that contains the list in bibtex format
You can import this file easily into all common literature databanks and citation aid programs


List of essential papers. We consider these as the minimum necessary citations

  1. Bannwarth, C.; Ehlert, S.; Grimme, S.
     GFN2-xTB—An Accurate and Broadly Parametrized Self-Consistent Tight-Binding Quantum Chemical Method with Multipole Electrostatics and Density-Dependent Dispersion Contributions
     J. Chem. Theory Comput. 2019 15(3), 1652-1671
     doi.org/10.1021/acs.jctc.8b01176
  2. Neese, F.
     Software update: the ORCA program system, version 6.0
     WIRES Comput. Molec. Sci. 2025 15(1), e70019
     doi.org/10.1002/wcms.7019

List of papers to cite with high priority. The work reported in these papers was absolutely
necessary for this run to complete.
Our perspective: the developers of density functionals and basis sets usually get cited in chemistry papers
Good! But without the algorithms to do something with them, the functionals or basis sets would not do anything.
Hence, in our opinion, the algorithm design and method developments papers are equally worthy of getting cited

  1. Bykov, D.; Petrenko, T.; Izsak, R.; Kossmann, S.; Becker, U.; Valeev, E.; Neese, F.
     Efficient implementation of the analytic second derivatives of Hartree-Fock and hybrid DFT energies: a detailed analysis of different approximations
     Molec. Phys. 2015 113 , 1961-1977
     doi.org/10.1080/00268976.2015.1025114
  2. Bannwarth, C.; Caldeweyher, E.; Ehlert, S.; Hansen, A.; Pracht, P.; Seibert, J.; Spicher, S.; Grimme, S.
     Extended tight-binding quantum chemistry methods
     WIRES Comput. Molec. Sci. 2020 11(2), e1493
     doi.org/10.1002/wcms.1493

List of suggested additional citations. These are papers that are important in the 'surrounding' of 
of this run, or papers that preceded the highly important papers. If you like your results we are grateful for a citation.

  1. Neese, F.
     The ORCA program system
     WIRES Comput. Molec. Sci. 2012 2(1), 73-78
     doi.org/10.1002/wcms.81
  2. Neese, F.
     Software update: the ORCA program system, version 4.0
     WIRES Comput. Molec. Sci. 2018 8(1), 1-6
     doi.org/10.1002/wcms.1327
  3. Neese, F.; Wennmohs, F.; Becker, U.; Riplinger, C.
     The ORCA quantum chemistry program package
     J. Chem. Phys. 2020 152(22), 224108
     doi.org/10.1063/5.0004608
  4. Neese, F.
     Software update: The ORCA program system—Version 5.0
     WIRES Comput. Molec. Sci. 2022 12(1), e1606
     doi.org/10.1002/wcms.1606

List of optional additional citations

  1. Neese, F.
     Approximate second-order SCF convergence for spin unrestricted wavefunctions
     Chem. Phys. Lett. 2000 325(1-3), 93-98
     doi.org/10.1016/s0009-2614(00)00662-x

Timings for individual modules:

Sum of individual times          ...        2.305 sec (=   0.038 min)
Geometry relaxation              ...        0.037 sec (=   0.001 min)   1.6 %
XTB module                       ...        2.268 sec (=   0.038 min)  98.4 %
                             ****ORCA TERMINATED NORMALLY****
TOTAL RUN TIME: 0 days 0 hours 0 minutes 3 seconds 399 msec
