
                                 *****************
                                 * O   R   C   A *
                                 *****************

                                            #,                                       
                                            ###                                      
                                            ####                                     
                                            #####                                    
                                            ######                                   
                                           ########,                                 
                                     ,,################,,,,,                         
                               ,,#################################,,                 
                          ,,##########################################,,             
                       ,#########################################, ''#####,          
                    ,#############################################,,   '####,        
                  ,##################################################,,,,####,       
                ,###########''''           ''''###############################       
              ,#####''   ,,,,##########,,,,          '''####'''          '####       
            ,##' ,,,,###########################,,,                        '##       
           ' ,,###''''                  '''############,,,                           
         ,,##''                                '''############,,,,        ,,,,,,###''
      ,#''                                            '''#######################'''  
     '                                                          ''''####''''         
             ,#######,   #######,   ,#######,      ##                                
            ,#'     '#,  ##    ##  ,#'     '#,    #''#        ,####,    ,#,          
            ##       ##  ##   ,#'  ##            #'  '#       #'       ,# #          
            ##       ##  #######   ##           ,######,      #####,      #          
            '#,     ,#'  ##    ##  '#,     ,#' ,#      #,     #,   #      #          
             '#######'   ##     ##  '#######'  #'      '#     '####' #    #          



                #########################################################
                #                        -***-                          #
                #          Department of theory and spectroscopy        #
                #                                                       #
                #                      Frank Neese                      #
                #                                                       #
                #     Directorship, Architecture, Infrastructure        #
                #                    SHARK, DRIVERS                     #
                #        Core code/Algorithms in most modules           #
                #                                                       #
                #        Max Planck Institute fuer Kohlenforschung      #
                #                Kaiser Wilhelm Platz 1                 #
                #                 D-45470 Muelheim/Ruhr                 #
                #                      Germany                          #
                #                                                       #
                #                  All rights reserved                  #
                #                        -***-                          #
                #########################################################


                         Program Version 6.1.0  -  RELEASE   -
                                (GIT: $679e74b$)
                          ($2025-06-10 18:02:51 +0200$)


 With contributions from (in alphabetic order):
[Max-Planck-Institut fuer Kohlenforschung]                               
  Daniel Aravena         : Magnetic Suceptibility                        
  Michael Atanasov       : Ab Initio Ligand Field Theory (pilot matlab implementation)
  Alexander A. Auer      : GIAO ZORA, VPT2 properties, NMR spectrum      
  Ute Becker             : All parallelization in ORCA, NUMFREQ, NUMCALC 
  Giovanni Bistoni       : ED, misc. LED, open-shell LED, HFLD           
  Dmytro Bykov           : pre 5.0 version of the SCF Hessian            
  Marcos Casanova-Páez   : Triplet and SCS-CIS(D). UHF-(DLPNO)-IP/EA/STEOM-CCSD. UHF-CVS-IP/STEOM-CCSD   
  Vijay G. Chilkuri      : MRCI spin determinant printing, contributions to CSF-ICE 
  Pauline Colinet        : FMM embedding                                 
  Dipayan Datta          : RHF DLPNO-CCSD density                        
  Achintya Kumar Dutta   : EOM-CC, STEOM-CC                              
  Nicolas Foglia         : Exact transition moments, OPA infrastructure, MCD improvements    
  Dmitry Ganyushin       : Spin-Orbit,Spin-Spin,Magnetic field MRCI      
  Miquel Garcia-Rates    : C-PCM and meta-GGA Hessian, CCSD/C-PCM, Gaussian charge scheme 
  Tiago L. C. Gouveia    : GS-ROHF, GS-ROCIS                             
  Yang Guo               : DLPNO-NEVPT2, F12-NEVPT2, CIM, IAO-localization        
  Andreas Hansen         : Spin unrestricted coupled pair/coupled cluster methods 
  Ingolf Harden          : AUTO-CI MPn and infrastructure                
  Benjamin Helmich-Paris : MC-RPA, TRAH-(SCF,CASSCF), AVAS, COSX integrals, SCF dyn. polar., MC-PDFT, srDFT 
  Lee Huntington         : MR-EOM, pCC                                   
  Robert Izsak           : Overlap fitted RIJCOSX, COSX-SCS-MP3, EOM     
  Riya Kayal             : Wick's Theorem for AUTO-CI, AUTO-CI UHF-CCSDT 
  Emily Kempfer          : AUTO-CI RHF CISDT and CCSDT, approximate NEVPT4
  Christian Kollmar      : KDIIS, OOCD, Brueckner-CCSD(T), CCSD density, CASPT2, CASPT2-K, improved NEVPT2 
  Axel Koslowski         : Symmetry handling                             
  Simone Kossmann        : meta-GGA functionals, TD-DFT gradient, OOMP2, (MP2 Hessian; deprecated post 5.0) 
  Lucas Lang             : DCDCAS, Hyperfine gauge corrections, ICE-SOC+SSC
  Marvin Lechner         : AUTO-CI (C++ implementation), FIC-MRCC        
  Spencer Leger          : CASSCF response                               
  Dagmar Lenk            : GEPOL surface, SMD, ORCA-2-JSON               
  Dimitrios Liakos       : Extrapolation schemes; Compound Job, Property file
  Dimitrios Manganas     : Further ROCIS development; embedding schemes. LFT, Crystal Embedding 
  Dimitrios Pantazis     : SARC Basis sets                               
  Anastasios Papadopoulos: AUTO-CI, single reference methods and gradients 
  Taras Petrenko         : pre 6.0 DFT Hessian and TD-DFT gradient,  ECA, NRVS 
  Petra Pikulova         : Analytic Raman intensities                    
  Peter Pinski           : DLPNO-MP2, DLPNO-MP2 Gradient                 
  Shashank Vittal Rao    : ES-AILFT, MagRelax                            
  Christoph Reimann      : Effective Core Potentials                     
  Marius Retegan         : Local ZFS, SOC                                
  Christoph Riplinger    : Optimizer, TS searches, QM/MM, DLPNO-CCSD(T), (RO)-DLPNO pert. Triples 
  Michael Roemelt        : Original ROCIS implementation, recursive CI coupling coefficients
  Masaaki Saitow         : Open-shell DLPNO-CCSD energy and density      
  Barbara Sandhoefer     : DKH picture change effects                    
  Yorick L. A. Schmerwitz: GMF and freeze-and-release deltaSCF, NEB S-IDPP initial path                    
  Kantharuban Sivalingam : CASSCF convergence/infrastructure, NEVPT2, NEVPT3, NEVPT4(SD), FIC-MRCI and CEPA variants
  Bernardo de Souza      : ESD, SOC TD-DFT                               
  Georgi L. Stoychev     : AutoAux, RI-MP2 NMR, DLPNO-MP2 response, X2C  
  Van Anh Tran           : RI-MP2 g-tensors                              
  Willem Van den Heuvel  : Paramagnetic NMR                              
  Zikuan Wang            : NOTCH, Electric field optimization            
  Frank Wennmohs         : Technical directorship and infrastructure     
  Hang Xu                : AUTO-CI-Response properties                   
                                                                         
[FACCTs GmbH]                                                            
  Markus Bursch, Nicolas Foglia, Miquel Garcia-Rates, Ingolf Harden, Hagen Neugebauer, Anastasios Papadopoulos, 
  Christoph Riplinger, Bernardo de Souza, Georgi L. Stoychev                                                    
                                                                 
  APM, various basis sets, CI-OPT, improved COSX, DLPNO-Multilevel,           
  DOCKER, DRACO, updates on ESD, Fragmentator, GOAT, IRC, LR-CPCM, L-BFGS, MBIS, meta-GGA TD-DFT gradient, ML-optimized integration grids, 
  MM, NACMEs, nearIR, NEB, NEB-TS, NL-DFT gradient (VV10), 2- and 3-layer-ONIOM, interface openCOSMO-RS, QMMM,   
  Crystal-QMMM, RESP, rigid body optimization, SF, symmetry and pop. for TD-DFT, various functionals, SOLVATOR                                   
                                                                         
[Other institutions]                                                     
  V. Asgeirsson          : NEB                                           
  Christoph Bannwarth    : sTDA-DFT, sTD-DFT, PBEh-3c, B97-3c, D3        
  Giovanni Bistoni       : ETS/NOCV, ADLD/ADEX, COVALED                  
  Martin Brehm           : Molecular dynamics                            
  Ronald Cardenas        : ETS/NOCV                                      
  Martina Colucci        : COVALED                                       
  Sebastian Ehlert       : rSCAN, r2SCAN, r2SCAN-3c, D4, dhf basis sets  
  Marvin Friede          : D4 for Fr, Ra, Ac-Lr                          
  Lars Goerigk           : TD-DFT with DH, B97 family of functionals     
  Stefan Grimme          : VdW corrections, initial TS optimization, DFT functionals, gCP, sTDA/sTD-DF 
  Waldemar Hujo          : DFT-NL                                        
  H. Jonsson             : NEB                                           
  Holger Kruse           : gCP                                           
  Marcel Mueller         : wB97X-3c, vDZP basis set                      
  Hagen Neugebauer       : wr2SCAN, Native XTB                           
  Gianluca Regni         : ADLD/ADEX                                     
  Tobias Risthaus        : pre 6.0 range-separated hybrid DFT and stability analysis
  Lukas Wittmann         : regularized MP2, r2SCAN double-hybrids, wr2SCAN        
                                                                         
We gratefully acknowledge several colleagues who have allowed us to      
interface, adapt or use parts of their codes:                            
  Ed Valeev, F. Pavosevic, A. Kumar             : LibInt (2-el integral package), F12 methods 
  Garnet Chan, S. Sharma, J. Yang, R. Olivares  : DMRG                   
  Ulf Ekstrom                                   : XCFun DFT Library      
  Mihaly Kallay                                 : mrcc  (arbitrary order and MRCC methods)
  Frank Weinhold                                : gennbo (NPA and NBO analysis)           
  Simon Mueller                                 : openCOSMO-RS                            
  Christopher J. Cramer and Donald G. Truhlar   : smd solvation model                     
  S Lehtola, MJT Oliveira, MAL Marques          : LibXC Library                           
  Liviu Ungur et al                             : ANISO software                          


 Your calculation uses the libint2 library for the computation of 2-el integrals
 For citations please refer to: http://libint.valeyev.net

 Your ORCA version has been built with support for libXC version: 7.0.0
 For citations please refer to: https://libxc.gitlab.io

 This ORCA versions uses:
   CBLAS   interface :  Fast vector & matrix operations
   LAPACKE interface :  Fast linear algebra routines
   SCALAPACK package :  Parallel linear algebra routines
   Shared memory     :  Shared parallel matrices
   BLAS/LAPACK       :  OpenBLAS 0.3.29  USE64BITINT DYNAMIC_ARCH NO_AFFINITY SkylakeX SINGLE_THREADED
        Core in use  :  SkylakeX
   Copyright (c) 2011-2014, The OpenBLAS Project


  ***********************************
  * Starting time: Sun Mar 15 21:59:40 2026
  * Host name:     midway3-login3.rcc.local
  * Process ID:    3194038
  * Working dir.:  /home/rzhu16/orca_TS_search/runs/da_cl/geo_opt_reactant_product
  ***********************************

Your calculation utilizes the semiempirical GFN2-xTB method
Please cite in your paper:
Bannwarth, C.; Ehlert S.; Grimme, S. J. Chem. Theory Comput. 2019, 15, 1652.
   

================================================================================

================================================================================
                                        WARNINGS
                       Please study these warnings very carefully!
================================================================================


WARNING: Analytical Hessian for XTB is limited in the analysis of the data.
       : If you want to obtain extensive IR and deltaG analysis, please use ! XTB NumFreq. 


WARNING: Geometry Optimization
  ===> : Switching off AutoStart
         For restart on a previous wavefunction, please use MOREAD

WARNING: Found dipole moment calculation with XTB calculation
  ===> : Switching off dipole moment calculation


WARNING: Found frequency calculation in combination with XTB calculation
  ===> : Need to redirect dipole moment calculation to properties.out


================================================================================
                                       INPUT FILE
================================================================================
NAME = reactant_optfreq.inp
|  1> ! XTB2 Opt Freq PAL8
|  2> 
|  3> %geom
|  4>   MaxIter 500
|  5> end
|  6> 
|  7> * xyz 0 1
|  8>   C       0.084888      0.152823     -0.013611
|  9>   C       1.317154      0.068997     -0.502553
| 10>   C       2.197125      1.220496     -0.474268
| 11>   C       3.455229      1.108882     -0.064739
| 12>   C       2.294449      0.878777      2.465780
| 13>   C       1.192286      0.155045      2.417105
| 14>   H      -0.528541     -0.710727      0.174292
| 15>   H      -0.329004      1.109758      0.258555
| 16>   H       1.758843     -0.887361     -0.749239
| 17>   H       1.741484      2.191865     -0.610238
| 18>   H       4.067336      1.964679      0.158930
| 19>   H       3.893209      0.139151      0.110229
| 20>   H       0.218224      0.599853      2.503115
| 21>   H       1.241676     -0.909347      2.279669
| 22>   H       3.289051      0.472487      2.394224
| 23>   Cl      2.262570      2.590865      2.632902
| 24> *
| 25> 
| 26>                          ****END OF INPUT****
================================================================================

                       *****************************
                       * Geometry Optimization Run *
                       *****************************

Geometry optimization settings:
Update method            Update   .... BFGS
Choice of coordinates    CoordSys .... (2022) Redundant Internals
Initial Hessian          InHess   .... Almloef's Model
Max. no of cycles        MaxIter  .... 500

Convergence Tolerances:
Energy Change            TolE     ....  5.0000e-06 Eh
Max. Gradient            TolMAXG  ....  3.0000e-04 Eh/bohr
RMS Gradient             TolRMSG  ....  1.0000e-04 Eh/bohr
Max. Displacement        TolMAXD  ....  4.0000e-03 bohr
RMS Displacement         TolRMSD  ....  2.0000e-03 bohr
Strict Convergence                .... False

------------------------------------------------------------------------------
                        ORCA OPTIMIZATION COORDINATE SETUP
------------------------------------------------------------------------------

The optimization will be done in redundant internal coordinates (2022)
Making redundant internal coordinates   ...  (2022 redundants) done
Evaluating the initial hessian          ...  (Almloef) done
Evaluating the coordinates              ...  done
Calculating the B-matrix                .... done
Calculating the G-matrix                .... done
The number of degrees of freedom        ....  146

    -----------------------------------------------------------------
                    Redundant Internal Coordinates


    -----------------------------------------------------------------
         Definition                    Initial Value    Approx d2E/dq
    -----------------------------------------------------------------
      1. B(C   1,C   0)                  1.3284         0.783543   
      2. B(C   2,C   1)                  1.4495         0.502092   
      3. B(C   3,C   2)                  1.3278         0.785250   
      4. B(C   4,C   3)                  2.7935         0.010000   
      5. B(C   4,C   2)                  2.9614         0.010000   
      6. B(C   5,C   1)                  2.9236         0.010000   
      7. B(C   5,C   0)                  2.6711         0.010000   
      8. B(C   5,C   4)                  1.3194         0.809680   
      9. B(H   6,C   5)                  2.9565         0.010000   
     10. B(H   6,C   0)                  1.0758         0.379399   
     11. B(H   7,C   5)                  2.8080         0.010000   
     12. B(H   7,C   0)                  1.0775         0.376958   
     13. B(H   8,C   1)                  1.0819         0.370941   
     14. B(H   9,C   2)                  1.0815         0.371514   
     15. B(H  10,C   3)                  1.0757         0.379548   
     16. B(H  11,C   4)                  2.9414         0.010000   
     17. B(H  11,C   3)                  1.0783         0.375859   
     18. B(H  12,C   5)                  1.0743         0.381527   
     19. B(H  12,H   6)                  2.7747         0.010000   
     20. B(H  12,C   0)                  2.5596         0.010000   
     21. B(H  12,H   7)                  2.3659         0.010000   
     22. B(H  13,H   8)                  3.0728         0.010000   
     23. B(H  13,C   1)                  2.9502         0.010000   
     24. B(H  13,C   5)                  1.0744         0.381390   
     25. B(H  13,C   0)                  2.7795         0.010000   
     26. B(H  13,H   6)                  2.7578         0.010000   
     27. B(H  14,C   4)                  1.0768         0.378039   
     28. B(H  14,H  10)                  2.7980         0.010000   
     29. B(H  14,C   3)                  2.5454         0.010000   
     30. B(H  14,H  11)                  2.3859         0.010000   
     31. B(Cl 15,C   4)                  1.7205         0.416303   
     32. A(C   1,C   0,H   6)          122.8605         0.370577   
     33. A(C   5,C   0,H   7)           85.9089         0.181066   
     34. A(C   1,C   0,C   5)           87.1577         0.214621   
     35. A(C   5,C   0,H   6)           94.4807         0.181201   
     36. A(H   6,C   0,H   7)          116.7261         0.295365   
     37. A(C   1,C   0,H   7)          120.3530         0.370166   
     38. A(C   0,C   1,C   5)           65.8543         0.190831   
     39. A(C   0,C   1,H   8)          121.2258         0.369144   
     40. A(C   2,C   1,H   8)          117.3108         0.342300   
     41. A(C   0,C   1,C   2)          120.3875         0.435880   
     42. A(C   2,C   1,C   5)           89.0294         0.181073   
     43. A(C   5,C   1,H   8)          105.7328         0.163359   
     44. A(C   3,C   2,C   4)           69.6935         0.187725   
     45. A(C   4,C   2,H   9)          104.0223         0.161081   
     46. A(C   3,C   2,H   9)          120.8954         0.369380   
     47. A(C   1,C   2,H   9)          117.0833         0.342389   
     48. A(C   1,C   2,C   3)          120.9616         0.436051   
     49. A(C   1,C   2,C   4)           86.9996         0.178221   
     50. A(C   4,C   3,H  11)           87.0030         0.172098   
     51. A(C   4,C   3,H  10)           96.5245         0.172282   
     52. A(C   2,C   3,C   4)           83.8344         0.202516   
     53. A(H  10,C   3,H  11)          116.7818         0.295247   
     54. A(C   2,C   3,H  11)          120.6963         0.370119   
     55. A(C   2,C   3,H  10)          122.4414         0.370741   
     56. A(C   3,C   4,Cl 15)           90.7862         0.193000   
     57. A(C   3,C   4,H  14)           65.6108         0.172207   
     58. A(C   3,C   4,C   5)          111.0303         0.203306   
     59. A(C   2,C   4,C   3)           26.4721         0.118183   
     60. A(C   2,C   4,H  14)           90.4538         0.161366   
     61. A(C   2,C   4,C   5)           89.9551         0.188412   
     62. A(H  14,C   4,Cl 15)          113.5185         0.346892   
     63. A(C   5,C   4,Cl 15)          122.2715         0.443278   
     64. A(C   5,C   4,H  14)          124.2058         0.372446   
     65. A(C   2,C   4,Cl 15)           88.9113         0.179450   
     66. A(H  12,C   5,H  13)          117.5252         0.296173   
     67. A(C   4,C   5,H  13)          120.6466         0.373013   
     68. A(C   4,C   5,H  12)          121.8259         0.373036   
     69. A(C   0,C   5,H  13)           84.3658         0.181310   
     70. A(C   0,C   5,H  12)           72.3794         0.181317   
     71. A(C   0,C   5,C   4)          112.3549         0.215557   
     72. A(C   0,C   5,C   1)           26.9880         0.122344   
     73. A(C   1,C   5,H  13)           80.8585         0.163828   
     74. A(C   1,C   5,H  12)           97.5198         0.163834   
     75. A(C   1,C   5,C   4)           90.9917         0.191590   
     76. D(C   2,C   1,C   0,C   5)    -73.4775         0.061779   
     77. D(H   8,C   1,C   0,H   7)    177.9210         0.061779   
     78. D(C   5,C   1,C   0,H   7)     83.5780         0.061779   
     79. D(C   5,C   1,C   0,H   6)    -93.5000         0.061779   
     80. D(H   8,C   1,C   0,C   5)     94.3430         0.061779   
     81. D(C   2,C   1,C   0,H   7)     10.1005         0.061779   
     82. D(C   2,C   1,C   0,H   6)   -166.9775         0.061779   
     83. D(H   8,C   1,C   0,H   6)      0.8430         0.061779   
     84. D(C   3,C   2,C   1,C   5)     72.6025         0.021248   
     85. D(H   9,C   2,C   1,C   5)    -95.7272         0.021248   
     86. D(H   9,C   2,C   1,H   8)    157.0274         0.021248   
     87. D(H   9,C   2,C   1,C   0)    -34.6876         0.021248   
     88. D(C   3,C   2,C   1,H   8)    -34.6428         0.021248   
     89. D(C   4,C   2,C   1,C   0)     69.5363         0.021248   
     90. D(C   3,C   2,C   1,C   0)    133.6421         0.021248   
     91. D(C   4,C   3,C   2,C   1)    -73.3162         0.055532   
     92. D(H  11,C   3,C   2,C   4)     82.8025         0.055532   
     93. D(H  11,C   3,C   2,H   9)    177.3711         0.055532   
     94. D(H  10,C   3,C   2,H   9)      0.7409         0.055532   
     95. D(H  10,C   3,C   2,C   4)    -93.8277         0.055532   
     96. D(H  11,C   3,C   2,C   1)      9.4863         0.055532   
     97. D(H  10,C   3,C   2,C   1)   -167.1439         0.055532   
     98. D(Cl 15,C   4,C   2,C   3)     93.9536         0.010000   
     99. D(H  14,C   4,C   2,H   9)   -137.7185         0.010000   
    100. D(C   5,C   4,C   2,H   9)     98.0749         0.010000   
    101. D(C   5,C   4,C   2,C   3)   -143.7673         0.010000   
    102. D(H  14,C   4,C   2,C   1)    105.0992         0.010000   
    103. D(C   5,C   4,C   2,C   1)    -19.1074         0.010000   
    104. D(Cl 15,C   4,C   2,C   1)   -141.3865         0.010000   
    105. D(C   5,C   4,C   3,C   2)     39.2900         0.010000   
    106. D(Cl 15,C   4,C   3,H  10)     36.0787         0.010000   
    107. D(Cl 15,C   4,C   3,C   2)    -85.9754         0.010000   
    108. D(H  14,C   4,C   3,H  11)     37.1124         0.010000   
    109. D(H  14,C   4,C   3,H  10)    -79.5136         0.010000   
    110. D(H  14,C   4,C   3,C   2)    158.4323         0.010000   
    111. D(C   5,C   4,C   3,H  11)    -82.0299         0.010000   
    112. D(C   5,C   4,C   3,H  10)    161.3441         0.010000   
    113. D(Cl 15,C   4,C   3,H  11)    152.7047         0.010000   
    114. D(H  14,C   4,C   2,C   3)    -19.5607         0.010000   
    115. D(H  12,C   5,C   4,Cl 15)     -1.4726         0.072971   
    116. D(H  12,C   5,C   4,H  14)    179.3251         0.072971   
    117. D(C   0,C   5,C   1,C   2)    124.1956         0.010000   
    118. D(H  13,C   5,C   1,C   2)   -140.2461         0.010000   
    119. D(H  13,C   5,C   1,C   0)     95.5583         0.010000   
    120. D(H  12,C   5,C   1,H   8)   -138.8855         0.010000   
    121. D(H  12,C   5,C   1,C   0)    -21.2434         0.010000   
    122. D(C   4,C   5,C   1,H   8)     98.8195         0.010000   
    123. D(C   4,C   5,C   1,C   2)    -19.3428         0.010000   
    124. D(C   4,C   5,C   1,C   0)   -143.5384         0.010000   
    125. D(C   1,C   5,C   0,H   7)   -120.7166         0.010000   
    126. D(C   1,C   5,C   0,H   6)    122.7543         0.010000   
    127. D(H  13,C   5,C   0,H   7)    158.3786         0.010000   
    128. D(H  13,C   5,C   0,H   6)     41.8495         0.010000   
    129. D(H  12,C   5,C   1,C   2)    102.9522         0.010000   
    130. D(H  13,C   5,C   0,C   1)    -80.9048         0.010000   
    131. D(H  12,C   5,C   0,H   7)     37.1417         0.010000   
    132. D(H  12,C   5,C   0,H   6)    -79.3873         0.010000   
    133. D(H  13,C   5,C   1,H   8)    -22.0838         0.010000   
    134. D(H  12,C   5,C   0,C   1)    157.8583         0.010000   
    135. D(C   4,C   5,C   0,H   7)    -80.7396         0.010000   
    136. D(C   4,C   5,C   0,H   6)    162.7313         0.010000   
    137. D(H  12,C   5,C   4,C   3)   -106.5528         0.072971   
    138. D(C   4,C   5,C   0,C   1)     39.9770         0.010000   
    139. D(C   0,C   5,C   4,Cl 15)     81.0587         0.072971   
    140. D(C   0,C   5,C   4,H  14)    -98.1436         0.072971   
    141. D(H  13,C   5,C   4,C   2)     89.2827         0.072971   
    142. D(H  13,C   5,C   4,C   3)     72.8865         0.072971   
    143. D(H  13,C   5,C   4,Cl 15)    177.9667         0.072971   
    144. D(H  13,C   5,C   4,H  14)     -1.2356         0.072971   
    145. D(C   0,C   5,C   4,C   3)    -24.0215         0.072971   
    146. D(H  12,C   5,C   4,C   2)    -90.1566         0.072971   
    -----------------------------------------------------------------

Number of atoms                         .... 16
Number of degrees of freedom            .... 146


         *************************************************************
         *                GEOMETRY OPTIMIZATION CYCLE   1            *
         *************************************************************
---------------------------------
CARTESIAN COORDINATES (ANGSTROEM)
---------------------------------
  C     0.084888    0.152823   -0.013611
  C     1.317154    0.068997   -0.502553
  C     2.197125    1.220496   -0.474268
  C     3.455229    1.108882   -0.064739
  C     2.294449    0.878777    2.465780
  C     1.192286    0.155045    2.417105
  H    -0.528541   -0.710727    0.174292
  H    -0.329004    1.109758    0.258555
  H     1.758843   -0.887361   -0.749239
  H     1.741484    2.191865   -0.610238
  H     4.067336    1.964679    0.158930
  H     3.893209    0.139151    0.110229
  H     0.218224    0.599853    2.503115
  H     1.241676   -0.909347    2.279669
  H     3.289051    0.472487    2.394224
  Cl    2.262570    2.590865    2.632902

----------------------------
CARTESIAN COORDINATES (A.U.)
----------------------------
  NO LB    ZA    FRAG    MASS        X           Y           Z
   0 C   6.0000    0    12.011    0.160415    0.288794   -0.025721
   1 C   6.0000    0    12.011    2.489060    0.130385   -0.949688
   2 C   6.0000    0    12.011    4.151965    2.306403   -0.896237
   3 C   6.0000    0    12.011    6.529437    2.095483   -0.122339
   4 C   6.0000    0    12.011    4.335880    1.660648    4.659649
   5 C   6.0000    0    12.011    2.253094    0.292993    4.567666
   6 H   1.0000    0     1.008   -0.998798   -1.343079    0.329364
   7 H   1.0000    0     1.008   -0.621727    2.097139    0.488598
   8 H   1.0000    0     1.008    3.323732   -1.676869   -1.415857
   9 H   1.0000    0     1.008    3.290928    4.142025   -1.153183
  10 H   1.0000    0     1.008    7.686151    3.712705    0.300334
  11 H   1.0000    0     1.008    7.357099    0.262957    0.208303
  12 H   1.0000    0     1.008    0.412384    1.133558    4.730202
  13 H   1.0000    0     1.008    2.346428   -1.718417    4.307950
  14 H   1.0000    0     1.008    6.215406    0.892871    4.524428
  15 Cl 17.0000    0    35.453    4.275638    4.896025    4.975464

      -----------------------------------------------------------      
     |                   =====================                   |     
     |                           x T B                           |     
     |                   =====================                   |     
     |                         S. Grimme                         |     
     |          Mulliken Center for Theoretical Chemistry        |     
     |                    University of Bonn                     |     
      -----------------------------------------------------------      

   * xtb version 6.7.1 (edcfbbe) compiled by 'albert@albert-system' on 2024-07-22

   xtb is free software: you can redistribute it and/or modify it under
   the terms of the GNU Lesser General Public License as published by
   the Free Software Foundation, either version 3 of the License, or
   (at your option) any later version.
   
   xtb is distributed in the hope that it will be useful,
   but WITHOUT ANY WARRANTY; without even the implied warranty of
   MERCHANTABILITY or FITNESS FOR A PARTICULAR PURPOSE.  See the
   GNU Lesser General Public License for more details.
   
   Cite this work as:
   * C. Bannwarth, E. Caldeweyher, S. Ehlert, A. Hansen, P. Pracht,
     J. Seibert, S. Spicher, S. Grimme, WIREs Comput. Mol. Sci., 2020, 11,
     e01493. DOI: 10.1002/wcms.1493
   
   for GFN2-xTB:
   * C. Bannwarth, S. Ehlert and S. Grimme., J. Chem. Theory Comput., 2019,
     15, 1652-1671. DOI: 10.1021/acs.jctc.8b01176
   for GFN1-xTB:
   * S. Grimme, C. Bannwarth, P. Shushkov, J. Chem. Theory Comput., 2017,
     13, 1989-2009. DOI: 10.1021/acs.jctc.7b00118
   for GFN0-xTB:
   * P. Pracht, E. Caldeweyher, S. Ehlert, S. Grimme, ChemRxiv, 2019, preprint.
     DOI: 10.26434/chemrxiv.8326202.v1
   for GFN-FF:
   * S. Spicher and S. Grimme, Angew. Chem. Int. Ed., 2020, 59, 15665-15673.
     DOI: 10.1002/anie.202004239
   
   for ALPB and GBSA implicit solvation:
   * S. Ehlert, M. Stahn, S. Spicher, S. Grimme, J. Chem. Theory Comput.,
     2021, 17, 4250-4261. DOI: 10.1021/acs.jctc.1c00471
   
   for ddCOSMO and CPCM-X implicit solvation:
   * M. Stahn, S. Ehlert, S. Grimme, J. Phys. Chem. A,
     2023, XX, XXXX-XXXX. DOI: 10.1021/acs.jpca.3c04382
   
   for DFT-D4:
   * E. Caldeweyher, C. Bannwarth and S. Grimme, J. Chem. Phys., 2017,
     147, 034112. DOI: 10.1063/1.4993215
   * E. Caldeweyher, S. Ehlert, A. Hansen, H. Neugebauer, S. Spicher,
     C. Bannwarth and S. Grimme, J. Chem. Phys., 2019, 150, 154122.
     DOI: 10.1063/1.5090222
   * E. Caldeweyher, J.-M. Mewes, S. Ehlert and S. Grimme, Phys. Chem. Chem. Phys.
     2020, 22, 8499-8512. DOI: 10.1039/D0CP00502A
   
   for sTDA-xTB:
   * S. Grimme and C. Bannwarth, J. Chem. Phys., 2016, 145, 054103.
     DOI: 10.1063/1.4959605
   
   in the mass-spec context:
   * V. Asgeirsson, C. Bauer and S. Grimme, Chem. Sci., 2017, 8, 4879.
     DOI: 10.1039/c7sc00601b
   * J. Koopman and S. Grimme, ACS Omega 2019, 4, 12, 15120-15133.
     DOI: 10.1021/acsomega.9b02011
   
   for metadynamics refer to:
   * S. Grimme, J. Chem. Theory Comput., 2019, 155, 2847-2862
     DOI: 10.1021/acs.jctc.9b00143
   
   for SPH calculations refer to:
   * S. Spicher and S. Grimme, J. Chem. Theory Comput., 2021, 17, 1701-1714
     DOI: 10.1021/acs.jctc.0c01306
   
   for ONIOM refer to:
   * C. Plett, A. Katbashev, S. Ehlert, S. Grimme, M. Bursch,
     Phys. Chem. Chem. Phys., 2023, 25, 17860-17868. DOI: 10.1039/D3CP02178E
   
   for DIPRO refer to:
   * J. Kohn, N. Gildemeister, S. Grimme, D. Fazzi, A. Hansen,
     J. Chem. Phys., 2023, just accepted.
   
   for PTB refer to:
   * S. Grimme, M. Mueller, A. Hansen, J. Chem. Phys., 2023, 158, 124111.
     DOI: 10.1063/5.0137838
   
   with help from (in alphabetical order)
   P. Atkinson, C. Bannwarth, F. Bohle, G. Brandenburg, E. Caldeweyher
   M. Checinski, S. Dohm, S. Ehlert, S. Ehrlich, I. Gerasimov, C. Hölzer
   A. Katbashev, J. Kohn, J. Koopman, C. Lavigne, S. Lehtola, F. März, M. Müller,
   F. Musil, H. Neugebauer, J. Pisarek, C. Plett, P. Pracht, F. Pultar,
   J. Seibert, P. Shushkov, S. Spicher, M. Stahn, M. Steiner, T. Strunk,
   J. Stückrath, T. Rose, and J. Unsleber
   
 * started run on 2026/03/15 at 21:59:40.816     
   ID    Z sym.   atoms
    1    6 C      1-6
    2    1 H      7-15
    3   17 Cl     16

           -------------------------------------------------
          |                Calculation Setup                |
           -------------------------------------------------

          program call               : /software/orca-6.1.0-el8-x86_64/bin/otool_xtb reactant_optfreq_XTB.xyz --grad -c 0 -u 0 -P 8 --namespace reactant_optfreq --input reactant_optfreq_XTB.input.tmp --acc 0.200000
          hostname                   : midway3-login3.rcc.local
          calculation namespace      : reactant_optfreq
          coordinate file            : reactant_optfreq_XTB.xyz
          omp threads                :                     8


molecular fragmentation (1/2 indicates fragments):
1111221111112222
# atoms in fragment 1/2:    10     6
 fragment masses (1/2) :       54.09       62.50
CMA distance (Bohr)    :   5.652
constraining FC (au)   :  0.0500

           -------------------------------------------------
          |                 G F N 2 - x T B                 |
           -------------------------------------------------

        Reference                      10.1021/acs.jctc.8b01176
      * Hamiltonian:
        H0-scaling (s, p, d)           1.850000    2.230000    2.230000
        zeta-weighting                 0.500000
      * Dispersion:
        s8                             2.700000
        a1                             0.520000
        a2                             5.000000
        s9                             5.000000
      * Repulsion:
        kExp                           1.500000    1.000000
        rExp                           1.000000
      * Coulomb:
        alpha                          2.000000
        third order                    shell-resolved
        anisotropic                    true
        a3                             3.000000
        a5                             4.000000
        cn-shift                       1.200000
        cn-exp                         4.000000
        max-rad                        5.000000


          ...................................................
          :                      SETUP                      :
          :.................................................:
          :  # basis functions                  43          :
          :  # atomic orbitals                  42          :
          :  # shells                           24          :
          :  # electrons                        40          :
          :  max. iterations                   250          :
          :  Hamiltonian                  GFN2-xTB          :
          :  restarted?                      false          :
          :  GBSA solvation                  false          :
          :  PC potential                    false          :
          :  electronic temp.          300.0000000     K    :
          :  accuracy                    0.2000000          :
          :  -> integral cutoff          0.3198970E+02      :
          :  -> integral neglect         0.2000000E-08      :
          :  -> SCF convergence          0.2000000E-06 Eh   :
          :  -> wf. convergence          0.2000000E-04 e    :
          :  Broyden damping             0.4000000          :
          :  net charge                          0          :
          :  unpaired electrons                  0          :
          ...................................................

 iter      E             dE          RMSdq      gap      omega  full diag
   1    -22.1710720 -0.221711E+02  0.508E+00    4.02       0.0  T
   2    -22.2090451 -0.379731E-01  0.309E+00    3.99       1.0  T
   3    -22.1936012  0.154439E-01  0.155E+00    3.92       1.0  T
   4    -22.2125795 -0.189783E-01  0.579E-01    3.95       1.0  T
   5    -22.2152190 -0.263950E-02  0.136E-01    3.96       1.0  T
   6    -22.2153179 -0.989022E-04  0.856E-02    3.96       1.0  T
   7    -22.2153646 -0.467011E-04  0.400E-02    3.96       1.0  T
   8    -22.2153702 -0.559393E-05  0.220E-02    3.96       1.1  T
   9    -22.2153727 -0.247295E-05  0.150E-02    3.96       1.7  T
  10    -22.2153742 -0.155167E-05  0.866E-03    3.96       2.9  T
  11    -22.2153748 -0.598165E-06  0.334E-03    3.96       7.5  T
  12    -22.2153749 -0.562743E-07  0.114E-03    3.96      21.9  T
  13    -22.2153749 -0.425983E-08  0.767E-04    3.96      32.6  T
  14    -22.2153749 -0.324731E-08  0.370E-04    3.96      67.5  T
  15    -22.2153749 -0.627502E-09  0.551E-05    3.96     453.6  T
  16    -22.2153749 -0.380851E-11  0.144E-05    3.96    1741.3  T

   *** convergence criteria satisfied after 16 iterations ***

         #    Occupation            Energy/Eh            Energy/eV
      -------------------------------------------------------------
         1        2.0000           -1.0520090             -28.6266
       ...           ...                  ...                  ...
        14        2.0000           -0.4596955             -12.5090
        15        2.0000           -0.4555270             -12.3955
        16        2.0000           -0.4390810             -11.9480
        17        2.0000           -0.4271140             -11.6224
        18        2.0000           -0.4150769             -11.2948
        19        2.0000           -0.4015770             -10.9275
        20        2.0000           -0.3884654             -10.5707 (HOMO)
        21                         -0.2429086              -6.6099 (LUMO)
        22                         -0.2219289              -6.0390
        23                         -0.1676490              -4.5620
        24                         -0.1334409              -3.6311
        25                          0.0192502               0.5238
       ...                                ...                  ...
        42                          0.6494639              17.6728
      -------------------------------------------------------------
                  HL-Gap            0.1455569 Eh            3.9608 eV
             Fermi-level           -0.3156870 Eh           -8.5903 eV

 SCC (total)                   0 d,  0 h,  0 min,  0.029 sec
 SCC setup                      ...        0 min,  0.000 sec (  0.674%)
 Dispersion                     ...        0 min,  0.000 sec (  0.334%)
 classical contributions        ...        0 min,  0.000 sec (  0.104%)
 integral evaluation            ...        0 min,  0.022 sec ( 76.081%)
 iterations                     ...        0 min,  0.005 sec ( 17.938%)
 molecular gradient             ...        0 min,  0.001 sec (  4.389%)
 printout                       ...        0 min,  0.000 sec (  0.431%)

         :::::::::::::::::::::::::::::::::::::::::::::::::::::
         ::                     SUMMARY                     ::
         :::::::::::::::::::::::::::::::::::::::::::::::::::::
         :: total energy             -21.867441899531 Eh    ::
         :: gradient norm              0.009582414922 Eh/a0 ::
         :: HOMO-LUMO gap              3.960804425756 eV    ::
         ::.................................................::
         :: SCC energy               -22.215322926516 Eh    ::
         :: -> isotropic ES            0.006024604581 Eh    ::
         :: -> anisotropic ES          0.003217946417 Eh    ::
         :: -> anisotropic XC          0.018126555483 Eh    ::
         :: -> dispersion             -0.012980221404 Eh    ::
         :: repulsion energy           0.347881026985 Eh    ::
         :: add. restraining           0.000000000000 Eh    ::
         :: total charge               0.000000000000 e     ::
         :::::::::::::::::::::::::::::::::::::::::::::::::::::


Property printout bound to 'properties.out'

           -------------------------------------------------
          | TOTAL ENERGY              -21.867441899531 Eh   |
          | GRADIENT NORM               0.009582414922 Eh/α |
          | HOMO-LUMO GAP               3.960804425756 eV   |
           -------------------------------------------------

------------------------------------------------------------------------
 * finished run on 2026/03/15 at 21:59:40.862     
------------------------------------------------------------------------
 total:
 * wall-time:     0 d,  0 h,  0 min,  0.046 sec
 *  cpu-time:     0 d,  0 h,  0 min,  0.276 sec
 * ratio c/w:     6.058 speedup
 SCF:
 * wall-time:     0 d,  0 h,  0 min,  0.029 sec
 *  cpu-time:     0 d,  0 h,  0 min,  0.210 sec
 * ratio c/w:     7.269 speedup


-------------------------   --------------------
FINAL SINGLE POINT ENERGY       -21.867441899530
-------------------------   --------------------


-------------
DIPOLE MOMENT
-------------
                                X             Y             Z
Total Dipole Moment    :     -0.06900      -0.66700      -0.16500
                        -----------------------------------------
Magnitude (a.u.)       :      0.69056
Magnitude (Debye)      :      1.75527


------------------
CARTESIAN GRADIENT
------------------

   1   C   :    0.001249491   -0.000037808    0.001921240
   2   C   :   -0.000008354   -0.000085937   -0.000381524
   3   C   :   -0.000143759    0.000080811   -0.000417851
   4   C   :   -0.000918991   -0.000090851    0.001710906
   5   C   :    0.000352279    0.000054554   -0.002333217
   6   C   :   -0.000500685   -0.000001964   -0.002577471
   7   H   :    0.001657549    0.000050708    0.004319734
   8   H   :    0.001527070    0.000256398    0.001757219
   9   H   :    0.000233356   -0.000144620   -0.000284530
  10   H   :   -0.000319276    0.000070354   -0.000137940
  11   H   :   -0.001430436   -0.000280650    0.003875929
  12   H   :   -0.001219025   -0.000293480    0.001551507
  13   H   :    0.000090851    0.000541477   -0.002036763
  14   H   :   -0.000535288    0.000272419   -0.002919067
  15   H   :   -0.000134842   -0.000311206   -0.002084100
  16   Cl  :    0.000100060   -0.000080204   -0.001964072

Difference to translation invariance:
           :    0.0000000000    0.0000000000   -0.0000000000

Difference to rotation invariance:
           :   -0.0000000406   -0.0000000154    0.0000000195

Norm of the Cartesian gradient     ...    0.0095824149
RMS gradient                       ...    0.0013831025
MAX gradient                       ...    0.0043197342
------------------------------------------------------------------------------
                         ORCA GEOMETRY RELAXATION STEP
------------------------------------------------------------------------------

Reading the OPT-File                    .... done
Getting information on internals        .... done
Copying old internal coords+grads       .... done
Making the new internal coordinates     .... (2022 redundants) done
Validating the new internal coordinates .... (2022 redundants) done
Calculating the B-matrix                .... done
Calculating the G,G- and P matrices     .... done
Transforming gradient to internals      .... done
Projecting the internal gradient        .... done
Number of atoms                         ....  16
Number of internal coordinates          .... 146
Current Energy                          ....   -21.867441900 Eh
Current gradient norm                   ....     0.009582415 Eh/bohr
Maximum allowed component of the step   ....  0.300
Current trust radius                    ....  0.300
Evaluating the initial hessian          ....  (Almloef) done
Projecting the Hessian                  .... done
Forming the augmented Hessian           .... done
Diagonalizing the augmented Hessian     .... done
Last element of RFO vector              ....  0.946077588
Lowest eigenvalues of augmented Hessian:
 -0.001782768  0.011755836  0.014602032  0.017885786  0.024608632
Length of the computed step             ....  0.342403327
Warning: the length of the step is outside the trust region - taking restricted step instead
The input lambda is                     ....     0.009473
   iter:   5  x=    0.003372  g=  272.107942 f(x)=     0.592884
   iter:  10  x=   -0.003627  g=   12.019212 f(x)=     0.000122
The output lambda is                    ....    -0.003627 (13 iterations)
The final length of the internal step   ....  0.300000000
Converting the step to Cartesian space:
 Initial RMS(Int)=    0.0248281767
Transforming coordinates:
 Iter   0:  RMS(Cart)=    0.0261084787 RMS(Int)=    0.0248763141
done
Storing new coordinates                 .... done

                                .--------------------.
          ----------------------|Geometry convergence|-------------------------
          Item                value                   Tolerance       Converged
          ---------------------------------------------------------------------
          RMS gradient        0.0006208386            0.0001000000      NO
          MAX gradient        0.0027375239            0.0003000000      NO
          RMS step            0.0248281767            0.0020000000      NO
          MAX step            0.1004321810            0.0040000000      NO
          -------------------------------------------------------------------------
          ........................................................
          Max(Bonds)      0.0531      Max(Angles)    1.01
          Max(Dihed)        1.36      Max(Improp)    0.00
          ---------------------------------------------------------------------

The optimization has not yet converged - more geometry cycles are needed


    ---------------------------------------------------------------------------
                         Redundant Internal Coordinates
                            (Angstroem and degrees)

        Definition                    Value    dE/dq     Step     New-Value
    ----------------------------------------------------------------------------
     1. B(C   1,C   0)                1.3284 -0.000468  0.0004    1.3288   
     2. B(C   2,C   1)                1.4495 -0.000493  0.0009    1.4504   
     3. B(C   3,C   2)                1.3278 -0.000412  0.0005    1.3282   
     4. B(C   4,C   3)                2.7935 -0.001937  0.0466    2.8402   
     5. B(C   4,C   2)                2.9614 -0.000580  0.0315    2.9929   
     6. B(C   5,C   1)                2.9236  0.000011  0.0240    2.9475   
     7. B(C   5,C   0)                2.6711 -0.000853  0.0344    2.7055   
     8. B(C   5,C   4)                1.3194 -0.002738  0.0016    1.3211   
     9. B(H   6,C   5)                2.9565 -0.001331  0.0400    2.9966   
    10. B(H   6,C   0)                1.0758  0.001037 -0.0011    1.0747   
    11. B(H   7,C   5)                2.8080 -0.001139  0.0362    2.8443   
    12. B(H   7,C   0)                1.0775  0.000491 -0.0006    1.0770   
    13. B(H   8,C   1)                1.0819  0.000273 -0.0006    1.0813   
    14. B(H   9,C   2)                1.0815  0.000215 -0.0003    1.0812   
    15. B(H  10,C   3)                1.0757  0.000671 -0.0005    1.0752   
    16. B(H  11,C   4)                2.9414 -0.001616  0.0435    2.9849   
    17. B(H  11,C   3)                1.0783  0.000592 -0.0006    1.0777   
    18. B(H  12,C   5)                1.0743 -0.000180  0.0002    1.0745   
    19. B(H  12,H   6)                2.7747 -0.001098  0.0374    2.8121   
    20. B(H  12,C   0)                2.5596 -0.000702  0.0327    2.5923   
    21. B(H  12,H   7)                2.3659 -0.001129  0.0392    2.4052   
    22. B(H  13,H   8)                3.0728  0.000052  0.0183    3.0911   
    23. B(H  13,C   1)                2.9502 -0.000126  0.0216    2.9718   
    24. B(H  13,C   5)                1.0744  0.000327 -0.0005    1.0738   
    25. B(H  13,C   0)                2.7795 -0.000719  0.0317    2.8111   
    26. B(H  13,H   6)                2.7578 -0.001524  0.0417    2.7996   
    27. B(H  14,C   4)                1.0768 -0.000410  0.0006    1.0774   
    28. B(H  14,H  10)                2.7980 -0.002167  0.0531    2.8512   
    29. B(H  14,C   3)                2.5454 -0.000742  0.0416    2.5870   
    30. B(H  14,H  11)                2.3859 -0.000809  0.0448    2.4307   
    31. B(Cl 15,C   4)                1.7205 -0.000272  0.0003    1.7209   
    32. A(C   1,C   0,H   6)          122.86  0.000100   -0.12    122.74   
    33. A(C   5,C   0,H   7)           85.91 -0.000262    0.26     86.17   
    34. A(C   1,C   0,C   5)           87.16  0.000420   -0.32     86.83   
    35. A(C   5,C   0,H   6)           94.48 -0.000539    0.50     94.98   
    36. A(H   6,C   0,H   7)          116.73  0.000210   -0.08    116.64   
    37. A(C   1,C   0,H   7)          120.35 -0.000326    0.22    120.57   
    38. A(C   0,C   1,C   5)           65.85 -0.000335    0.56     66.42   
    39. A(C   0,C   1,H   8)          121.23  0.000214   -0.14    121.08   
    40. A(C   2,C   1,H   8)          117.31  0.000381   -0.09    117.22   
    41. A(C   0,C   1,C   2)          120.39 -0.000690    0.34    120.73   
    42. A(C   2,C   1,C   5)           89.03 -0.000408    0.24     89.27   
    43. A(C   5,C   1,H   8)          105.73  0.000113   -0.24    105.49   
    44. A(C   3,C   2,C   4)           69.69 -0.000551    0.80     70.49   
    45. A(C   4,C   2,H   9)          104.02 -0.000143    0.06    104.08   
    46. A(C   3,C   2,H   9)          120.90  0.000142   -0.05    120.85   
    47. A(C   1,C   2,H   9)          117.08  0.000230    0.02    117.10   
    48. A(C   1,C   2,C   3)          120.96 -0.000500    0.18    121.14   
    49. A(C   1,C   2,C   4)           87.00 -0.000030   -0.15     86.85   
    50. A(C   4,C   3,H  11)           87.00 -0.000001    0.02     87.02   
    51. A(C   4,C   3,H  10)           96.52 -0.001230    1.01     97.53   
    52. A(C   2,C   3,C   4)           83.83  0.000551   -0.48     83.35   
    53. A(H  10,C   3,H  11)          116.78  0.000411   -0.11    116.67   
    54. A(C   2,C   3,H  11)          120.70 -0.000160    0.13    120.83   
    55. A(C   2,C   3,H  10)          122.44 -0.000287    0.01    122.45   
    56. A(C   3,C   4,Cl 15)           90.79 -0.001116    0.64     91.43   
    57. A(C   3,C   4,H  14)           65.61  0.000508   -0.08     65.53   
    58. A(C   3,C   4,C   5)          111.03  0.000189   -0.41    110.62   
    59. A(C   2,C   4,C   3)           26.47 -0.000001   -0.32     26.15   
    60. A(C   2,C   4,H  14)           90.45  0.000448   -0.31     90.14   
    61. A(C   2,C   4,C   5)           89.96  0.000189   -0.10     89.86   
    62. A(H  14,C   4,Cl 15)          113.52  0.000181   -0.14    113.38   
    63. A(C   5,C   4,Cl 15)          122.27  0.000187   -0.03    122.24   
    64. A(C   5,C   4,H  14)          124.21 -0.000375    0.18    124.38   
    65. A(C   2,C   4,Cl 15)           88.91 -0.001134    0.60     89.51   
    66. A(H  12,C   5,H  13)          117.53  0.000439   -0.17    117.35   
    67. A(C   4,C   5,H  13)          120.65 -0.000093    0.01    120.66   
    68. A(C   4,C   5,H  12)          121.83 -0.000346    0.16    121.99   
    69. A(C   0,C   5,H  13)           84.37 -0.000014    0.00     84.37   
    70. A(C   0,C   5,H  12)           72.38  0.000049    0.06     72.44   
    71. A(C   0,C   5,C   4)          112.35  0.000062   -0.12    112.24   
    72. A(C   0,C   5,C   1)           26.99 -0.000085   -0.24     26.75   
    73. A(C   1,C   5,H  13)           80.86 -0.000103   -0.03     80.83   
    74. A(C   1,C   5,H  12)           97.52 -0.000073   -0.11     97.41   
    75. A(C   1,C   5,C   4)           90.99  0.000160    0.11     91.11   
    76. D(C   2,C   1,C   0,C   5)    -73.48  0.000347   -0.52    -74.00   
    77. D(H   8,C   1,C   0,H   7)    177.92 -0.000157    0.17    178.09   
    78. D(C   5,C   1,C   0,H   7)     83.58 -0.000017    0.08     83.66   
    79. D(C   5,C   1,C   0,H   6)    -93.50  0.000372   -0.39    -93.89   
    80. D(H   8,C   1,C   0,C   5)     94.34 -0.000139    0.08     94.42   
    81. D(C   2,C   1,C   0,H   7)     10.10  0.000330   -0.44      9.66   
    82. D(C   2,C   1,C   0,H   6)   -166.98  0.000719   -0.91   -167.88   
    83. D(H   8,C   1,C   0,H   6)      0.84  0.000233   -0.30      0.54   
    84. D(C   3,C   2,C   1,C   5)     72.60 -0.000509    0.63     73.23   
    85. D(H   9,C   2,C   1,C   5)    -95.73  0.000167   -0.17    -95.89   
    86. D(H   9,C   2,C   1,H   8)    157.03  0.000203   -0.01    157.02   
    87. D(H   9,C   2,C   1,C   0)    -34.69 -0.000278    0.56    -34.13   
    88. D(C   3,C   2,C   1,H   8)    -34.64 -0.000473    0.79    -33.86   
    89. D(C   4,C   2,C   1,C   0)     69.54 -0.000438    0.55     70.09   
    90. D(C   3,C   2,C   1,C   0)    133.64 -0.000954    1.36    135.00   
    91. D(C   4,C   3,C   2,C   1)    -73.32  0.000162   -0.29    -73.60   
    92. D(H  11,C   3,C   2,C   4)     82.80  0.000366   -0.29     82.51   
    93. D(H  11,C   3,C   2,H   9)    177.37 -0.000168    0.25    177.62   
    94. D(H  10,C   3,C   2,H   9)      0.74  0.000560   -0.35      0.39   
    95. D(H  10,C   3,C   2,C   4)    -93.83  0.001094   -0.89    -94.72   
    96. D(H  11,C   3,C   2,C   1)      9.49  0.000528   -0.58      8.90   
    97. D(H  10,C   3,C   2,C   1)   -167.14  0.001255   -1.18   -168.33   
    98. D(Cl 15,C   4,C   2,C   3)     93.95 -0.000226    0.29     94.24   
    99. D(H  14,C   4,C   2,H   9)   -137.72 -0.000545    0.42   -137.30   
   100. D(C   5,C   4,C   2,H   9)     98.07 -0.000175    0.25     98.32   
   101. D(C   5,C   4,C   2,C   3)   -143.77 -0.000028    0.24   -143.52   
   102. D(H  14,C   4,C   2,C   1)    105.10 -0.000766    0.44    105.54   
   103. D(C   5,C   4,C   2,C   1)    -19.11 -0.000395    0.26    -18.84   
   104. D(Cl 15,C   4,C   2,C   1)   -141.39 -0.000593    0.30   -141.08   
   105. D(C   5,C   4,C   3,C   2)     39.29  0.000028    0.14     39.43   
   106. D(Cl 15,C   4,C   3,H  10)     36.08  0.000119   -0.09     35.99   
   107. D(Cl 15,C   4,C   3,C   2)    -85.98  0.000302   -0.01    -85.98   
   108. D(H  14,C   4,C   3,H  11)     37.11 -0.000120    0.26     37.37   
   109. D(H  14,C   4,C   3,H  10)    -79.51 -0.000535    0.37    -79.15   
   110. D(H  14,C   4,C   3,C   2)    158.43 -0.000352    0.45    158.88   
   111. D(C   5,C   4,C   3,H  11)    -82.03  0.000260   -0.05    -82.08   
   112. D(C   5,C   4,C   3,H  10)    161.34 -0.000155    0.06    161.40   
   113. D(Cl 15,C   4,C   3,H  11)    152.70  0.000534   -0.20    152.50   
   114. D(H  14,C   4,C   2,C   3)    -19.56 -0.000399    0.42    -19.14   
   115. D(H  12,C   5,C   4,Cl 15)     -1.47 -0.001039    0.48     -0.99   
   116. D(H  12,C   5,C   4,H  14)    179.33 -0.000483    0.28    179.60   
   117. D(C   0,C   5,C   1,C   2)    124.20 -0.000454    0.07    124.27   
   118. D(H  13,C   5,C   1,C   2)   -140.25 -0.000251    0.23   -140.02   
   119. D(H  13,C   5,C   1,C   0)     95.56  0.000203    0.16     95.71   
   120. D(H  12,C   5,C   1,H   8)   -138.89 -0.000411    0.34   -138.54   
   121. D(H  12,C   5,C   1,C   0)    -21.24 -0.000244    0.32    -20.92   
   122. D(C   4,C   5,C   1,H   8)     98.82 -0.000079    0.17     98.99   
   123. D(C   4,C   5,C   1,C   2)    -19.34 -0.000366    0.22    -19.12   
   124. D(C   4,C   5,C   1,C   0)   -143.54  0.000088    0.15   -143.39   
   125. D(C   1,C   5,C   0,H   7)   -120.72  0.000349   -0.23   -120.95   
   126. D(C   1,C   5,C   0,H   6)    122.75  0.000130   -0.14    122.61   
   127. D(H  13,C   5,C   0,H   7)    158.38  0.000567   -0.10    158.27   
   128. D(H  13,C   5,C   0,H   6)     41.85  0.000348   -0.01     41.83   
   129. D(H  12,C   5,C   1,C   2)    102.95 -0.000697    0.39    103.35   
   130. D(H  13,C   5,C   0,C   1)    -80.90  0.000218    0.13    -80.77   
   131. D(H  12,C   5,C   0,H   7)     37.14  0.000096    0.10     37.25   
   132. D(H  12,C   5,C   0,H   6)    -79.39 -0.000122    0.19    -79.19   
   133. D(H  13,C   5,C   1,H   8)    -22.08  0.000036    0.18    -21.91   
   134. D(H  12,C   5,C   0,C   1)    157.86 -0.000253    0.34    158.20   
   135. D(C   4,C   5,C   0,H   7)    -80.74  0.000468   -0.11    -80.85   
   136. D(C   4,C   5,C   0,H   6)    162.73  0.000249   -0.02    162.71   
   137. D(H  12,C   5,C   4,C   3)   -106.55  0.000175   -0.03   -106.58   
   138. D(C   4,C   5,C   0,C   1)     39.98  0.000119    0.13     40.10   
   139. D(C   0,C   5,C   4,Cl 15)     81.06 -0.001059    0.55     81.61   
   140. D(C   0,C   5,C   4,H  14)    -98.14 -0.000503    0.34    -97.80   
   141. D(H  13,C   5,C   4,C   2)     89.28  0.000142   -0.17     89.11   
   142. D(H  13,C   5,C   4,C   3)     72.89  0.000132   -0.03     72.85   
   143. D(H  13,C   5,C   4,Cl 15)    177.97 -0.001083    0.48    178.45   
   144. D(H  13,C   5,C   4,H  14)     -1.24 -0.000527    0.27     -0.96   
   145. D(C   0,C   5,C   4,C   3)    -24.02  0.000155    0.04    -23.99   
   146. D(H  12,C   5,C   4,C   2)    -90.16  0.000185   -0.16    -90.32   
    ----------------------------------------------------------------------------

Geometry step timings:
Preparation and reading OPT file:      0.000 s ( 0.558 %)
Internal coordinates            :      0.000 s ( 0.924 %)
B/P matrices and projection     :      0.001 s (17.180 %)
Hessian update/contruction      :      0.002 s (23.856 %)
Making the step                 :      0.002 s (34.918 %)
Converting the step to Cartesian:      0.000 s ( 2.274 %)
Storing new data                :      0.000 s ( 1.687 %)
Checking convergence            :      0.000 s ( 1.071 %)
Final printing                  :      0.001 s (17.488 %)
Total time                      :      0.007 s

Time for energy+gradient        :      0.055 s
Time for complete geometry iter :      0.063 s

         *************************************************************
         *                GEOMETRY OPTIMIZATION CYCLE   2            *
         *************************************************************
---------------------------------
CARTESIAN COORDINATES (ANGSTROEM)
---------------------------------
  C     0.079441    0.153675   -0.027168
  C     1.316871    0.069777   -0.503942
  C     2.199793    1.220204   -0.480101
  C     3.463103    1.108434   -0.085482
  C     2.292237    0.880140    2.491977
  C     1.190353    0.153231    2.439706
  H    -0.535957   -0.709904    0.147518
  H    -0.340700    1.108312    0.241120
  H     1.757812   -0.887155   -0.747080
  H     1.746592    2.191850   -0.619784
  H     4.082268    1.963976    0.116319
  H     3.903214    0.140553    0.090375
  H     0.213720    0.593149    2.524090
  H     1.242107   -0.910313    2.300629
  H     3.289568    0.479372    2.417840
  Cl    2.255557    2.590942    2.674137

----------------------------
CARTESIAN COORDINATES (A.U.)
----------------------------
  NO LB    ZA    FRAG    MASS        X           Y           Z
   0 C   6.0000    0    12.011    0.150122    0.290404   -0.051341
   1 C   6.0000    0    12.011    2.488525    0.131860   -0.952313
   2 C   6.0000    0    12.011    4.157006    2.305851   -0.907260
   3 C   6.0000    0    12.011    6.544315    2.094637   -0.161537
   4 C   6.0000    0    12.011    4.331700    1.663223    4.709154
   5 C   6.0000    0    12.011    2.249442    0.289565    4.610376
   6 H   1.0000    0     1.008   -1.012812   -1.341524    0.278769
   7 H   1.0000    0     1.008   -0.643829    2.094407    0.455650
   8 H   1.0000    0     1.008    3.321784   -1.676481   -1.411777
   9 H   1.0000    0     1.008    3.300580    4.141995   -1.171223
  10 H   1.0000    0     1.008    7.714369    3.711376    0.219811
  11 H   1.0000    0     1.008    7.376005    0.265606    0.170785
  12 H   1.0000    0     1.008    0.403873    1.120890    4.769838
  13 H   1.0000    0     1.008    2.347242   -1.720242    4.347558
  14 H   1.0000    0     1.008    6.216382    0.905881    4.569055
  15 Cl 17.0000    0    35.453    4.262386    4.896172    5.053387

      -----------------------------------------------------------      
     |                   =====================                   |     
     |                           x T B                           |     
     |                   =====================                   |     
     |                         S. Grimme                         |     
     |          Mulliken Center for Theoretical Chemistry        |     
     |                    University of Bonn                     |     
      -----------------------------------------------------------      

   * xtb version 6.7.1 (edcfbbe) compiled by 'albert@albert-system' on 2024-07-22

   xtb is free software: you can redistribute it and/or modify it under
   the terms of the GNU Lesser General Public License as published by
   the Free Software Foundation, either version 3 of the License, or
   (at your option) any later version.
   
   xtb is distributed in the hope that it will be useful,
   but WITHOUT ANY WARRANTY; without even the implied warranty of
   MERCHANTABILITY or FITNESS FOR A PARTICULAR PURPOSE.  See the
   GNU Lesser General Public License for more details.
   
   Cite this work as:
   * C. Bannwarth, E. Caldeweyher, S. Ehlert, A. Hansen, P. Pracht,
     J. Seibert, S. Spicher, S. Grimme, WIREs Comput. Mol. Sci., 2020, 11,
     e01493. DOI: 10.1002/wcms.1493
   
   for GFN2-xTB:
   * C. Bannwarth, S. Ehlert and S. Grimme., J. Chem. Theory Comput., 2019,
     15, 1652-1671. DOI: 10.1021/acs.jctc.8b01176
   for GFN1-xTB:
   * S. Grimme, C. Bannwarth, P. Shushkov, J. Chem. Theory Comput., 2017,
     13, 1989-2009. DOI: 10.1021/acs.jctc.7b00118
   for GFN0-xTB:
   * P. Pracht, E. Caldeweyher, S. Ehlert, S. Grimme, ChemRxiv, 2019, preprint.
     DOI: 10.26434/chemrxiv.8326202.v1
   for GFN-FF:
   * S. Spicher and S. Grimme, Angew. Chem. Int. Ed., 2020, 59, 15665-15673.
     DOI: 10.1002/anie.202004239
   
   for ALPB and GBSA implicit solvation:
   * S. Ehlert, M. Stahn, S. Spicher, S. Grimme, J. Chem. Theory Comput.,
     2021, 17, 4250-4261. DOI: 10.1021/acs.jctc.1c00471
   
   for ddCOSMO and CPCM-X implicit solvation:
   * M. Stahn, S. Ehlert, S. Grimme, J. Phys. Chem. A,
     2023, XX, XXXX-XXXX. DOI: 10.1021/acs.jpca.3c04382
   
   for DFT-D4:
   * E. Caldeweyher, C. Bannwarth and S. Grimme, J. Chem. Phys., 2017,
     147, 034112. DOI: 10.1063/1.4993215
   * E. Caldeweyher, S. Ehlert, A. Hansen, H. Neugebauer, S. Spicher,
     C. Bannwarth and S. Grimme, J. Chem. Phys., 2019, 150, 154122.
     DOI: 10.1063/1.5090222
   * E. Caldeweyher, J.-M. Mewes, S. Ehlert and S. Grimme, Phys. Chem. Chem. Phys.
     2020, 22, 8499-8512. DOI: 10.1039/D0CP00502A
   
   for sTDA-xTB:
   * S. Grimme and C. Bannwarth, J. Chem. Phys., 2016, 145, 054103.
     DOI: 10.1063/1.4959605
   
   in the mass-spec context:
   * V. Asgeirsson, C. Bauer and S. Grimme, Chem. Sci., 2017, 8, 4879.
     DOI: 10.1039/c7sc00601b
   * J. Koopman and S. Grimme, ACS Omega 2019, 4, 12, 15120-15133.
     DOI: 10.1021/acsomega.9b02011
   
   for metadynamics refer to:
   * S. Grimme, J. Chem. Theory Comput., 2019, 155, 2847-2862
     DOI: 10.1021/acs.jctc.9b00143
   
   for SPH calculations refer to:
   * S. Spicher and S. Grimme, J. Chem. Theory Comput., 2021, 17, 1701-1714
     DOI: 10.1021/acs.jctc.0c01306
   
   for ONIOM refer to:
   * C. Plett, A. Katbashev, S. Ehlert, S. Grimme, M. Bursch,
     Phys. Chem. Chem. Phys., 2023, 25, 17860-17868. DOI: 10.1039/D3CP02178E
   
   for DIPRO refer to:
   * J. Kohn, N. Gildemeister, S. Grimme, D. Fazzi, A. Hansen,
     J. Chem. Phys., 2023, just accepted.
   
   for PTB refer to:
   * S. Grimme, M. Mueller, A. Hansen, J. Chem. Phys., 2023, 158, 124111.
     DOI: 10.1063/5.0137838
   
   with help from (in alphabetical order)
   P. Atkinson, C. Bannwarth, F. Bohle, G. Brandenburg, E. Caldeweyher
   M. Checinski, S. Dohm, S. Ehlert, S. Ehrlich, I. Gerasimov, C. Hölzer
   A. Katbashev, J. Kohn, J. Koopman, C. Lavigne, S. Lehtola, F. März, M. Müller,
   F. Musil, H. Neugebauer, J. Pisarek, C. Plett, P. Pracht, F. Pultar,
   J. Seibert, P. Shushkov, S. Spicher, M. Stahn, M. Steiner, T. Strunk,
   J. Stückrath, T. Rose, and J. Unsleber
   
 * started run on 2026/03/15 at 21:59:40.880     
   ID    Z sym.   atoms
    1    6 C      1-6
    2    1 H      7-15
    3   17 Cl     16

           -------------------------------------------------
          |                Calculation Setup                |
           -------------------------------------------------

          program call               : /software/orca-6.1.0-el8-x86_64/bin/otool_xtb reactant_optfreq_XTB.xyz --grad -c 0 -u 0 -P 8 --namespace reactant_optfreq --input reactant_optfreq_XTB.input.tmp --acc 0.200000
          hostname                   : midway3-login3.rcc.local
          calculation namespace      : reactant_optfreq
          coordinate file            : reactant_optfreq_XTB.xyz
          omp threads                :                     8


molecular fragmentation (1/2 indicates fragments):
1111221111112222
# atoms in fragment 1/2:    10     6
 fragment masses (1/2) :       54.09       62.50
CMA distance (Bohr)    :   5.731
constraining FC (au)   :  0.0500

           -------------------------------------------------
          |                 G F N 2 - x T B                 |
           -------------------------------------------------

        Reference                      10.1021/acs.jctc.8b01176
      * Hamiltonian:
        H0-scaling (s, p, d)           1.850000    2.230000    2.230000
        zeta-weighting                 0.500000
      * Dispersion:
        s8                             2.700000
        a1                             0.520000
        a2                             5.000000
        s9                             5.000000
      * Repulsion:
        kExp                           1.500000    1.000000
        rExp                           1.000000
      * Coulomb:
        alpha                          2.000000
        third order                    shell-resolved
        anisotropic                    true
        a3                             3.000000
        a5                             4.000000
        cn-shift                       1.200000
        cn-exp                         4.000000
        max-rad                        5.000000

q/qsh data taken from xtbrestart
CAMM data taken from xtbrestart

          ...................................................
          :                      SETUP                      :
          :.................................................:
          :  # basis functions                  43          :
          :  # atomic orbitals                  42          :
          :  # shells                           24          :
          :  # electrons                        40          :
          :  max. iterations                   250          :
          :  Hamiltonian                  GFN2-xTB          :
          :  restarted?                       true          :
          :  GBSA solvation                  false          :
          :  PC potential                    false          :
          :  electronic temp.          300.0000000     K    :
          :  accuracy                    0.2000000          :
          :  -> integral cutoff          0.3198970E+02      :
          :  -> integral neglect         0.2000000E-08      :
          :  -> SCF convergence          0.2000000E-06 Eh   :
          :  -> wf. convergence          0.2000000E-04 e    :
          :  Broyden damping             0.4000000          :
          :  net charge                          0          :
          :  unpaired electrons                  0          :
          ...................................................

 iter      E             dE          RMSdq      gap      omega  full diag
   1    -22.2163604 -0.222164E+02  0.863E-02    3.95       0.0  T
   2    -22.2163613 -0.908911E-06  0.510E-02    3.95       1.0  T
   3    -22.2163591  0.229149E-05  0.141E-02    3.95       1.8  T
   4    -22.2163617 -0.263872E-05  0.301E-03    3.95       8.3  T
   5    -22.2163617 -0.450579E-07  0.200E-03    3.95      12.5  T
   6    -22.2163617 -0.103430E-07  0.165E-03    3.95      15.2  T
   7    -22.2163618 -0.142779E-07  0.117E-03    3.95      21.4  T
   8    -22.2163618 -0.114785E-07  0.461E-04    3.95      54.2  T
   9    -22.2163618 -0.135281E-08  0.123E-04    3.95     203.4  T
  10    -22.2163618 -0.402167E-11  0.832E-05    3.95     300.6  T

   *** convergence criteria satisfied after 10 iterations ***

         #    Occupation            Energy/Eh            Energy/eV
      -------------------------------------------------------------
         1        2.0000           -1.0521621             -28.6308
       ...           ...                  ...                  ...
        14        2.0000           -0.4598830             -12.5141
        15        2.0000           -0.4554875             -12.3944
        16        2.0000           -0.4392950             -11.9538
        17        2.0000           -0.4270960             -11.6219
        18        2.0000           -0.4153681             -11.3027
        19        2.0000           -0.4017370             -10.9318
        20        2.0000           -0.3887488             -10.5784 (HOMO)
        21                         -0.2434877              -6.6256 (LUMO)
        22                         -0.2230386              -6.0692
        23                         -0.1665854              -4.5330
        24                         -0.1336248              -3.6361
        25                          0.0190944               0.5196
       ...                                ...                  ...
        42                          0.6494792              17.6732
      -------------------------------------------------------------
                  HL-Gap            0.1452611 Eh            3.9528 eV
             Fermi-level           -0.3161182 Eh           -8.6020 eV

 SCC (total)                   0 d,  0 h,  0 min,  0.030 sec
 SCC setup                      ...        0 min,  0.000 sec (  0.614%)
 Dispersion                     ...        0 min,  0.000 sec (  0.289%)
 classical contributions        ...        0 min,  0.000 sec (  0.106%)
 integral evaluation            ...        0 min,  0.025 sec ( 82.412%)
 iterations                     ...        0 min,  0.004 sec ( 11.583%)
 molecular gradient             ...        0 min,  0.001 sec (  4.565%)
 printout                       ...        0 min,  0.000 sec (  0.388%)

         :::::::::::::::::::::::::::::::::::::::::::::::::::::
         ::                     SUMMARY                     ::
         :::::::::::::::::::::::::::::::::::::::::::::::::::::
         :: total energy             -21.868906333175 Eh    ::
         :: gradient norm              0.009499060623 Eh/a0 ::
         :: HOMO-LUMO gap              3.952756204935 eV    ::
         ::.................................................::
         :: SCC energy               -22.216307617676 Eh    ::
         :: -> isotropic ES            0.006019517563 Eh    ::
         :: -> anisotropic ES          0.003223230571 Eh    ::
         :: -> anisotropic XC          0.018136886468 Eh    ::
         :: -> dispersion             -0.012873788297 Eh    ::
         :: repulsion energy           0.347401284501 Eh    ::
         :: add. restraining           0.000000000000 Eh    ::
         :: total charge              -0.000000000000 e     ::
         :::::::::::::::::::::::::::::::::::::::::::::::::::::


Property printout bound to 'properties.out'

           -------------------------------------------------
          | TOTAL ENERGY              -21.868906333175 Eh   |
          | GRADIENT NORM               0.009499060623 Eh/α |
          | HOMO-LUMO GAP               3.952756204935 eV   |
           -------------------------------------------------

------------------------------------------------------------------------
 * finished run on 2026/03/15 at 21:59:40.934     
------------------------------------------------------------------------
 total:
 * wall-time:     0 d,  0 h,  0 min,  0.054 sec
 *  cpu-time:     0 d,  0 h,  0 min,  0.191 sec
 * ratio c/w:     3.551 speedup
 SCF:
 * wall-time:     0 d,  0 h,  0 min,  0.031 sec
 *  cpu-time:     0 d,  0 h,  0 min,  0.129 sec
 * ratio c/w:     4.205 speedup


-------------------------   --------------------
FINAL SINGLE POINT ENERGY       -21.868906333170
-------------------------   --------------------


-------------
DIPOLE MOMENT
-------------
                                X             Y             Z
Total Dipole Moment    :     -0.06600      -0.66100      -0.16500
                        -----------------------------------------
Magnitude (a.u.)       :      0.68447
Magnitude (Debye)      :      1.73979


------------------
CARTESIAN GRADIENT
------------------

   1   C   :    0.000162720   -0.000212617    0.002483293
   2   C   :    0.000646267   -0.000795889   -0.001183469
   3   C   :   -0.000794567    0.000626320   -0.000898705
   4   C   :    0.000007971   -0.000318688    0.002073498
   5   C   :    0.002188334    0.000829331   -0.002083003
   6   C   :   -0.002418196   -0.001323410   -0.002281484
   7   H   :    0.001862173    0.000693814    0.003777452
   8   H   :    0.001280728   -0.000180588    0.001409162
   9   H   :   -0.000010300    0.000179649   -0.000218891
  10   H   :   -0.000133473   -0.000047308   -0.000217821
  11   H   :   -0.001279874   -0.000606547    0.003275526
  12   H   :   -0.001081997    0.000163288    0.001222648
  13   H   :   -0.000131071    0.000249163   -0.001876240
  14   H   :   -0.000666656    0.000610283   -0.002392047
  15   H   :    0.000345861   -0.000159891   -0.001762181
  16   Cl  :    0.000022078    0.000293090   -0.001327738

Difference to translation invariance:
           :   -0.0000000000    0.0000000000   -0.0000000000

Difference to rotation invariance:
           :   -0.0000002342    0.0000000190   -0.0000000594

Norm of the Cartesian gradient     ...    0.0094990606
RMS gradient                       ...    0.0013710713
MAX gradient                       ...    0.0037774524
------------------------------------------------------------------------------
                         ORCA GEOMETRY RELAXATION STEP
------------------------------------------------------------------------------

Reading the OPT-File                    .... done
Getting information on internals        .... done
Copying old internal coords+grads       .... done
Making the new internal coordinates     .... (2022 redundants) done
Validating the new internal coordinates .... (2022 redundants) done
Calculating the B-matrix                .... done
Calculating the G,G- and P matrices     .... done
Transforming gradient to internals      .... done
Projecting the internal gradient        .... done
Number of atoms                         ....  16
Number of internal coordinates          .... 146
Current Energy                          ....   -21.868906333 Eh
Current gradient norm                   ....     0.009499061 Eh/bohr
Maximum allowed component of the step   ....  0.300
Current trust radius                    ....  0.300
Updating the Hessian (BFGS)             .... done
Forming the augmented Hessian           .... done
Diagonalizing the augmented Hessian     .... done
Last element of RFO vector              ....  0.802672571
Lowest eigenvalues of augmented Hessian:
 -0.003451864  0.005668717  0.014519186  0.017917947  0.023677802
Length of the computed step             ....  0.743042630
Warning: the length of the step is outside the trust region - taking restricted step instead
The input lambda is                     ....     0.001457
   iter:   5  x=   -0.004655  g=  321.316771 f(x)=     0.704712
   iter:  10  x=   -0.012380  g=   11.882193 f(x)=     0.000261
The output lambda is                    ....    -0.012380 (13 iterations)
The final length of the internal step   ....  0.300000000
Converting the step to Cartesian space:
 Initial RMS(Int)=    0.0248281767
Transforming coordinates:
 Iter   0:  RMS(Cart)=    0.0279550563 RMS(Int)=    0.5199337525
done
Storing new coordinates                 .... done
The predicted energy change is          ....    -0.001292556
Previously predicted energy change      ....    -0.000959913
Actually observed energy change         ....    -0.001464434
Ratio of predicted to observed change   ....     1.525590619
New trust radius                        ....     0.200000000

                                .--------------------.
          ----------------------|Geometry convergence|-------------------------
          Item                value                   Tolerance       Converged
          ---------------------------------------------------------------------
          Energy change      -0.0014644336            0.0000050000      NO
          RMS gradient        0.0004684410            0.0001000000      NO
          MAX gradient        0.0020162107            0.0003000000      NO
          RMS step            0.0248281767            0.0020000000      NO
          MAX step            0.1099780393            0.0040000000      NO
          -------------------------------------------------------------------------
          ........................................................
          Max(Bonds)      0.0582      Max(Angles)    1.55
          Max(Dihed)        1.98      Max(Improp)    0.00
          ---------------------------------------------------------------------

The optimization has not yet converged - more geometry cycles are needed


    ---------------------------------------------------------------------------
                         Redundant Internal Coordinates
                            (Angstroem and degrees)

        Definition                    Value    dE/dq     Step     New-Value
    ----------------------------------------------------------------------------
     1. B(C   1,C   0)                1.3288  0.000321 -0.0006    1.3282   
     2. B(C   2,C   1)                1.4504  0.000147  0.0003    1.4507   
     3. B(C   3,C   2)                1.3282  0.000420 -0.0005    1.3277   
     4. B(C   4,C   3)                2.8401 -0.001635  0.0465    2.8867   
     5. B(C   4,C   2)                2.9929 -0.000131  0.0226    3.0155   
     6. B(C   5,C   1)                2.9475  0.000233  0.0141    2.9616   
     7. B(C   5,C   0)                2.7055 -0.000725  0.0320    2.7375   
     8. B(C   5,C   4)                1.3211  0.000003  0.0000    1.3211   
     9. B(H   6,C   5)                2.9965 -0.001303  0.0436    3.0401   
    10. B(H   6,C   0)                1.0747  0.000247 -0.0001    1.0746   
    11. B(H   7,C   5)                2.8443 -0.000979  0.0362    2.8805   
[...]
     43      -0.879586  -0.004885  -0.002995  -0.019681  -0.002230   0.003837
     44       0.028933  -0.000033   0.001635  -0.003036  -0.000873  -0.000100
     45      -0.007386  -0.000050   0.000013  -0.000279  -0.000026   0.000020
     46       0.003793   0.000143  -0.000029  -0.002836   0.000021  -0.000108
     47       0.000476  -0.000019  -0.000015   0.000041   0.000001  -0.000003
                 36         37         38         39         40         41    
      0       0.343958  -0.044362   0.304133   0.001234  -0.002136   0.000690
      1      -0.016462   0.001906  -0.023431  -0.006706   0.008687  -0.000460
      2      -0.005022   0.000848  -0.004850  -0.000287   0.000372  -0.000034
      3      -0.321408   0.040557  -0.391390  -0.032772   0.018036  -0.000603
      4      -0.000254  -0.000778  -0.043228   0.063045  -0.031972   0.000918
      5       0.004141  -0.000542   0.002330   0.002879  -0.001438   0.000058
      6      -0.328202   0.047543   0.384699   0.014856   0.034489  -0.000236
      7      -0.001387   0.001155   0.043327  -0.030147  -0.063925   0.000137
      8      -0.003180   0.000255   0.003480  -0.000707  -0.001570  -0.000021
      9       0.349159  -0.049237  -0.297204  -0.000043  -0.004296   0.001480
     10      -0.016592   0.001844   0.023006   0.000760   0.013369  -0.001526
     11       0.002820  -0.000459  -0.002257   0.000016   0.000305  -0.000006
     12       0.047438   0.379297  -0.002531   0.001060  -0.001033  -0.079073
     13       0.038335   0.310460  -0.002406  -0.000245   0.000058   0.021683
     14      -0.003341  -0.028073   0.000247  -0.000068   0.000092   0.005353
     15      -0.051287  -0.410649   0.002704  -0.000250  -0.000148   0.007478
     16      -0.036642  -0.293010   0.002465  -0.000563   0.000763  -0.005502
     17       0.003764   0.029974  -0.000086   0.000003   0.000014  -0.000484
     18      -0.083132   0.010539  -0.066309   0.045866  -0.033544  -0.002236
     19       0.308999  -0.038899   0.256064   0.056752  -0.038760  -0.003725
     20       0.012385  -0.002943   0.012011   0.001715  -0.001198  -0.000106
     21      -0.190905   0.024731  -0.148451  -0.030916   0.038104  -0.004718
     22      -0.294918   0.038288  -0.256170   0.049612  -0.074455   0.009738
     23      -0.008492   0.000855  -0.007697   0.002435  -0.003379   0.000520
     24       0.014415  -0.001562   0.199948   0.383967  -0.186093   0.005847
     25       0.190740  -0.023162   0.252727  -0.800930   0.383299  -0.012073
     26       0.007563  -0.001242   0.011266  -0.035872   0.017309  -0.000607
     27       0.017384  -0.004573  -0.197971  -0.189159  -0.382459   0.000743
     28       0.194535  -0.026953  -0.248681   0.397461   0.792987  -0.001501
     29       0.005270   0.001135  -0.003433   0.010038   0.019984   0.000142
     30      -0.085065   0.010130   0.066120  -0.016151  -0.051322  -0.003474
     31       0.313012  -0.042162  -0.250212  -0.021423  -0.059289  -0.006270
     32       0.007251  -0.000641  -0.004278  -0.000748  -0.002044  -0.000187
     33      -0.192235   0.026233   0.143558   0.005639   0.066130  -0.011987
     34      -0.299021   0.042503   0.250013  -0.002646  -0.123957   0.024779
     35      -0.010204   0.002505   0.008721   0.000058  -0.002579   0.000690
     36      -0.018339  -0.145571  -0.000103   0.002210   0.002199  -0.056678
     37       0.052608   0.413991  -0.004118  -0.001078  -0.000787   0.016937
     38      -0.000112   0.006450  -0.002214  -0.000213  -0.000131   0.003702
     39       0.045316   0.353160  -0.001892  -0.000658   0.000719  -0.006259
     40      -0.030013  -0.237932   0.001787   0.006287  -0.007060   0.100863
     41      -0.003742  -0.022048   0.001182   0.000035  -0.000221  -0.000167
     42       0.030709   0.250393  -0.000429  -0.011294   0.011520   0.927629
     43      -0.028682  -0.220127   0.004644   0.004050  -0.004286  -0.337465
     44      -0.000534  -0.016245  -0.002129   0.000668  -0.000872  -0.062635
     45      -0.000305  -0.002399   0.000018   0.000004  -0.000012  -0.000330
     46      -0.000398  -0.004624  -0.000082   0.000011   0.000068   0.000768
     47       0.000010   0.000236   0.000003   0.000000  -0.000010   0.000019
                 42         43         44         45         46         47    
      0      -0.006784   0.059199   0.000352   0.020157   0.009676  -0.000027
      1       0.006060  -0.023730  -0.003141   0.080229   0.042911  -0.002329
      2       0.000325  -0.001662  -0.000119   0.002975   0.001608  -0.000082
      3       0.001382  -0.002434  -0.000104  -0.004031  -0.003960   0.000443
      4      -0.003066  -0.002936   0.000074   0.010382   0.007827  -0.000909
      5      -0.000137  -0.000078  -0.000011   0.000450   0.000358  -0.000063
      6      -0.000472   0.000411   0.000146   0.001406  -0.006252   0.000421
      7      -0.006569  -0.003391  -0.000247  -0.003995   0.012797  -0.000827
      8      -0.000206  -0.000096  -0.000004  -0.000102   0.000312  -0.000003
      9       0.055459   0.007884  -0.000490  -0.015366   0.026134  -0.000204
     10      -0.035614  -0.002283  -0.001663  -0.040479   0.076722  -0.002055
     11      -0.000387   0.000016  -0.000049  -0.001205   0.002251  -0.000071
     12       0.001885   0.001103  -0.006551   0.000098  -0.000239   0.010136
     13      -0.000589  -0.000239  -0.001077  -0.000095   0.000119  -0.006078
     14      -0.000104  -0.000069   0.000445  -0.000005   0.000005  -0.000661
     15      -0.000504  -0.001484   0.046455   0.001505   0.003301   0.060726
     16       0.000805   0.000008   0.043608  -0.000073  -0.001011  -0.073816
     17       0.000033   0.000077  -0.003343  -0.000101  -0.000235  -0.003589
     18       0.023014  -0.305728   0.009720  -0.452624  -0.231166   0.008950
     19       0.037708  -0.453954   0.011560  -0.585952  -0.299485   0.011304
     20       0.001218  -0.014519   0.000355  -0.018101  -0.009278   0.000306
     21       0.053465  -0.353353  -0.014250   0.225054   0.127084  -0.009454
     22      -0.111747   0.742225   0.027288  -0.400844  -0.227335   0.017366
     23      -0.005110   0.033989   0.001421  -0.018743  -0.010635   0.000850
     24      -0.016197  -0.013480   0.001622   0.037029   0.034848  -0.004514
     25       0.036690   0.031709  -0.002874  -0.081087  -0.081367   0.010043
     26       0.001631   0.001460  -0.000010  -0.003611  -0.003624   0.000577
     27      -0.031379  -0.016524  -0.001351  -0.010470   0.053147  -0.004203
     28       0.069727   0.037474   0.003041   0.019574  -0.119959   0.009185
     29       0.001899   0.000950   0.000185   0.000500  -0.003088   0.000115
     30      -0.233156  -0.042214   0.009621   0.264532  -0.475041   0.009120
     31      -0.362071  -0.062341   0.012693   0.348289  -0.625658   0.011653
     32      -0.011689  -0.002008   0.000423   0.011656  -0.020892   0.000388
     33      -0.386505  -0.043732  -0.004240  -0.089365   0.186116  -0.007536
     34       0.796737   0.090219   0.007379   0.150331  -0.317467   0.013605
     35       0.017071   0.001917   0.000200   0.003113  -0.006545   0.000340
     36       0.004876   0.017644  -0.589438  -0.018432  -0.040434  -0.704841
     37      -0.001870  -0.007259   0.264834   0.008037   0.016867   0.271271
     38      -0.000370  -0.000774   0.037341   0.001048   0.002607   0.044971
     39       0.000662  -0.000993   0.084142   0.001340   0.001413  -0.035802
     40      -0.008349   0.005562  -0.753211  -0.006174  -0.003850   0.635365
     41       0.000150  -0.000081  -0.001364   0.000080   0.000164  -0.001251
     42      -0.022250  -0.012415   0.029112  -0.001932   0.002399  -0.102221
     43       0.008471   0.004371  -0.010827   0.000536  -0.000607   0.039168
     44       0.001023   0.000705  -0.001915   0.000015  -0.000068   0.006904
     45       0.000005   0.000003   0.000020  -0.000001   0.000004  -0.000040
     46      -0.000026   0.000003  -0.000209  -0.000013  -0.000050   0.000169
     47      -0.000004  -0.000002   0.000002   0.000002   0.000004   0.000001


The first frequency considered to be a vibration is 7
The total number of vibrations considered is 41


--------------------------
THERMOCHEMISTRY AT 298.15K
--------------------------

Temperature         ...   298.15 K
Pressure            ...     1.00 atm
Total Mass          ...   116.59 AMU
Quasi RRHO          ...     True
Cut-Off Frequency   ...     1.00 cm^-1

Throughout the following assumptions are being made:
  (1) The electronic state is orbitally nondegenerate
  (2) There are no thermally accessible electronically excited states
  (3) Hindered rotations indicated by low frequency modes are not
      treated as such but are treated as vibrations and this may
      cause some error
  (4) All equations used are the standard statistical mechanics
      equations for an ideal gas
  (5) All vibrations are strictly harmonic

freq.      20.85  E(vib)   ...       0.56 
freq.      24.01  E(vib)   ...       0.56 
freq.      44.57  E(vib)   ...       0.53 
freq.      57.76  E(vib)   ...       0.51 
freq.      64.87  E(vib)   ...       0.50 
freq.     147.90  E(vib)   ...       0.41 
freq.     296.95  E(vib)   ...       0.27 
freq.     373.81  E(vib)   ...       0.21 
freq.     500.89  E(vib)   ...       0.14 
freq.     507.93  E(vib)   ...       0.14 
freq.     598.44  E(vib)   ...       0.10 
freq.     697.23  E(vib)   ...       0.07 
freq.     740.92  E(vib)   ...       0.06 
freq.     852.31  E(vib)   ...       0.04 
freq.     884.84  E(vib)   ...       0.04 
freq.     888.66  E(vib)   ...       0.04 
freq.     913.13  E(vib)   ...       0.03 
freq.     974.07  E(vib)   ...       0.03 
freq.     984.40  E(vib)   ...       0.02 
freq.     989.17  E(vib)   ...       0.02 
freq.    1014.06  E(vib)   ...       0.02 
freq.    1039.51  E(vib)   ...       0.02 
freq.    1198.47  E(vib)   ...       0.01 
freq.    1228.88  E(vib)   ...       0.01 
freq.    1263.67  E(vib)   ...       0.01 
freq.    1292.95  E(vib)   ...       0.01 
freq.    1369.29  E(vib)   ...       0.01 
freq.    1397.06  E(vib)   ...       0.00 
freq.    1423.33  E(vib)   ...       0.00 
freq.    1663.62  E(vib)   ...       0.00 
freq.    1666.72  E(vib)   ...       0.00 
freq.    1674.04  E(vib)   ...       0.00 
freq.    3052.81  E(vib)   ...       0.00 
freq.    3064.93  E(vib)   ...       0.00 
freq.    3079.82  E(vib)   ...       0.00 
freq.    3095.84  E(vib)   ...       0.00 
freq.    3100.25  E(vib)   ...       0.00 
freq.    3117.84  E(vib)   ...       0.00 
freq.    3128.13  E(vib)   ...       0.00 
freq.    3130.09  E(vib)   ...       0.00 
freq.    3150.44  E(vib)   ...       0.00 

------------
INNER ENERGY
------------

The inner energy is: U= E(el) + E(ZPE) + E(vib) + E(rot) + E(trans)
    E(el)   - is the total energy from the electronic structure calculation
              = E(kin-el) + E(nuc-el) + E(el-el) + E(nuc-nuc)
    E(ZPE)  - the the zero temperature vibrational energy from the frequency calculation
    E(vib)  - the the finite temperature correction to E(ZPE) due to population
              of excited vibrational states
    E(rot)  - is the rotational thermal energy
    E(trans)- is the translational thermal energy

Summary of contributions to the inner energy U:
Electronic energy                ...    -21.87820410 Eh
Zero point energy                ...      0.12464873 Eh      78.22 kcal/mol
Thermal vibrational correction   ...      0.00697824 Eh       4.38 kcal/mol
Thermal rotational correction    ...      0.00141627 Eh       0.89 kcal/mol
Thermal translational correction ...      0.00141627 Eh       0.89 kcal/mol
-----------------------------------------------------------------------
Total thermal energy                    -21.74374458 Eh


Summary of corrections to the electronic energy:
(perhaps to be used in another calculation)
Total thermal correction                  0.00981079 Eh       6.16 kcal/mol
Non-thermal (ZPE) correction              0.12464873 Eh      78.22 kcal/mol
-----------------------------------------------------------------------
Total correction                          0.13445952 Eh      84.37 kcal/mol


--------
ENTHALPY
--------

The enthalpy is H = U + kB*T
                kB is Boltzmann's constant
Total thermal energy              ...    -21.74374458 Eh 
Thermal Enthalpy correction       ...      0.00094421 Eh       0.59 kcal/mol
-----------------------------------------------------------------------
Total Enthalpy                    ...    -21.74280037 Eh


WARNING (ORCA/SYM): The number of Z matrix atoms does not agree with
the number of centers in the basis set. The point group will therefore
be determined without considering basis set information.


Note: Only C1 symmetry has been detected, increase convergence thresholds 
      if your molecule has a higher symmetry. Symmetry factor of 1.0 is   
      used for the rotational entropy correction. 
 

Note: Rotational entropy computed according to Herzberg 
Infrared and Raman Spectra, Chapter V,1, Van Nostrand Reinhold, 1945 
Point Group:  C1, Symmetry Number:   1  
Rotational constants in cm-1:     0.084109     0.040207     0.032980 

Vibrational entropy computed according to the QRRHO of S. Grimme
Chem.Eur.J. 2012 18 9955 using a reference frequency of 100.0 cm-1


-------
ENTROPY
-------

The entropy contributions are T*S = T*(S(el)+S(vib)+S(rot)+S(trans))
     S(el)   - electronic entropy
     S(vib)  - vibrational entropy
     S(rot)  - rotational entropy
     S(trans)- translational entropy
The entropies will be listed as multiplied by the temperature to get
units of energy

Electronic entropy                ...      0.00000000 Eh      0.00 kcal/mol
Vibrational entropy               ...      0.01335754 Eh      8.38 kcal/mol
Rotational entropy                ...      0.01380740 Eh      8.66 kcal/mol
Translational entropy             ...      0.01908864 Eh     11.98 kcal/mol
-----------------------------------------------------------------------
Final entropy term                ...      0.04625359 Eh     29.02 kcal/mol

In case the symmetry of your molecule has not been determined correctly
or in case you have a reason to use a different symmetry number we print 
out the resulting rotational entropy values for sn=1,12:

 non-linear molecules -----------------------------------
|  sn= 1 | S(rot)=       0.01380740 Eh      8.66 kcal/mol|
|  sn= 2 | S(rot)=       0.01315294 Eh      8.25 kcal/mol|
|  sn= 3 | S(rot)=       0.01277011 Eh      8.01 kcal/mol|
|  sn= 4 | S(rot)=       0.01249849 Eh      7.84 kcal/mol|
|  sn= 5 | S(rot)=       0.01228780 Eh      7.71 kcal/mol|
|  sn= 6 | S(rot)=       0.01211566 Eh      7.60 kcal/mol|
|  sn= 7 | S(rot)=       0.01197011 Eh      7.51 kcal/mol|
|  sn= 8 | S(rot)=       0.01184403 Eh      7.43 kcal/mol|
|  sn= 9 | S(rot)=       0.01173282 Eh      7.36 kcal/mol|
|  sn=10 | S(rot)=       0.01163334 Eh      7.30 kcal/mol|
|  sn=11 | S(rot)=       0.01154335 Eh      7.24 kcal/mol|
|  sn=12 | S(rot)=       0.01146120 Eh      7.19 kcal/mol|
 linear molecules ---------------------------------------
|  Dinfh | S(rot)=       0.00854721 Eh      5.36 kcal/mol|
|  Cinfv | S(rot)=       0.00920167 Eh      5.77 kcal/mol|
 --------------------------------------------------------


-------------------
GIBBS FREE ENERGY
-------------------

The Gibbs free energy is G = H - T*S

Total enthalpy                    ...    -21.74280037 Eh 
Total entropy correction          ...     -0.04625359 Eh    -29.02 kcal/mol
-----------------------------------------------------------------------
Final Gibbs free energy         ...    -21.78905396 Eh

For completeness - the Gibbs free energy minus the electronic energy
G-E(el)                           ...      0.08915014 Eh     55.94 kcal/mol


--------------------------------
SUGGESTED CITATIONS FOR THIS RUN
--------------------------------

Below you find a list of papers that are relevant to this ORCA run
We neither can nor want to force you to cite these papers, but we appreciate if you do
You receive ORCA, which is the product of decades of hard work by many enthusiastic individuals, for free
The only thing we kindly ask in return is that you cite our papers,
We deeply appreciate it, if you show your appreciation for ORCA by not just citing the generic ORCA reference.

Please note that relegating all ORCA citations to the supporting information does *not* help us.
SI sections are not indexed - citations you put there will not count into any citation statistics
But we need these citations in order to attract the funding resources that allow us to do what we are doing

Therefore, if you are a happy ORCA user, please consider citing a few of the papers listed below in the main body of your paper

In addition to the list printed below, the program has created the file reactant_optfreq.bibtex that contains the list in bibtex format
You can import this file easily into all common literature databanks and citation aid programs


List of essential papers. We consider these as the minimum necessary citations

  1. Bannwarth, C.; Ehlert, S.; Grimme, S.
     GFN2-xTB—An Accurate and Broadly Parametrized Self-Consistent Tight-Binding Quantum Chemical Method with Multipole Electrostatics and Density-Dependent Dispersion Contributions
     J. Chem. Theory Comput. 2019 15(3), 1652-1671
     doi.org/10.1021/acs.jctc.8b01176
  2. Neese, F.
     Software update: the ORCA program system, version 6.0
     WIRES Comput. Molec. Sci. 2025 15(1), e70019
     doi.org/10.1002/wcms.7019

List of papers to cite with high priority. The work reported in these papers was absolutely
necessary for this run to complete.
Our perspective: the developers of density functionals and basis sets usually get cited in chemistry papers
Good! But without the algorithms to do something with them, the functionals or basis sets would not do anything.
Hence, in our opinion, the algorithm design and method developments papers are equally worthy of getting cited

  1. Bykov, D.; Petrenko, T.; Izsak, R.; Kossmann, S.; Becker, U.; Valeev, E.; Neese, F.
     Efficient implementation of the analytic second derivatives of Hartree-Fock and hybrid DFT energies: a detailed analysis of different approximations
     Molec. Phys. 2015 113 , 1961-1977
     doi.org/10.1080/00268976.2015.1025114
  2. Bannwarth, C.; Caldeweyher, E.; Ehlert, S.; Hansen, A.; Pracht, P.; Seibert, J.; Spicher, S.; Grimme, S.
     Extended tight-binding quantum chemistry methods
     WIRES Comput. Molec. Sci. 2020 11(2), e1493
     doi.org/10.1002/wcms.1493

List of suggested additional citations. These are papers that are important in the 'surrounding' of 
of this run, or papers that preceded the highly important papers. If you like your results we are grateful for a citation.

  1. Neese, F.
     The ORCA program system
     WIRES Comput. Molec. Sci. 2012 2(1), 73-78
     doi.org/10.1002/wcms.81
  2. Neese, F.
     Software update: the ORCA program system, version 4.0
     WIRES Comput. Molec. Sci. 2018 8(1), 1-6
     doi.org/10.1002/wcms.1327
  3. Neese, F.; Wennmohs, F.; Becker, U.; Riplinger, C.
     The ORCA quantum chemistry program package
     J. Chem. Phys. 2020 152(22), 224108
     doi.org/10.1063/5.0004608
  4. Neese, F.
     Software update: The ORCA program system—Version 5.0
     WIRES Comput. Molec. Sci. 2022 12(1), e1606
     doi.org/10.1002/wcms.1606

List of optional additional citations

  1. Neese, F.
     Approximate second-order SCF convergence for spin unrestricted wavefunctions
     Chem. Phys. Lett. 2000 325(1-3), 93-98
     doi.org/10.1016/s0009-2614(00)00662-x

Timings for individual modules:

Sum of individual times          ...        1.947 sec (=   0.032 min)
Geometry relaxation              ...        0.152 sec (=   0.003 min)   7.8 %
XTB module                       ...        1.794 sec (=   0.030 min)  92.2 %
                             ****ORCA TERMINATED NORMALLY****
TOTAL RUN TIME: 0 days 0 hours 0 minutes 2 seconds 470 msec
