
                                 *****************
                                 * O   R   C   A *
                                 *****************

                                            #,                                       
                                            ###                                      
                                            ####                                     
                                            #####                                    
                                            ######                                   
                                           ########,                                 
                                     ,,################,,,,,                         
                               ,,#################################,,                 
                          ,,##########################################,,             
                       ,#########################################, ''#####,          
                    ,#############################################,,   '####,        
                  ,##################################################,,,,####,       
                ,###########''''           ''''###############################       
              ,#####''   ,,,,##########,,,,          '''####'''          '####       
            ,##' ,,,,###########################,,,                        '##       
           ' ,,###''''                  '''############,,,                           
         ,,##''                                '''############,,,,        ,,,,,,###''
      ,#''                                            '''#######################'''  
     '                                                          ''''####''''         
             ,#######,   #######,   ,#######,      ##                                
            ,#'     '#,  ##    ##  ,#'     '#,    #''#        ,####,    ,#,          
            ##       ##  ##   ,#'  ##            #'  '#       #'       ,# #          
            ##       ##  #######   ##           ,######,      #####,      #          
            '#,     ,#'  ##    ##  '#,     ,#' ,#      #,     #,   #      #          
             '#######'   ##     ##  '#######'  #'      '#     '####' #    #          



                #########################################################
                #                        -***-                          #
                #          Department of theory and spectroscopy        #
                #                                                       #
                #                      Frank Neese                      #
                #                                                       #
                #     Directorship, Architecture, Infrastructure        #
                #                    SHARK, DRIVERS                     #
                #        Core code/Algorithms in most modules           #
                #                                                       #
                #        Max Planck Institute fuer Kohlenforschung      #
                #                Kaiser Wilhelm Platz 1                 #
                #                 D-45470 Muelheim/Ruhr                 #
                #                      Germany                          #
                #                                                       #
                #                  All rights reserved                  #
                #                        -***-                          #
                #########################################################


                         Program Version 6.1.0  -  RELEASE   -
                                (GIT: $679e74b$)
                          ($2025-06-10 18:02:51 +0200$)


 With contributions from (in alphabetic order):
[Max-Planck-Institut fuer Kohlenforschung]                               
  Daniel Aravena         : Magnetic Suceptibility                        
  Michael Atanasov       : Ab Initio Ligand Field Theory (pilot matlab implementation)
  Alexander A. Auer      : GIAO ZORA, VPT2 properties, NMR spectrum      
  Ute Becker             : All parallelization in ORCA, NUMFREQ, NUMCALC 
  Giovanni Bistoni       : ED, misc. LED, open-shell LED, HFLD           
  Dmytro Bykov           : pre 5.0 version of the SCF Hessian            
  Marcos Casanova-Páez   : Triplet and SCS-CIS(D). UHF-(DLPNO)-IP/EA/STEOM-CCSD. UHF-CVS-IP/STEOM-CCSD   
  Vijay G. Chilkuri      : MRCI spin determinant printing, contributions to CSF-ICE 
  Pauline Colinet        : FMM embedding                                 
  Dipayan Datta          : RHF DLPNO-CCSD density                        
  Achintya Kumar Dutta   : EOM-CC, STEOM-CC                              
  Nicolas Foglia         : Exact transition moments, OPA infrastructure, MCD improvements    
  Dmitry Ganyushin       : Spin-Orbit,Spin-Spin,Magnetic field MRCI      
  Miquel Garcia-Rates    : C-PCM and meta-GGA Hessian, CCSD/C-PCM, Gaussian charge scheme 
  Tiago L. C. Gouveia    : GS-ROHF, GS-ROCIS                             
  Yang Guo               : DLPNO-NEVPT2, F12-NEVPT2, CIM, IAO-localization        
  Andreas Hansen         : Spin unrestricted coupled pair/coupled cluster methods 
  Ingolf Harden          : AUTO-CI MPn and infrastructure                
  Benjamin Helmich-Paris : MC-RPA, TRAH-(SCF,CASSCF), AVAS, COSX integrals, SCF dyn. polar., MC-PDFT, srDFT 
  Lee Huntington         : MR-EOM, pCC                                   
  Robert Izsak           : Overlap fitted RIJCOSX, COSX-SCS-MP3, EOM     
  Riya Kayal             : Wick's Theorem for AUTO-CI, AUTO-CI UHF-CCSDT 
  Emily Kempfer          : AUTO-CI RHF CISDT and CCSDT, approximate NEVPT4
  Christian Kollmar      : KDIIS, OOCD, Brueckner-CCSD(T), CCSD density, CASPT2, CASPT2-K, improved NEVPT2 
  Axel Koslowski         : Symmetry handling                             
  Simone Kossmann        : meta-GGA functionals, TD-DFT gradient, OOMP2, (MP2 Hessian; deprecated post 5.0) 
  Lucas Lang             : DCDCAS, Hyperfine gauge corrections, ICE-SOC+SSC
  Marvin Lechner         : AUTO-CI (C++ implementation), FIC-MRCC        
  Spencer Leger          : CASSCF response                               
  Dagmar Lenk            : GEPOL surface, SMD, ORCA-2-JSON               
  Dimitrios Liakos       : Extrapolation schemes; Compound Job, Property file
  Dimitrios Manganas     : Further ROCIS development; embedding schemes. LFT, Crystal Embedding 
  Dimitrios Pantazis     : SARC Basis sets                               
  Anastasios Papadopoulos: AUTO-CI, single reference methods and gradients 
  Taras Petrenko         : pre 6.0 DFT Hessian and TD-DFT gradient,  ECA, NRVS 
  Petra Pikulova         : Analytic Raman intensities                    
  Peter Pinski           : DLPNO-MP2, DLPNO-MP2 Gradient                 
  Shashank Vittal Rao    : ES-AILFT, MagRelax                            
  Christoph Reimann      : Effective Core Potentials                     
  Marius Retegan         : Local ZFS, SOC                                
  Christoph Riplinger    : Optimizer, TS searches, QM/MM, DLPNO-CCSD(T), (RO)-DLPNO pert. Triples 
  Michael Roemelt        : Original ROCIS implementation, recursive CI coupling coefficients
  Masaaki Saitow         : Open-shell DLPNO-CCSD energy and density      
  Barbara Sandhoefer     : DKH picture change effects                    
  Yorick L. A. Schmerwitz: GMF and freeze-and-release deltaSCF, NEB S-IDPP initial path                    
  Kantharuban Sivalingam : CASSCF convergence/infrastructure, NEVPT2, NEVPT3, NEVPT4(SD), FIC-MRCI and CEPA variants
  Bernardo de Souza      : ESD, SOC TD-DFT                               
  Georgi L. Stoychev     : AutoAux, RI-MP2 NMR, DLPNO-MP2 response, X2C  
  Van Anh Tran           : RI-MP2 g-tensors                              
  Willem Van den Heuvel  : Paramagnetic NMR                              
  Zikuan Wang            : NOTCH, Electric field optimization            
  Frank Wennmohs         : Technical directorship and infrastructure     
  Hang Xu                : AUTO-CI-Response properties                   
                                                                         
[FACCTs GmbH]                                                            
  Markus Bursch, Nicolas Foglia, Miquel Garcia-Rates, Ingolf Harden, Hagen Neugebauer, Anastasios Papadopoulos, 
  Christoph Riplinger, Bernardo de Souza, Georgi L. Stoychev                                                    
                                                                 
  APM, various basis sets, CI-OPT, improved COSX, DLPNO-Multilevel,           
  DOCKER, DRACO, updates on ESD, Fragmentator, GOAT, IRC, LR-CPCM, L-BFGS, MBIS, meta-GGA TD-DFT gradient, ML-optimized integration grids, 
  MM, NACMEs, nearIR, NEB, NEB-TS, NL-DFT gradient (VV10), 2- and 3-layer-ONIOM, interface openCOSMO-RS, QMMM,   
  Crystal-QMMM, RESP, rigid body optimization, SF, symmetry and pop. for TD-DFT, various functionals, SOLVATOR                                   
                                                                         
[Other institutions]                                                     
  V. Asgeirsson          : NEB                                           
  Christoph Bannwarth    : sTDA-DFT, sTD-DFT, PBEh-3c, B97-3c, D3        
  Giovanni Bistoni       : ETS/NOCV, ADLD/ADEX, COVALED                  
  Martin Brehm           : Molecular dynamics                            
  Ronald Cardenas        : ETS/NOCV                                      
  Martina Colucci        : COVALED                                       
  Sebastian Ehlert       : rSCAN, r2SCAN, r2SCAN-3c, D4, dhf basis sets  
  Marvin Friede          : D4 for Fr, Ra, Ac-Lr                          
  Lars Goerigk           : TD-DFT with DH, B97 family of functionals     
  Stefan Grimme          : VdW corrections, initial TS optimization, DFT functionals, gCP, sTDA/sTD-DF 
  Waldemar Hujo          : DFT-NL                                        
  H. Jonsson             : NEB                                           
  Holger Kruse           : gCP                                           
  Marcel Mueller         : wB97X-3c, vDZP basis set                      
  Hagen Neugebauer       : wr2SCAN, Native XTB                           
  Gianluca Regni         : ADLD/ADEX                                     
  Tobias Risthaus        : pre 6.0 range-separated hybrid DFT and stability analysis
  Lukas Wittmann         : regularized MP2, r2SCAN double-hybrids, wr2SCAN        
                                                                         
We gratefully acknowledge several colleagues who have allowed us to      
interface, adapt or use parts of their codes:                            
  Ed Valeev, F. Pavosevic, A. Kumar             : LibInt (2-el integral package), F12 methods 
  Garnet Chan, S. Sharma, J. Yang, R. Olivares  : DMRG                   
  Ulf Ekstrom                                   : XCFun DFT Library      
  Mihaly Kallay                                 : mrcc  (arbitrary order and MRCC methods)
  Frank Weinhold                                : gennbo (NPA and NBO analysis)           
  Simon Mueller                                 : openCOSMO-RS                            
  Christopher J. Cramer and Donald G. Truhlar   : smd solvation model                     
  S Lehtola, MJT Oliveira, MAL Marques          : LibXC Library                           
  Liviu Ungur et al                             : ANISO software                          


 Your calculation uses the libint2 library for the computation of 2-el integrals
 For citations please refer to: http://libint.valeyev.net

 Your ORCA version has been built with support for libXC version: 7.0.0
 For citations please refer to: https://libxc.gitlab.io

 This ORCA versions uses:
   CBLAS   interface :  Fast vector & matrix operations
   LAPACKE interface :  Fast linear algebra routines
   SCALAPACK package :  Parallel linear algebra routines
   Shared memory     :  Shared parallel matrices
   BLAS/LAPACK       :  OpenBLAS 0.3.29  USE64BITINT DYNAMIC_ARCH NO_AFFINITY SkylakeX SINGLE_THREADED
        Core in use  :  SkylakeX
   Copyright (c) 2011-2014, The OpenBLAS Project


  ***********************************
  * Starting time: Thu Mar 12 13:44:41 2026
  * Host name:     midway3-login4.rcc.local
  * Process ID:    3199497
  * Working dir.:  /home/rzhu16/orca_TS_search/sn2_i_br/DFT_test
  ***********************************

Your calculation utilizes the geometrical counterpoise correction gCP
Please cite in your paper:
H.Kruse, S. Grimme J.Chem.Phys., 136, (2012), 154101 
   

Your calculation utilizes the atom-pairwise dispersion correction
based on EEQ partial charges (D4)


================================================================================

cite the ECPs for I  [Def2-ECP] as follows:
Ce-Yb(ecp-28): M. Dolg, H. Stoll, H.Preuss, J. Chem. Phys., 1989, 90, 1730-1734.
Y-Cd(ecp-28), Hf-Hg(ecp-46): D. Andrae,U. Haeussermann, M. Dolg, H. Stoll, H. Preuss, Theor. Chim. Acta, 1990, 77, 123-141.
In-Sb(ecp-28), Tl-Bi(ecp-46): B. Metz, H. Stoll, M. Dolg, J. Chem. Phys., 2000, 113, 2563-2569.
Te-Xe(ecp-28), Po-Rn(ecp-46): K. A. Peterson, D. Figgen, E. Goll, H. Stoll, M. Dolg, J. Chem. Phys., 2003, 119, 11113-11123.
Rb(ecp-28), Cs(ecp-46): T. Leininger, A. Nicklass, W. Kuechle, H. Stoll, M. Dolg, A. Bergner, Chem. Phys. Lett., 1996, 255, 274-280.
Sr(ecp-28), Ba(ecp-46): M. Kaupp, P. V. Schleyer, H. Stoll and H. Preuss, J. Chem. Phys., 1991, 94, 1360-1366.
La(ecp-46): M. Dolg, H. Stoll, A. Savin, H. Preuss, Theor. Chim. Acta, 1989, 75, 173-194.
Lu(ecp-28): X. Cao, M. Dolg, J. Chem. Phys., 2001, 115, 7348-7355.
Fr-Ra(ecp-78) K. Eichkorn, F. Weigend, O. Treutler, R. Ahlrichs, Theor. Chem. Acc. 1997, 97, 119.
Ac-Lr(ecp-60) K. Eichkorn, F. Weigend, O. Treutler, R. Ahlrichs, Theor. Chem. Acc. 1997, 97, 119.

ECP parameters for I  [Def2-ECP] have been obtained from:
TURBOMOLE (7.0.2)

----- Orbital basis set information -----
Your calculation utilizes the basis: def2-mTZVPP
   Stefan Grimme, Andreas Hansen, Sebastian Ehlert, and Jan-Michael Mewes 
   J. Chem. Phys. 154, 064103 (2021). DOI: 10.1063/5.0040021

----- AuxJ basis set information -----
Your calculation utilizes the basis: def2-mTZVPP/J
   Stefan Grimme, Andreas Hansen, Sebastian Ehlert, and Jan-Michael Mewes 
   J. Chem. Phys. 154, 000000 (2021). DOI: 10.1063/5.0040021

================================================================================
                                        WARNINGS
                       Please study these warnings very carefully!
================================================================================



WARNING: SCAN, rSCAN, or r2SCAN functional requested.
  ===> : libXC variant has now been activated.



WARNING: Geometry Optimization
  ===> : Switching off AutoStart
         For restart on a previous wavefunction, please use MOREAD

================================================================================
                                       INPUT FILE
================================================================================
NAME = product_optfreq.inp
|  1> ! r2SCAN-3c Opt Freq PAL8 TightSCF
|  2> 
|  3> %pal
|  4>    nprocs 8
|  5> end
|  6> 
|  7> %scf
|  8>    MaxIter 150
|  9> end
| 10> 
| 11> * xyz -1 1
| 12>   C      -0.000060     -0.000072     -0.377855
| 13>   H       0.000039      1.030651     -0.054190
| 14>   H       0.892534     -0.515242     -0.054197
| 15>   H      -0.892369     -0.515192     -0.054210
| 16>   I       0.000005      0.000005      2.770083
| 17>   Br      0.000018      0.000018     -2.349070
| 18> *
| 19> 
| 20>                          ****END OF INPUT****
================================================================================

                       *****************************
                       * Geometry Optimization Run *
                       *****************************

Geometry optimization settings:
Update method            Update   .... BFGS
Choice of coordinates    CoordSys .... (2022) Redundant Internals
Initial Hessian          InHess   .... Almloef's Model
Max. no of cycles        MaxIter  .... 50

Convergence Tolerances:
Energy Change            TolE     ....  5.0000e-06 Eh
Max. Gradient            TolMAXG  ....  3.0000e-04 Eh/bohr
RMS Gradient             TolRMSG  ....  1.0000e-04 Eh/bohr
Max. Displacement        TolMAXD  ....  4.0000e-03 bohr
RMS Displacement         TolRMSD  ....  2.0000e-03 bohr
Strict Convergence                .... False

------------------------------------------------------------------------------
                        ORCA OPTIMIZATION COORDINATE SETUP
------------------------------------------------------------------------------

The optimization will be done in redundant internal coordinates (2022)
Making redundant internal coordinates   ...  (2022 redundants) done
Evaluating the initial hessian          ...  (Almloef) done
Evaluating the coordinates              ...  done
Calculating the B-matrix                .... done
Calculating the G-matrix                .... done
The number of degrees of freedom        ....   17

    -----------------------------------------------------------------
                    Redundant Internal Coordinates


    -----------------------------------------------------------------
         Definition                    Initial Value    Approx d2E/dq
    -----------------------------------------------------------------
      1. B(H   1,C   0)                  1.0803         0.373099   
      2. B(H   2,C   0)                  1.0802         0.373271   
      3. B(H   3,C   0)                  1.0800         0.373632   
      4. B(I   4,H   2)                  3.0064         0.010000   
      5. B(I   4,H   3)                  3.0064         0.010000   
      6. B(I   4,H   1)                  3.0065         0.010000   
      7. B(I   4,C   0)                  3.1479         0.010000   
      8. B(Br  5,C   0)                  1.9712         0.248280   
      9. A(H   1,C   0,H   3)          111.4300         0.294172   
     10. A(H   2,C   0,H   3)          111.4360         0.294193   
     11. A(H   1,C   0,Br  5)          107.4306         0.323637   
     12. A(H   2,C   0,Br  5)          107.4342         0.323662   
     13. A(H   3,C   0,Br  5)          107.4418         0.323713   
     14. A(H   1,C   0,I   4)           72.5654         0.177201   
     15. A(H   2,C   0,I   4)           72.5648         0.177210   
     16. A(H   3,C   0,I   4)           72.5632         0.177230   
     17. A(H   1,C   0,H   2)          111.4177         0.294127   
    -----------------------------------------------------------------

Number of atoms                         .... 6
Number of degrees of freedom            .... 17


         *************************************************************
         *                GEOMETRY OPTIMIZATION CYCLE   1            *
         *************************************************************
---------------------------------
CARTESIAN COORDINATES (ANGSTROEM)
---------------------------------
  C     -0.000060   -0.000072   -0.377855
  H      0.000039    1.030651   -0.054190
  H      0.892534   -0.515242   -0.054197
  H     -0.892369   -0.515192   -0.054210
  I      0.000005    0.000005    2.770083
  Br     0.000018    0.000018   -2.349070

----------------------------
CARTESIAN COORDINATES (A.U.)
----------------------------
  NO LB      ZA    FRAG     MASS         X           Y           Z
   0 C     6.0000    0    12.011   -0.000113   -0.000136   -0.714042
   1 H     1.0000    0     1.008    0.000074    1.947648   -0.102404
   2 H     1.0000    0     1.008    1.686645   -0.973666   -0.102417
   3 H     1.0000    0     1.008   -1.686333   -0.973572   -0.102442
   4 I    25.0000*   0   126.900    0.000009    0.000009    5.234698
   5 Br   35.0000    0    79.900    0.000034    0.000034   -4.439099
* core charge reduced due to ECP

--------------------------------
INTERNAL COORDINATES (ANGSTROEM)
--------------------------------
 C      0   0   0     0.000000000000     0.00000000     0.00000000
 H      1   0   0     1.080346678041     0.00000000     0.00000000
 H      1   2   0     1.080221587777   111.41772894     0.00000000
 H      1   2   3     1.079958356561   111.43003216   125.14774392
 I      4   1   2     3.006391567067    87.39452760   297.42918387
 Br     1   2   3     1.971215003598   107.43058200   242.58189337

---------------------------
INTERNAL COORDINATES (A.U.)
---------------------------
 C      0   0   0     0.000000000000     0.00000000     0.00000000
 H      1   0   0     2.041559351190     0.00000000     0.00000000
 H      1   2   0     2.041322964849   111.41772894     0.00000000
 H      1   2   3     2.040825529940   111.43003216   125.14774392
 I      4   1   2     5.681256713088    87.39452760   297.42918387
 Br     1   2   3     3.725056507876   107.43058200   242.58189337

---------------------
BASIS SET INFORMATION
---------------------
There are 4 groups of distinct atoms

 Group   1 Type C   : 11s6p1d contracted to 5s3p1d pattern {62111/411/1}
 Group   2 Type H   : 4s1p contracted to 2s1p pattern {31/1}
 Group   3 Type I   : 11s10p8d contracted to 6s5p3d pattern {521111/34111/611}
 Group   4 Type Br  : 17s13p7d contracted to 6s5p3d pattern {842111/64111/511}

Atom   0C    basis set group =>   1
Atom   1H    basis set group =>   2
Atom   2H    basis set group =>   2
Atom   3H    basis set group =>   2
Atom   4I    basis set group =>   3
Atom   5Br   basis set group =>   4
---------------------------------
AUXILIARY/J BASIS SET INFORMATION
---------------------------------
There are 4 groups of distinct atoms

 Group   1 Type C   : 8s3p3d contracted to 6s3p3d pattern {311111/111/111}
 Group   2 Type H   : 5s2p1d contracted to 3s1p1d pattern {311/2/1}
 Group   3 Type I   : 11s5p5d3f1g contracted to 8s4p3d2f1g pattern {41111111/2111/311/21/1}
 Group   4 Type Br  : 19s5p5d3f1g contracted to 8s4p3d2f1g pattern {121111111/2111/311/21/1}

Atom   0C    basis set group =>   1
Atom   1H    basis set group =>   2
Atom   2H    basis set group =>   2
Atom   3H    basis set group =>   2
Atom   4I    basis set group =>   3
Atom   5Br   basis set group =>   4
-------------------------
ECP PARAMETER INFORMATION
-------------------------

 Group 1, Type I  ECP Def2-ECP (replacing 28 core electrons, lmax=3)

Atom   4I    ECP group =>   1



           ************************************************************
           *        Program running with 8 parallel MPI-processes     *
           *              working on a common directory               *
           ************************************************************
------------------------------------------------------------------------------
                             ORCA STARTUP CALCULATIONS
                           -- RI-GTO INTEGRALS CHOSEN --
------------------------------------------------------------------------------
------------------------------------------------------------------------------
                   ___                                                        
                  /   \      - P O W E R E D   B Y -                         
                 /     \                                                     
                 |  |  |   _    _      __       _____    __    __             
                 |  |  |  | |  | |    /  \     |  _  \  |  |  /  |          
                  \  \/   | |  | |   /    \    | | | |  |  | /  /          
                 / \  \   | |__| |  /  /\  \   | |_| |  |  |/  /          
                |  |  |   |  __  | /  /__\  \  |    /   |      \           
                |  |  |   | |  | | |   __   |  |    \   |  |\   \          
                \     /   | |  | | |  |  |  |  | |\  \  |  | \   \       
                 \___/    |_|  |_| |__|  |__|  |_| \__\ |__|  \__/        
                                                                              
                      - O R C A' S   B I G   F R I E N D -                    
                                      &                                       
                       - I N T E G R A L  F E E D E R -                       
                                                                              
 v1 FN, 2020, v2 2021, v3 2022-2024                                           
------------------------------------------------------------------------------


----------------------
SHARK INTEGRAL PACKAGE
----------------------

Number of atoms                             ...      6
Number of basis functions                   ...    106
Number of shells                            ...     46
Maximum angular momentum                    ...      2
Integral batch strategy                     ... SHARK/LIBINT Hybrid
RI-J (if used) integral strategy            ... SPLIT-RIJ (Revised 2003 algorithm where possible)
Printlevel                                  ...      1
Contraction scheme used                     ... SEGMENTED contraction
Prescreening option                         ... SCHWARTZ
   Thresh                                   ... 2.500e-11
   Tcut                                     ... 2.500e-12
   Tpresel                                  ... 2.500e-12 
Coulomb Range Separation                    ... NOT USED
Exchange Range Separation                   ... NOT USED
Multipole approximations                    ... NOT USED
Finite Nucleus Model                        ... NOT USED
CABS basis                                  ... NOT available
Auxiliary Coulomb fitting basis             ... AVAILABLE
   # of basis functions in Aux-J            ...    179
   # of shells in Aux-J                     ...     63
   Maximum angular momentum in Aux-J        ...      4
Auxiliary J/K fitting basis                 ... NOT available
Auxiliary Correlation fitting basis         ... NOT available
Auxiliary 'external' fitting basis          ... NOT available

Checking pre-screening integrals            ... done (  0.0 sec) Dimension = 46
   => SHARK Basis and OBASIS are compatible. Storing Pre-screening
Shell pair information
Shell pair cut-off parameter TPreSel        ...   2.5e-12
Total number of shell pairs                 ...      1081
Shell pairs after pre-screening             ...       966
Total number of primitive shell pairs       ...      5082
Primitive shell pairs kept                  ...      3379
          la=0 lb=0:    240 shell pairs
          la=1 lb=0:    333 shell pairs
          la=1 lb=1:    128 shell pairs
          la=2 lb=0:    139 shell pairs
          la=2 lb=1:    101 shell pairs
          la=2 lb=2:     25 shell pairs

Checking whether 4 symmetric matrices of dimension 106 fit in memory
:Max Core in MB      =   4096.00
 MB in use           =      4.64
 MB left             =   4091.36
 MB needed           =      0.17
 Data fit in memory  = YES
Calculating RI/J V-Matrix + Cholesky decomp.... done (  0.0 sec)
Calculating Nuclear repulsion               ... done (  0.0 sec) ENN=    217.036901836094 Eh

Diagonalization of the overlap matrix:
Smallest eigenvalue                        ... 4.740e-03
Time for diagonalization                   ...    0.001 sec
Threshold for overlap eigenvalues          ... 1.000e-07
Number of eigenvalues below threshold      ... 0
Time for construction of square roots      ...    0.001 sec
Total time needed                          ...    0.003 sec

-------------------
DFT GRID GENERATION
-------------------

General Integration Accuracy     IntAcc      ... 4.388
Radial Grid Type                 RadialGrid  ... OptM3 with GC (2021)
Angular Grid (max. ang.)         AngularGrid ... 4 (Lebedev-302)
Angular grid pruning method      GridPruning ... 4 (adaptive)
Weight generation scheme         WeightScheme... mBecke (2022)
Basis function cutoff            BFCut       ... 1.0000e-11
Integration weight cutoff        WCut        ... 1.0000e-14
Partially contracted basis set               ... off
Rotationally invariant grid construction     ... off
Angular grids for H and He will be reduced by one unit
Core-polarized basis detected: some atoms will have their core
                               angular grid increased.

Total number of grid points                  ...    38825
Total number of batches                      ...      611
Average number of points per batch           ...       63
Average number of grid points per atom       ...     6471
Grids setup in   1.4 sec
Initializing property integral containers    ... done (  0.0 sec)

SHARK setup successfully completed in   2.0 seconds

Maximum memory used throughout the entire STARTUP-calculation: 14.1 MB


           ************************************************************
           *        Program running with 8 parallel MPI-processes     *
           *              working on a common directory               *
           ************************************************************
-------------------------------------------------------------------------------
                                 ORCA GUESS
                   Start orbitals & Density for SCF / CASSCF
-------------------------------------------------------------------------------

------------
SCF SETTINGS
------------
Hamiltonian:
 Density Functional     Method          .... DFT(GTOs)
  Functional kind                       .... Exchange
  Functional name                       .... Re-regularized SCAN exchange by Furness et al
  Functional family                     .... MGGA
  Functional refs                              
    [ 0] J. W. Furness, A. D. Kaplan, J. Ning, J. P. Perdew, and J. Sun.,  J. Phys. Chem. Lett. 11, 8208-8215 (2020), doi: 10.1021/acs.jpclett.0c02405
    [ 1] J. W. Furness, A. D. Kaplan, J. Ning, J. P. Perdew, and J. Sun.,  J. Phys. Chem. Lett. 11, 9248-9248 (2020), doi: 10.1021/acs.jpclett.0c03077
  Functional external parameters        .... 6
    Parameter  0 _c1        =  6.670000e-01 : c1 parameter        
    Parameter  1 _c2        =  8.000000e-01 : c2 parameter        
    Parameter  2 _d         =  1.240000e+00 : d parameter         
    Parameter  3 _k1        =  6.500000e-02 : k1 parameter        
    Parameter  4 _eta       =  1.000000e-03 : eta parameter       
    Parameter  5 _dp2       =  3.610000e-01 : dp2 parameter       
  Functional kind                       .... Correlation
  Functional name                       .... Re-regularized SCAN correlation by Furness et al
  Functional family                     .... MGGA
  Functional refs                              
    [ 0] J. W. Furness, A. D. Kaplan, J. Ning, J. P. Perdew, and J. Sun.,  J. Phys. Chem. Lett. 11, 8208-8215 (2020), doi: 10.1021/acs.jpclett.0c02405
    [ 1] J. W. Furness, A. D. Kaplan, J. Ning, J. P. Perdew, and J. Sun.,  J. Phys. Chem. Lett. 11, 9248-9248 (2020), doi: 10.1021/acs.jpclett.0c03077
  Functional external parameters        .... 1
    Parameter  0 _eta       =  1.000000e-03 : Regularization parameter
 Gradients option       PostSCFGGA      .... off
 RI-approximation to the Coulomb term is turned on
   Number of AuxJ basis functions       .... 179


General Settings:
 Integral files         IntName         .... product_optfreq
 Hartree-Fock type      HFTyp           .... RHF
 Total Charge           Charge          ....   -1
 Multiplicity           Mult            ....    1
 Number of Electrons    NEL             ....   70
 Basis Dimension        Dim             ....  106
 Nuclear Repulsion      ENuc            ....    217.0369018361 Eh

Convergence Acceleration:
 AO-DIIS                CNVDIIS         .... on
   Start iteration      DIISMaxIt       ....    12
   Startup error        DIISStart       ....  0.200000
   # of expansion vecs  DIISMaxEq       ....     5
   Bias factor          DIISBfac        ....   1.050
   Max. coefficient     DIISMaxC        ....  10.000
 MO-DIIS                CNVKDIIS        .... off
 Trust-Rad. Augm. Hess. CNVTRAH         .... auto
   Auto Start mean grad. ratio tolernc. ....  1.125000
   Auto Start start iteration           ....    50
   Auto Start num. interpolation iter.  ....    10
   Max. Number of Micro iterations      ....    24
   Max. Number of Macro iterations      .... Maxiter - #DIIS iter
   Number of Davidson start vectors     ....     2
   Converg. threshold    (grad. norm)   ....   1.000e-05
   Grad. Scal. Fac. for Micro threshold ....   0.100
   Minimum threshold for Micro iter.    ....   1.000e-02
   NR start threshold (gradient norm)   ....   1.000e-04
   Initial trust radius                 ....   0.400
   Minimum AH scaling param. (alpha)    ....   1.000
   Maximum AH scaling param. (alpha)    .... 1000.000
   Quad. conv. algorithm                .... NR
   White noise on init. David. guess    .... on
   Maximum white noise                  ....   0.010
   Pseudo random numbers                .... off
   Inactive MOs                         .... canonical
   Orbital update algorithm             .... Taylor
   Preconditioner                       .... Diag
   Full preconditioner red. dimension   ....   250
   COSX micro iterations for RIJONX calc.... off
 SOSCF                 CNVSOSCF           .... on
   Start iteration     SOSCFMaxIt         ....   150
   Startup grad/error  SOSCFStart         ....  0.003300
   Hessian update      SOSCFHessUp        .... L-BFGS
   Autom. constraints  SOSCFAutoConstrain .... off
 Level Shifting         CNVShift        .... on
   Level shift para.    LevelShift      ....    0.2500
   Turn off err/grad.   ShiftErr        ....    0.0010
 Zerner damping         CNVZerner       .... off
 Static damping         CNVDamp         .... on
   Fraction old density DampFac         ....    0.7000
   Max. Damping (<1)    DampMax         ....    0.9800
   Min. Damping (>=0)   DampMin         ....    0.0000
   Turn off err/grad.   DampErr         ....    0.1000

SCF Procedure:
 Maximum # iterations   MaxIter         ....   150
 SCF integral mode      SCFMode         .... Direct
   Integral package                     .... SHARK and LIBINT hybrid scheme
 Reset frequency        DirectResetFreq ....    20
 Integral Threshold     Thresh          ....  2.500e-11 Eh
 Primitive CutOff       TCut            ....  2.500e-12 Eh

Convergence Tolerance:
 Convergence Check Mode ConvCheckMode   .... Total+1el-Energy
 Convergence forced     ConvForced      .... 0
 Energy Change          TolE            ....  1.000e-08 Eh
 1-El. energy change                    ....  1.000e-05 Eh
 Orbital Gradient       TolG            ....  1.000e-05
 Orbital Rotation angle TolX            ....  1.000e-05
 DIIS Error             TolErr          ....  5.000e-07

------------------------------
INITIAL GUESS: MODEL POTENTIAL
------------------------------
Loading Hartree-Fock densities                     ... done
Atomic calculation to generate a density for atom 4 (I  with ECP)
  Multiplicity assumed   :    2
  Atomic configuration   : 1s2 2s2 2p6 3s2 3p6 4s2 3d10 4p6 5s2 4d10 5p5 
  Number of open shells  : 1
  Command: /software/orca-6.1.0-el8-x86_64/bin/orca product_optfreq_atom53.inp "" > product_optfreq_atom53.out
Returned from the atomic calculation with res=0
Calculating cut-offs                               ... done
Initializing the effective Hamiltonian             ... done
Setting up the integral package (SHARK)            ... done
Starting the Coulomb interaction                   ... done (   0.2 sec)
Making the grid                                    ... done (   0.4 sec)
Mapping shells                                     ... done
Starting the XC term evaluation                    ... done (   0.1 sec)
  promolecular density results
     # of electrons  =     96.997832510
     EX              =   -268.363866460
     EC              =     -4.850535032
     EX+EC           =   -273.214401492
Transforming the Hamiltonian                       ... done (   0.0 sec)
Diagonalizing the Hamiltonian                      ... done (   0.0 sec)
Back transforming the eigenvectors                 ... done (   0.0 sec)
Now organizing SCF variables                       ... done
                      ------------------
                      INITIAL GUESS DONE (   5.5 sec)
                      ------------------
             **** ENERGY FILE WAS UPDATED (product_optfreq.en.tmp) ****
Finished Guess after   5.8 sec
Maximum memory used throughout the entire GUESS-calculation: 7.7 MB


           ************************************************************
           *        Program running with 8 parallel MPI-processes     *
           *              working on a common directory               *
           ************************************************************

-------------------------------------------------------------------------------------------
                                      ORCA LEAN-SCF
                              memory conserving SCF solver
-------------------------------------------------------------------------------------------

----------------------------------------D-I-I-S--------------------------------------------
Iteration    Energy (Eh)           Delta-E    RMSDP     MaxDP     DIISErr   Damp  Time(sec)
-------------------------------------------------------------------------------------------
               ***  Starting incremental Fock matrix formation  ***
    1    -2911.7168265743262054     0.00e+00  1.37e-02  1.56e-01  6.01e-01  0.700   0.6
    2    -2911.7856084369564087    -6.88e-02  1.04e-02  1.09e-01  4.03e-01  0.700   0.2
    3    -2911.8166103968792413    -3.10e-02  5.94e-03  4.99e-02  2.71e-01  0.700   0.4
                               ***Turning on AO-DIIS***
    4    -2911.8339140596804100    -1.73e-02  2.84e-03  2.15e-02  1.85e-01  0.700   0.4
    5    -2911.8457405170629499    -1.18e-02  1.50e-03  1.33e-02  1.32e-01  0.700   0.2
    6    -2911.8541496465281853    -8.41e-03  8.59e-04  7.56e-03  9.39e-02  0.700   0.4
    7    -2911.8602335375749135    -6.08e-03  2.54e-03  2.02e-02  6.60e-02  0.000   0.5
    8    -2911.8743927921591421    -1.42e-02  5.45e-04  3.72e-03  6.01e-03  0.000   0.5
                              *** Initializing SOSCF ***
---------------------------------------S-O-S-C-F--------------------------------------
Iteration    Energy (Eh)           Delta-E    RMSDP     MaxDP     MaxGrad    Time(sec)
--------------------------------------------------------------------------------------
    9    -2911.8744650321532390    -7.22e-05  1.98e-04  2.52e-03  1.48e-03     0.6
               *** Restarting incremental Fock matrix formation ***
   10    -2911.8744704514492696    -5.42e-06  1.33e-04  1.20e-03  2.69e-04     0.4
   11    -2911.8744699347575988     5.17e-07  6.92e-05  5.33e-04  4.09e-04     0.4
   12    -2911.8744710940140976    -1.16e-06  2.93e-05  2.94e-04  5.46e-05     0.2
   13    -2911.8744710865298657     7.48e-09  1.84e-05  1.81e-04  5.85e-05     0.2
                 **** Energy Check signals convergence ****

               *****************************************************
               *                     SUCCESS                       *
               *           SCF CONVERGED AFTER  13 CYCLES          *
               *****************************************************

             **** ENERGY FILE WAS UPDATED (product_optfreq.en.tmp) ****

----------------
TOTAL SCF ENERGY
----------------

Total Energy       :      -2911.87447112639074 Eh          -79236.13265 eV

Components:
Nuclear Repulsion  :        217.03690183609385 Eh            5905.87435 eV
Electronic Energy  :      -3128.91137296248417 Eh          -85142.00699 eV
One Electron Energy:      -4598.63287006534210 Eh         -125135.16214 eV
Two Electron Energy:       1469.72149710285771 Eh           39993.15515 eV

Virial components:
Potential Energy   :      -5634.50234385503973 Eh         -153322.60355 eV
Kinetic Energy     :       2722.62787272864898 Eh           74086.47090 eV
Virial Ratio       :          2.06950880077786

DFT components:
N(Alpha)           :       34.999993263290 electrons
N(Beta)            :       34.999993263290 electrons
N(Total)           :       69.999986526580 electrons
E(X)               :     -117.300545858418 Eh       
E(C)               :       -3.075708729105 Eh       
E(XC)              :     -120.376254587523 Eh       

---------------
SCF CONVERGENCE
---------------

  Last Energy change         ...   -7.4842e-09  Tolerance :   1.0000e-08
  Last MAX-Density change    ...    1.8149e-04  Tolerance :   1.0000e-07
  Last RMS-Density change    ...    1.8415e-05  Tolerance :   5.0000e-09
  Last DIIS Error            ...    1.4822e-03  Tolerance :   5.0000e-07
  Last Orbital Gradient      ...    5.8544e-05  Tolerance :   1.0000e-05
  Last Orbital Rotation      ...    6.4829e-05  Tolerance :   1.0000e-05


----------------
ORBITAL ENERGIES
----------------

  NO   OCC          E(Eh)            E(eV) 
   0   2.0000    -482.085920    -13118.2248 
   1   2.0000     -62.157944     -1691.4036 
   2   2.0000     -55.938876     -1522.1742 
   3   2.0000     -55.935427     -1522.0803 
   4   2.0000     -55.935427     -1522.0803 
   5   2.0000      -9.937709      -270.4188 
   6   2.0000      -8.490000      -231.0247 
   7   2.0000      -6.566741      -178.6901 
   8   2.0000      -6.296234      -171.3292 
   9   2.0000      -6.284427      -171.0080 
  10   2.0000      -6.284427      -171.0080 
  11   2.0000      -4.574965      -124.4911 
  12   2.0000      -4.574130      -124.4684 
  13   2.0000      -4.574130      -124.4684 
  14   2.0000      -2.394138       -65.1478 
  15   2.0000      -2.391307       -65.0708 
  16   2.0000      -2.391307       -65.0708 
  17   2.0000      -2.382308       -64.8259 
  18   2.0000      -2.382303       -64.8257 
  19   2.0000      -1.612226       -43.8709 
  20   2.0000      -1.611977       -43.8641 
  21   2.0000      -1.611977       -43.8641 
  22   2.0000      -1.611161       -43.8419 
  23   2.0000      -1.611160       -43.8419 
  24   2.0000      -0.631766       -17.1912 
  25   2.0000      -0.499116       -13.5816 
  26   2.0000      -0.403714       -10.9856 
  27   2.0000      -0.268928        -7.3179 
  28   2.0000      -0.268854        -7.3159 
  29   2.0000      -0.227630        -6.1941 
  30   2.0000      -0.128037        -3.4841 
  31   2.0000      -0.128027        -3.4838 
  32   2.0000      -0.028752        -0.7824 
  33   2.0000      -0.028201        -0.7674 
  34   2.0000      -0.028200        -0.7674 
  35   0.0000       0.113909         3.0996 
  36   0.0000       0.233924         6.3654 
  37   0.0000       0.296735         8.0746 
  38   0.0000       0.296841         8.0774 
  39   0.0000       0.320563         8.7230 
  40   0.0000       0.320586         8.7236 
  41   0.0000       0.332243         9.0408 
  42   0.0000       0.343571         9.3491 
  43   0.0000       0.370918        10.0932 
  44   0.0000       0.370921        10.0933 
  45   0.0000       0.393497        10.7076 
*Only the first 10 virtual orbitals were printed.

                    ********************************
                    * MULLIKEN POPULATION ANALYSIS *
                    ********************************

-----------------------
MULLIKEN ATOMIC CHARGES
-----------------------
   0 C :   -0.341076
   1 H :    0.191507
   2 H :    0.191522
   3 H :    0.191543
   4 I :   -0.908139
   5 Br:   -0.325358
Sum of atomic charges:   -1.0000000

--------------------------------
MULLIKEN REDUCED ORBITAL CHARGES
--------------------------------
  0 C s       :     3.297205  s :     3.297205
      pz      :     0.746150  p :     3.017806
      px      :     1.135841
      py      :     1.135814
      dz2     :     0.009347  d :     0.026065
      dxz     :     0.004064
      dyz     :     0.004064
      dx2y2   :     0.004295
      dxy     :     0.004295

  1 H s       :     0.789084  s :     0.789084
      pz      :     0.004955  p :     0.019409
      px      :     0.003544
      py      :     0.010909

  2 H s       :     0.789064  s :     0.789064
      pz      :     0.004957  p :     0.019414
      px      :     0.009071
      py      :     0.005386

  3 H s       :     0.789033  s :     0.789033
      pz      :     0.004960  p :     0.019424
      px      :     0.009074
      py      :     0.005391

  4 I s       :     3.988757  s :     3.988757
      pz      :     3.919437  p :    11.913964
      px      :     3.997263
      py      :     3.997263
      dz2     :     2.002907  d :    10.005418
      dxz     :     2.001235
      dyz     :     2.001235
      dx2y2   :     2.000020
      dxy     :     2.000020

  5 Brs       :     7.956189  s :     7.956189
      pz      :     5.348333  p :    17.328792
      px      :     5.990228
      py      :     5.990231
      dz2     :     2.020364  d :    10.040376
      dxz     :     2.009932
      dyz     :     2.009935
      dx2y2   :     2.000073
      dxy     :     2.000073



                     *******************************
                     * LOEWDIN POPULATION ANALYSIS *
                     *******************************

----------------------
LOEWDIN ATOMIC CHARGES
----------------------
   0 C :   -0.564029
   1 H :    0.161693
   2 H :    0.161672
   3 H :    0.161624
   4 I :   -0.846244
   5 Br:   -0.074715

-------------------------------
LOEWDIN REDUCED ORBITAL CHARGES
-------------------------------
  0 C s       :     3.099868  s :     3.099868
      pz      :     0.987204  p :     3.404344
      px      :     1.208582
      py      :     1.208558
      dz2     :     0.020956  d :     0.059817
      dxz     :     0.008778
      dyz     :     0.008774
      dx2y2   :     0.010655
      dxy     :     0.010654

  1 H s       :     0.790428  s :     0.790428
      pz      :     0.010534  p :     0.047879
      px      :     0.008263
      py      :     0.029083

  2 H s       :     0.790434  s :     0.790434
      pz      :     0.010538  p :     0.047895
      px      :     0.023885
      py      :     0.013471

  3 H s       :     0.790451  s :     0.790451
      pz      :     0.010547  p :     0.047926
      px      :     0.023896
      py      :     0.013483

  4 I s       :     3.964156  s :     3.964156
      pz      :     3.880047  p :    11.867775
      px      :     3.993864
      py      :     3.993865
      dz2     :     2.008084  d :    10.014312
      dxz     :     2.003066
      dyz     :     2.003067
      dx2y2   :     2.000048
      dxy     :     2.000048

  5 Brs       :     7.732031  s :     7.732031
      pz      :     5.348832  p :    17.283568
      px      :     5.967367
      py      :     5.967369
      dz2     :     2.035031  d :    10.059116
      dxz     :     2.011958
      dyz     :     2.011962
      dx2y2   :     2.000082
      dxy     :     2.000083



                      *****************************
                      * MAYER POPULATION ANALYSIS *
                      *****************************

  NA   - Mulliken gross atomic population
  ZA   - Total nuclear charge
  QA   - Mulliken gross atomic charge
  VA   - Mayer's total valence
  BVA  - Mayer's bonded valence
  FA   - Mayer's free valence

  ATOM       NA         ZA         QA         VA         BVA        FA
  0 C      6.3411     6.0000    -0.3411     3.7932     3.7932     0.0000
  1 H      0.8085     1.0000     0.1915     0.9461     0.9461    -0.0000
  2 H      0.8085     1.0000     0.1915     0.9461     0.9461    -0.0000
  3 H      0.8085     1.0000     0.1915     0.9461     0.9461     0.0000
  4 I     25.9081    25.0000    -0.9081     0.1722     0.1722     0.0000
  5 Br    35.3254    35.0000    -0.3254     0.8918     0.8918     0.0000

  Mayer bond orders larger than 0.100000
B(  0-C ,  1-H ) :   0.9507 B(  0-C ,  2-H ) :   0.9507 B(  0-C ,  3-H ) :   0.9507 
B(  0-C ,  4-I ) :   0.1138 B(  0-C ,  5-Br) :   0.8274 

-------
TIMINGS
-------

Total SCF time: 0 days 0 hours 0 min 6 sec 

Total time                  ....       6.078 sec
Sum of individual times     ....       5.455 sec  ( 89.8%)

SCF preparation             ....       0.590 sec  (  9.7%)
Fock matrix formation       ....       4.116 sec  ( 67.7%)
  Startup                   ....       0.033 sec  (  0.8% of F)
  Split-RI-J                ....       0.646 sec  ( 15.7% of F)
  XC integration            ....       3.110 sec  ( 75.6% of F)
    XC Preparation          ....       0.000 sec  (  0.0% of XC)
    Basis function eval.    ....       0.549 sec  ( 17.7% of XC)
    Density eval.           ....       0.438 sec  ( 14.1% of XC)
    XC-Functional eval.     ....       0.490 sec  ( 15.7% of XC)
    XC-Potential eval.      ....       0.363 sec  ( 11.7% of XC)
Diagonalization             ....       0.000 sec  (  0.0%)
Density matrix formation    ....       0.126 sec  (  2.1%)
Total Energy calculation    ....       0.028 sec  (  0.5%)
Population analysis         ....       0.091 sec  (  1.5%)
Orbital Transformation      ....       0.013 sec  (  0.2%)
Orbital Orthonormalization  ....       0.000 sec  (  0.0%)
DIIS solution               ....       0.399 sec  (  6.6%)
SOSCF solution              ....       0.091 sec  (  1.5%)
Finished LeanSCF after   6.1 sec

Maximum memory used throughout the entire LEANSCF-calculation: 7.0 MB


           ************************************************************
           *        Program running with 8 parallel MPI-processes     *
           *              working on a common directory               *
           ************************************************************

------------------------------------------------------------------------------
                         ORCA PROPERTY INTEGRAL CALCULATIONS
------------------------------------------------------------------------------

GBWName                                   ... product_optfreq.gbw
Number of atoms                           ...      6
Number of basis functions                 ...    106
Max core memory                           ...   4096 MB

Dipole integrals                          ... YES
Quadrupole integrals                      ...  NO
Linear momentum integrals                 ...  NO
Angular momentum integrals                ...  NO
Higher moments length integrals           ...  NO
Higher moments velocity integrals         ...  NO
Kinetic energy integrals                  ...  NO
GIAO right hand sides                     ...  NO
GIAO dipole derivative integrals          ...  NO
SOC integrals                             ...  NO
EPR diamagnetic integrals (GIAO)          ...  NO
EPR gauge integrals                       ...  NO
Field gradient integrals                  ...  NO (   0 nuclei)
Spin-dipole/Fermi contact integrals       ...  NO (   0 nuclei)
Contact density integrals                 ...  NO (   0 nuclei)
Nucleus-orbit integrals                   ...  NO (   0 nuclei)
Geometric perturbations                   ...  NO (   6 nuclei)

Choice of electric origin   ... Center of mass
Position of electric origin ... (  0.0000,  0.0000,  1.3556) 
Choice of magnetic origin   ... GIAO
Position of magnetic origin ... (  0.0000,  0.0000,  0.0000) 

Calculating integrals                     ... Electric Dipole (Length)     done (  0.0 sec)

Property integrals calculated in   0.0 sec

Maximum memory used throughout the entire PROPINT-calculation: 7.4 MB


-------------------------------------------------------------------------------
                          DFT DISPERSION CORRECTION                            
                                                                               
                                DFTD4 V3.4.0                                   
-------------------------------------------------------------------------------
The R2SCAN3C composite method is recognized
Using three-body term ABC
Active option DFTDOPT                   ...         5   

-------------------------   ----------------
Dispersion correction           -0.001256835
-------------------------   ----------------

------------------   -----------------
gCP correction             0.003203173
------------------   -----------------

-------------------------   --------------------
FINAL SINGLE POINT ENERGY     -2911.872524787885
-------------------------   --------------------



           ************************************************************
           *        Program running with 8 parallel MPI-processes     *
           *              working on a common directory               *
           ************************************************************
------------------------------------------------------------------------------
                         ORCA SCF GRADIENT CALCULATION
------------------------------------------------------------------------------

Nuc. rep. gradient        (SHARK) ... done (  0.0 sec)
HCore & Overlap gradient  (SHARK) ... done (  0.0 sec)
ECP gradient              (SHARK) ... done (  0.2 sec)
Split-RIJ-J gradient      (SHARK) ... done (  1.1 sec)
XC gradient                       ... done (  0.2 sec)
Dispersion correction             ... done (  0.1 sec)

-------------------
DISPERSION GRADIENT
-------------------

   1   C   :    0.000000007    0.000000008   -0.000013881
   2   H   :   -0.000000000    0.000003395   -0.000007452
   3   H   :    0.000002943   -0.000001700   -0.000007452
   4   H   :   -0.000002949   -0.000001703   -0.000007450
   5   I   :   -0.000000000   -0.000000000    0.000107517
   6   Br  :   -0.000000000   -0.000000000   -0.000071282

Difference to translation invariance:
           :    0.0000000000    0.0000000000   -0.0000000000

Difference to rotation invariance:
           :    0.0000000000    0.0000000000   -0.0000000000

Norm of the Dispersion gradient    ...    0.0001305183
RMS gradient                       ...    0.0000307635
MAX gradient                       ...    0.0001075173
gCP correction                   ... done

------------------
CARTESIAN GRADIENT
------------------

   1   C   :   -0.000166689   -0.000208071   -0.007970375
   2   H   :    0.000007096   -0.002522486   -0.000808672
   3   H   :   -0.002266053    0.001328320   -0.000833562
   4   H   :    0.002420579    0.001409354   -0.000881932
   5   I   :    0.000000297   -0.000012972   -0.009487236
   6   Br  :    0.000004770    0.000005854    0.019981776

Difference to translation invariance:
           :   -0.0000000000    0.0000000000   -0.0000000002

Difference to rotation invariance:
           :    0.0000643269    0.0000000505   -0.0000000119

Norm of the Cartesian gradient     ...    0.0240023267
RMS gradient                       ...    0.0056574027
MAX gradient                       ...    0.0199817764

-------
TIMINGS
-------

Total SCF gradient time     ....        1.608 sec

Densities                   ....       0.000 sec  (  0.0%)
One electron gradient       ....       0.008 sec  (  0.5%)
RI-J Coulomb gradient       ....       1.101 sec  ( 68.5%)
XC gradient                 ....       0.206 sec  ( 12.8%)

Maximum memory used throughout the entire SCFGRAD-calculation: 27.3 MB
------------------------------------------------------------------------------
                         ORCA GEOMETRY RELAXATION STEP
------------------------------------------------------------------------------

Reading the OPT-File                    .... done
Getting information on internals        .... done
Copying old internal coords+grads       .... done
Making the new internal coordinates     .... (2022 redundants) done
Validating the new internal coordinates .... (2022 redundants) done
Calculating the B-matrix                .... done
Calculating the G,G- and P matrices     .... done
Transforming gradient to internals      .... done
Projecting the internal gradient        .... done
Number of atoms                         ....   6
Number of internal coordinates          ....  17
Current Energy                          .... -2911.872524788 Eh
Current gradient norm                   ....     0.024002327 Eh/bohr
Maximum allowed component of the step   ....  0.300
Current trust radius                    ....  0.300
Evaluating the initial hessian          ....  (Almloef) done
Projecting the Hessian                  .... done
Forming the augmented Hessian           .... done
Diagonalizing the augmented Hessian     .... done
Last element of RFO vector              ....  0.936108986
Lowest eigenvalues of augmented Hessian:
 -0.003558925  0.011806588  0.042405954  0.042420067  0.191091427
Length of the computed step             ....  0.375714864
Warning: the length of the step is outside the trust region - taking restricted step instead
The input lambda is                     ....     0.009000
   iter:   5  x=    0.002773  g=  406.124896 f(x)=     0.923147
   iter:  10  x=   -0.007214  g=    9.902465 f(x)=     0.001012
The output lambda is                    ....    -0.007215 (13 iterations)
The final length of the internal step   ....  0.300000000
Converting the step to Cartesian space:
 Initial RMS(Int)=    0.0727606875
Transforming coordinates:
 Iter   0:  RMS(Cart)=    0.0408138325 RMS(Int)=    0.0728262630
done
Storing new coordinates                 .... done

                                .--------------------.
          ----------------------|Geometry convergence|-------------------------
          Item                value                   Tolerance       Converged
          ---------------------------------------------------------------------
          RMS gradient        0.0052281637            0.0001000000      NO
          MAX gradient        0.0199817762            0.0003000000      NO
          RMS step            0.0727606875            0.0020000000      NO
          MAX step            0.1608091197            0.0040000000      NO
          -------------------------------------------------------------------------
          ........................................................
          Max(Bonds)      0.0851      Max(Angles)    0.37
          Max(Dihed)        0.00      Max(Improp)    0.00
          ---------------------------------------------------------------------

The optimization has not yet converged - more geometry cycles are needed


    ---------------------------------------------------------------------------
                         Redundant Internal Coordinates
                            (Angstroem and degrees)

        Definition                    Value    dE/dq     Step     New-Value
    ----------------------------------------------------------------------------
     1. B(H   1,C   0)                1.0803 -0.002570  0.0035    1.0839   
     2. B(H   2,C   0)                1.0802 -0.002675  0.0037    1.0839   
     3. B(H   3,C   0)                1.0800 -0.002856  0.0039    1.0839   
     4. B(I   4,H   2)                3.0064 -0.001772  0.0733    3.0798   
     5. B(I   4,H   3)                3.0064 -0.001773  0.0733    3.0797   
     6. B(I   4,H   1)                3.0065 -0.001755  0.0732    3.0796   
     7. B(I   4,C   0)                3.1479 -0.004508  0.0851    3.2330   
     8. B(Br  5,C   0)                1.9712 -0.019982  0.0414    2.0126   
     9. A(H   1,C   0,H   3)          111.43  0.001169   -0.33    111.10   
    10. A(H   2,C   0,H   3)          111.44  0.001192   -0.34    111.10   
    11. A(H   1,C   0,Br  5)          107.43 -0.001274    0.36    107.79   
    12. A(H   2,C   0,Br  5)          107.43 -0.001281    0.36    107.80   
    13. A(H   3,C   0,Br  5)          107.44 -0.001257    0.36    107.80   
    14. A(H   1,C   0,I   4)           72.57  0.001273   -0.37     72.20   
    15. A(H   2,C   0,I   4)           72.56  0.001268   -0.36     72.21   
    16. A(H   3,C   0,I   4)           72.56  0.001271   -0.36     72.20   
    17. A(H   1,C   0,H   2)          111.42  0.001152   -0.33    111.09   
    ----------------------------------------------------------------------------

Geometry step timings:
Preparation and reading OPT file:      0.000 s ( 2.601 %)
Internal coordinates            :      0.000 s ( 3.049 %)
B/P matrices and projection     :      0.000 s (10.448 %)
Hessian update/contruction      :      0.001 s (32.915 %)
Making the step                 :      0.000 s (14.305 %)
Converting the step to Cartesian:      0.000 s ( 3.363 %)
Storing new data                :      0.000 s ( 6.368 %)
Checking convergence            :      0.000 s ( 6.143 %)
Final printing                  :      0.000 s (20.493 %)
Total time                      :      0.002 s

Time for energy+gradient        :     18.099 s
Time for complete geometry iter :     18.992 s

         *************************************************************
         *                GEOMETRY OPTIMIZATION CYCLE   2            *
         *************************************************************
---------------------------------
CARTESIAN COORDINATES (ANGSTROEM)
---------------------------------
  C      0.000001   -0.000043   -0.388961
  H      0.000073    1.031950   -0.057618
  H      0.893803   -0.515999   -0.057676
  H     -0.893742   -0.516048   -0.057642
  I      0.000005    0.000140    2.844021
  Br     0.000028    0.000168   -2.401562

----------------------------
CARTESIAN COORDINATES (A.U.)
----------------------------
  NO LB      ZA    FRAG     MASS         X           Y           Z
   0 C     6.0000    0    12.011    0.000001   -0.000082   -0.735030
   1 H     1.0000    0     1.008    0.000138    1.950103   -0.108882
   2 H     1.0000    0     1.008    1.689043   -0.975096   -0.108992
   3 H     1.0000    0     1.008   -1.688928   -0.975190   -0.108928
   4 I    25.0000*   0   126.900    0.000009    0.000265    5.374421
   5 Br   35.0000    0    79.900    0.000052    0.000317   -4.538295
* core charge reduced due to ECP

--------------------------------
INTERNAL COORDINATES (ANGSTROEM)
--------------------------------
 C      0   0   0     0.000000000000     0.00000000     0.00000000
 H      1   0   0     1.083881516999     0.00000000     0.00000000
 H      1   2   0     1.083901574685   111.08415828     0.00000000
 H      1   2   3     1.083886512736   111.09330449   124.20511286
 I      2   1   3     3.079633365833    88.22516247   297.89362582
 Br     1   2   3     2.012600948525   107.79430769   242.10724763

---------------------------
INTERNAL COORDINATES (A.U.)
---------------------------
 C      0   0   0     0.000000000000     0.00000000     0.00000000
 H      1   0   0     2.048239228747     0.00000000     0.00000000
 H      1   2   0     2.048277132281   111.08415828     0.00000000
 H      1   2   3     2.048248669321   111.09330449   124.20511286
 I      2   1   3     5.819663654311    88.22516247   297.89362582
 Br     1   2   3     3.803264609583   107.79430769   242.10724763



           ************************************************************
           *        Program running with 8 parallel MPI-processes     *
           *              working on a common directory               *
           ************************************************************
------------------------------------------------------------------------------
                   ___                                                        
                  /   \      - P O W E R E D   B Y -                         
                 /     \                                                     
                 |  |  |   _    _      __       _____    __    __             
                 |  |  |  | |  | |    /  \     |  _  \  |  |  /  |          
                  \  \/   | |  | |   /    \    | | | |  |  | /  /          
                 / \  \   | |__| |  /  /\  \   | |_| |  |  |/  /          
                |  |  |   |  __  | /  /__\  \  |    /   |      \           
                |  |  |   | |  | | |   __   |  |    \   |  |\   \          
                \     /   | |  | | |  |  |  |  | |\  \  |  | \   \       
                 \___/    |_|  |_| |__|  |__|  |_| \__\ |__|  \__/        
                                                                              
                      - O R C A' S   B I G   F R I E N D -                    
                                      &                                       
                       - I N T E G R A L  F E E D E R -                       
                                                                              
 v1 FN, 2020, v2 2021, v3 2022-2024                                           
------------------------------------------------------------------------------


----------------------
SHARK INTEGRAL PACKAGE
----------------------

Number of atoms                             ...      6
Number of basis functions                   ...    106
Number of shells                            ...     46
Maximum angular momentum                    ...      2
Integral batch strategy                     ... SHARK/LIBINT Hybrid
RI-J (if used) integral strategy            ... SPLIT-RIJ (Revised 2003 algorithm where possible)
Printlevel                                  ...      1
Contraction scheme used                     ... SEGMENTED contraction
Prescreening option                         ... SCHWARTZ
   Thresh                                   ... 2.500e-11
   Tcut                                     ... 2.500e-12
   Tpresel                                  ... 2.500e-12 
Coulomb Range Separation                    ... NOT USED
Exchange Range Separation                   ... NOT USED
Multipole approximations                    ... NOT USED
Finite Nucleus Model                        ... NOT USED
CABS basis                                  ... NOT available
Auxiliary Coulomb fitting basis             ... AVAILABLE
   # of basis functions in Aux-J            ...    179
   # of shells in Aux-J                     ...     63
   Maximum angular momentum in Aux-J        ...      4
Auxiliary J/K fitting basis                 ... NOT available
Auxiliary Correlation fitting basis         ... NOT available
Auxiliary 'external' fitting basis          ... NOT available

Checking pre-screening integrals            ... done (  0.0 sec) Dimension = 46
   => SHARK Basis and OBASIS are compatible. Storing Pre-screening
Shell pair information
Shell pair cut-off parameter TPreSel        ...   2.5e-12
Total number of shell pairs                 ...      1081
Shell pairs after pre-screening             ...       954
Total number of primitive shell pairs       ...      5082
Primitive shell pairs kept                  ...      3333
          la=0 lb=0:    239 shell pairs
          la=1 lb=0:    327 shell pairs
          la=1 lb=1:    125 shell pairs
          la=2 lb=0:    138 shell pairs
          la=2 lb=1:    101 shell pairs
          la=2 lb=2:     24 shell pairs

Checking whether 4 symmetric matrices of dimension 106 fit in memory
:Max Core in MB      =   4096.00
 MB in use           =      4.71
 MB left             =   4091.29
 MB needed           =      0.17
 Data fit in memory  = YES
Calculating RI/J V-Matrix + Cholesky decomp.... done (  0.1 sec)
Calculating Nuclear repulsion               ... done (  0.0 sec) ENN=    212.296964866377 Eh

Diagonalization of the overlap matrix:
Smallest eigenvalue                        ... 4.855e-03
Time for diagonalization                   ...    0.001 sec
Threshold for overlap eigenvalues          ... 1.000e-07
Number of eigenvalues below threshold      ... 0
Time for construction of square roots      ...    0.001 sec
Total time needed                          ...    0.003 sec

-------------------
DFT GRID GENERATION
-------------------

General Integration Accuracy     IntAcc      ... 4.388
Radial Grid Type                 RadialGrid  ... OptM3 with GC (2021)
Angular Grid (max. ang.)         AngularGrid ... 4 (Lebedev-302)
Angular grid pruning method      GridPruning ... 4 (adaptive)
Weight generation scheme         WeightScheme... mBecke (2022)
Basis function cutoff            BFCut       ... 1.0000e-11
Integration weight cutoff        WCut        ... 1.0000e-14
Partially contracted basis set               ... off
Rotationally invariant grid construction     ... off
Angular grids for H and He will be reduced by one unit
Core-polarized basis detected: some atoms will have their core
                               angular grid increased.

Total number of grid points                  ...    38834
Total number of batches                      ...      611
Average number of points per batch           ...       63
Average number of grid points per atom       ...     6472
Grids setup in   1.2 sec
Initializing property integral containers    ... done (  0.0 sec)

SHARK setup successfully completed in   1.6 seconds

Maximum memory used throughout the entire STARTUP-calculation: 14.1 MB


           ************************************************************
           *        Program running with 8 parallel MPI-processes     *
           *              working on a common directory               *
           ************************************************************
Occupation numbers will be reassigned to an Aufbau configuration
             **** ENERGY FILE WAS UPDATED (product_optfreq.en.tmp) ****
Finished Guess after   0.5 sec
Maximum memory used throughout the entire GUESS-calculation: 7.3 MB


           ************************************************************
           *        Program running with 8 parallel MPI-processes     *
           *              working on a common directory               *
           ************************************************************
----------------------------------------D-I-I-S--------------------------------------------
Iteration    Energy (Eh)           Delta-E    RMSDP     MaxDP     DIISErr   Damp  Time(sec)
-------------------------------------------------------------------------------------------
               ***  Starting incremental Fock matrix formation  ***
    1    -2911.8761691323347804     0.00e+00  3.06e-04  1.77e-03  7.85e-03  0.700   0.5
    2    -2911.8762524503313216    -8.33e-05  3.19e-04  2.29e-03  5.63e-03  0.700   0.5
                               ***Turning on AO-DIIS***
    3    -2911.8763130659713170    -6.06e-05  2.77e-04  2.21e-03  3.82e-03  0.700   0.4
                              *** Initializing SOSCF ***
---------------------------------------S-O-S-C-F--------------------------------------
Iteration    Energy (Eh)           Delta-E    RMSDP     MaxDP     MaxGrad    Time(sec)
--------------------------------------------------------------------------------------
    4    -2911.8763552483683270    -4.22e-05  7.26e-04  6.06e-03  2.92e-03     0.6
               *** Restarting incremental Fock matrix formation ***
    5    -2911.8764553219757545    -1.00e-04  9.99e-05  7.12e-04  2.61e-04     0.5
    6    -2911.8764544963396474     8.26e-07  5.07e-05  2.84e-04  4.85e-04     0.5
    7    -2911.8764558485522684    -1.35e-06  7.74e-06  7.69e-05  1.56e-05     0.4
    8    -2911.8764558505290552    -1.98e-09  4.14e-06  4.01e-05  1.57e-05     0.5
                 **** Energy Check signals convergence ****

               *****************************************************
               *                     SUCCESS                       *
               *           SCF CONVERGED AFTER   8 CYCLES          *
               *****************************************************

             **** ENERGY FILE WAS UPDATED (product_optfreq.en.tmp) ****

----------------
TOTAL SCF ENERGY
----------------

Total Energy       :      -2911.87645585365317 Eh          -79236.18665 eV

Components:
Nuclear Repulsion  :        212.29696486637670 Eh            5776.89411 eV
Electronic Energy  :      -3124.17342072002975 Eh          -85013.08076 eV
One Electron Energy:      -4589.07123122238409 Eh         -124874.97672 eV
Two Electron Energy:       1464.89781050235433 Eh           39861.89596 eV

Virial components:
Potential Energy   :      -5634.42331337521773 Eh         -153320.45302 eV
Kinetic Energy     :       2722.54685752156456 Eh           74084.26636 eV
Virial Ratio       :          2.06954135529717

DFT components:
N(Alpha)           :       34.999990455687 electrons
N(Beta)            :       34.999990455687 electrons
N(Total)           :       69.999980911375 electrons
E(X)               :     -117.281604764149 Eh       
E(C)               :       -3.073194551792 Eh       
E(XC)              :     -120.354799315941 Eh       

---------------
SCF CONVERGENCE
---------------

  Last Energy change         ...    1.9768e-09  Tolerance :   1.0000e-08
  Last MAX-Density change    ...    4.0065e-05  Tolerance :   1.0000e-07
  Last RMS-Density change    ...    4.1364e-06  Tolerance :   5.0000e-09
  Last DIIS Error            ...    2.9209e-03  Tolerance :   5.0000e-07
  Last Orbital Gradient      ...    1.5705e-05  Tolerance :   1.0000e-05
  Last Orbital Rotation      ...    2.1433e-05  Tolerance :   1.0000e-05


Total SCF time: 0 days 0 hours 0 min 5 sec 
Finished LeanSCF after   5.1 sec

Maximum memory used throughout the entire LEANSCF-calculation: 7.0 MB


           ************************************************************
           *        Program running with 8 parallel MPI-processes     *
           *              working on a common directory               *
           ************************************************************

------------------------------------------------------------------------------
                         ORCA PROPERTY INTEGRAL CALCULATIONS
------------------------------------------------------------------------------

GBWName                                   ... product_optfreq.gbw
Number of atoms                           ...      6
Number of basis functions                 ...    106
Max core memory                           ...   4096 MB

Dipole integrals                          ... YES
Quadrupole integrals                      ...  NO
Linear momentum integrals                 ...  NO
Angular momentum integrals                ...  NO
Higher moments length integrals           ...  NO
Higher moments velocity integrals         ...  NO
Kinetic energy integrals                  ...  NO
GIAO right hand sides                     ...  NO
GIAO dipole derivative integrals          ...  NO
SOC integrals                             ...  NO
EPR diamagnetic integrals (GIAO)          ...  NO
EPR gauge integrals                       ...  NO
Field gradient integrals                  ...  NO (   0 nuclei)
Spin-dipole/Fermi contact integrals       ...  NO (   0 nuclei)
Contact density integrals                 ...  NO (   0 nuclei)
Nucleus-orbit integrals                   ...  NO (   0 nuclei)
Geometric perturbations                   ...  NO (   6 nuclei)

Choice of electric origin   ... Center of mass
Position of electric origin ... (  0.0000,  0.0003,  1.3985) 
Choice of magnetic origin   ... GIAO
Position of magnetic origin ... (  0.0000,  0.0000,  0.0000) 

Calculating integrals                     ... Electric Dipole (Length)     done (  0.1 sec)

Property integrals calculated in   0.1 sec

Maximum memory used throughout the entire PROPINT-calculation: 7.3 MB


-------------------------------------------------------------------------------
                          DFT DISPERSION CORRECTION                            
                                                                               
                                DFTD4 V3.4.0                                   
-------------------------------------------------------------------------------
-------------------------   ----------------
Dispersion correction           -0.001234315
-------------------------   ----------------

------------------   -----------------
gCP correction             0.002990397
------------------   -----------------

-------------------------   --------------------
FINAL SINGLE POINT ENERGY     -2911.874699770879
-------------------------   --------------------



           ************************************************************
           *        Program running with 8 parallel MPI-processes     *
           *              working on a common directory               *
           ************************************************************
------------------------------------------------------------------------------
                         ORCA SCF GRADIENT CALCULATION
------------------------------------------------------------------------------

Nuc. rep. gradient        (SHARK) ... done (  0.0 sec)
HCore & Overlap gradient  (SHARK) ... done (  0.1 sec)
ECP gradient              (SHARK) ... done (  0.2 sec)
Split-RIJ-J gradient      (SHARK) ... done (  1.5 sec)
XC gradient                       ... done (  0.4 sec)
Dispersion correction             ... done (  0.0 sec)

-------------------
DISPERSION GRADIENT
-------------------

   1   C   :    0.000000001   -0.000000002   -0.000014571
   2   H   :   -0.000000000    0.000003337   -0.000008175
   3   H   :    0.000002890   -0.000001670   -0.000008177
   4   H   :   -0.000002891   -0.000001670   -0.000008176
   5   I   :   -0.000000001    0.000000003    0.000108320
   6   Br  :    0.000000000    0.000000002   -0.000069220

Difference to translation invariance:
           :   -0.0000000000    0.0000000000    0.0000000000

Difference to rotation invariance:
           :    0.0000000000   -0.0000000000    0.0000000000

Norm of the Dispersion gradient    ...    0.0001302723
RMS gradient                       ...    0.0000307055
MAX gradient                       ...    0.0001083195
gCP correction                   ... done

------------------
CARTESIAN GRADIENT
------------------

   1   C   :   -0.000020386   -0.000030351   -0.005439352
   2   H   :    0.000008155   -0.001194614    0.001562817
   3   H   :   -0.001035819    0.000616795    0.001579414
   4   H   :    0.001046340    0.000613451    0.001577222
   5   I   :   -0.000000088   -0.000009638   -0.005305710
   6   Br  :    0.000001797    0.000004357    0.006025610

Difference to translation invariance:
           :   -0.0000000000   -0.0000000000    0.0000000002

Difference to rotation invariance:
           :    0.0000236740    0.0000000278    0.0000000046

Norm of the Cartesian gradient     ...    0.0102870204
RMS gradient                       ...    0.0024246740
MAX gradient                       ...    0.0060256098

-------
TIMINGS
-------

Total SCF gradient time     ....        2.296 sec

Densities                   ....       0.000 sec  (  0.0%)
One electron gradient       ....       0.085 sec  (  3.7%)
RI-J Coulomb gradient       ....       1.499 sec  ( 65.3%)
XC gradient                 ....       0.399 sec  ( 17.4%)

Maximum memory used throughout the entire SCFGRAD-calculation: 27.2 MB
------------------------------------------------------------------------------
                         ORCA GEOMETRY RELAXATION STEP
------------------------------------------------------------------------------

Reading the OPT-File                    .... done
Getting information on internals        .... done
Copying old internal coords+grads       .... done
Making the new internal coordinates     .... (2022 redundants) done
Validating the new internal coordinates .... (2022 redundants) done
Calculating the B-matrix                .... done
Calculating the G,G- and P matrices     .... done
Transforming gradient to internals      .... done
Projecting the internal gradient        .... done
Number of atoms                         ....   6
Number of internal coordinates          ....  17
Current Energy                          .... -2911.874699771 Eh
Current gradient norm                   ....     0.010287020 Eh/bohr
Maximum allowed component of the step   ....  0.300
Current trust radius                    ....  0.300
[...]



--------------------
Rotational spectrum 
--------------------
 
Rotational constants in cm-1:             5.170331             0.011345             0.011345 
Rotational constants in MHz :        155002.609454           340.113563           340.113544 

Dipole components along the rotational axes: 
x,y,z [a.u.] :    -2.123637    -0.000367     0.000004 
x,y,z [Debye]:    -5.397857    -0.000932     0.000010 

 

Dipole moment calculation done in   0.0 sec 

-----------
SCF HESSIAN
-----------

Occupied/Occupied contributions to the Hessian:
   => Occupied/Occupied contributions              ... done (  0.0 sec)
Perturbed density contributions to the Hessian:
   => Perturbed density contributions              ... done (  0.0 sec)
Explicit contributions to the Hessian:
   => Nuclear repulsion Hessian                    ... done (  0.0 sec)
   => HCore and overlap Hessian                    ... done (  0.2 sec)
   => ECP Hessian                                  ... done (  1.1 sec)
   => RI-J Hessian                                 ... done (  1.5 sec)
   => XC-Hessian                                   ... done (  1.6 sec)
   => Van der Waals-Hessian                        ... done (  0.3 sec)
   => GCP-Hessian                                  ... done (  0.1 sec)
   => Explicit contributions done
Dipole derivatives                                 ... done (  0.0 sec)
Mass weighting the Hessian           ... done
Calculating normal modes             ... done
Scaling frequencies                  ... done

-----------------------
VIBRATIONAL FREQUENCIES
-----------------------

Scaling factor for frequencies =  1.000000000  (already applied!)

     0:       0.00 cm**-1
     1:       0.00 cm**-1
     2:       0.00 cm**-1
     3:       0.00 cm**-1
     4:       0.00 cm**-1
     5:       0.00 cm**-1
     6:      64.62 cm**-1
     7:      82.25 cm**-1
     8:      82.30 cm**-1
     9:     443.54 cm**-1
    10:     913.70 cm**-1
    11:     914.08 cm**-1
    12:    1249.83 cm**-1
    13:    1444.89 cm**-1
    14:    1444.93 cm**-1
    15:    3103.12 cm**-1
    16:    3247.15 cm**-1
    17:    3248.20 cm**-1


------------
NORMAL MODES
------------

These modes are the Cartesian displacements weighted by the diagonal matrix
M(i,i)=1/sqrt(m[i]) where m[i] is the mass of the displaced atom
Thus, these vectors are normalized but *not* orthogonal

                  0          1          2          3          4          5    
      0       0.000000   0.000000   0.000000   0.000000   0.000000   0.000000
      1       0.000000   0.000000   0.000000   0.000000   0.000000   0.000000
      2       0.000000   0.000000   0.000000   0.000000   0.000000   0.000000
      3       0.000000   0.000000   0.000000   0.000000   0.000000   0.000000
      4       0.000000   0.000000   0.000000   0.000000   0.000000   0.000000
      5       0.000000   0.000000   0.000000   0.000000   0.000000   0.000000
      6       0.000000   0.000000   0.000000   0.000000   0.000000   0.000000
      7       0.000000   0.000000   0.000000   0.000000   0.000000   0.000000
      8       0.000000   0.000000   0.000000   0.000000   0.000000   0.000000
      9       0.000000   0.000000   0.000000   0.000000   0.000000   0.000000
     10       0.000000   0.000000   0.000000   0.000000   0.000000   0.000000
     11       0.000000   0.000000   0.000000   0.000000   0.000000   0.000000
     12       0.000000   0.000000   0.000000   0.000000   0.000000   0.000000
     13       0.000000   0.000000   0.000000   0.000000   0.000000   0.000000
     14       0.000000   0.000000   0.000000   0.000000   0.000000   0.000000
     15       0.000000   0.000000   0.000000   0.000000   0.000000   0.000000
     16       0.000000   0.000000   0.000000   0.000000   0.000000   0.000000
     17       0.000000   0.000000   0.000000   0.000000   0.000000   0.000000
                  6          7          8          9         10         11    
      0      -0.000025   0.001361   0.423866  -0.000004   0.000272  -0.098102
      1      -0.006829   0.423780  -0.001362   0.000276   0.098120   0.000272
      2       0.444705   0.000997  -0.000003  -0.671740  -0.000097   0.000000
      3      -0.000029   0.001595   0.488554  -0.000003  -0.000580   0.209928
      4      -0.003929   0.498863  -0.001603  -0.067512  -0.124667  -0.000346
      5       0.424168  -0.242429   0.000779  -0.416819   0.775638   0.002152
      6       0.003734  -0.003514   0.495010  -0.058587  -0.037479   0.145454
      7      -0.010166   0.489747  -0.007993   0.034205  -0.187999   0.036848
      8       0.417447   0.121846  -0.210894  -0.416369  -0.385293  -0.672289
      9      -0.003792   0.006669   0.494979   0.058582   0.036668   0.145665
     10      -0.010167   0.489834   0.004846   0.034205  -0.187792  -0.037889
     11       0.417422   0.123199   0.210108  -0.416369  -0.389017   0.670141
     12       0.000002  -0.000066  -0.020520   0.000000   0.000000  -0.000011
     13       0.000320  -0.020517   0.000066  -0.000004   0.000009   0.000000
     14      -0.314968  -0.000562  -0.000000  -0.002400   0.000007   0.000000
     15       0.000002  -0.000160  -0.049780   0.000001  -0.000023   0.008443
     16       0.000824  -0.049770   0.000160  -0.000046  -0.008450  -0.000023
     17       0.417509   0.000710   0.000001   0.120555  -0.000014  -0.000000
                 12         13         14         15         16         17    
      0       0.000000   0.073399   0.000420   0.000001  -0.000052  -0.097309
      1       0.000093   0.000420  -0.073427  -0.000133   0.097314  -0.000052
      2       0.089917  -0.000000   0.000059   0.036589   0.000100   0.000001
      3      -0.000000  -0.761489  -0.004356  -0.000000  -0.000010  -0.018873
      4       0.165929   0.000723  -0.126304  -0.557688  -0.783122   0.000415
      5      -0.550007  -0.001477   0.258348  -0.144293  -0.218783   0.000116
      6       0.142999  -0.097775   0.384166  -0.484132   0.346732   0.582005
      7      -0.083284  -0.387452   0.537349   0.279635  -0.181432  -0.347027
      8      -0.550936  -0.223949  -0.130986  -0.144359   0.108889   0.188727
      9      -0.143002  -0.093371  -0.385261   0.484121  -0.346107   0.582383
     10      -0.083286   0.381278   0.541748   0.279629  -0.181060   0.347225
     11      -0.550933   0.225432  -0.128412  -0.144360   0.108690  -0.188851
     12      -0.000000   0.000078   0.000000  -0.000000   0.000000   0.000013
     13       0.000001   0.000000  -0.000078   0.000000  -0.000013   0.000000
     14       0.000300  -0.000000   0.000001   0.000041  -0.000000   0.000000
     15       0.000000   0.000861   0.000005  -0.000000   0.000000   0.000156
     16      -0.000008   0.000005  -0.000858   0.000000  -0.000155   0.000000
     17       0.006846  -0.000000   0.000003  -0.000103   0.000000  -0.000000


-----------
IR SPECTRUM
-----------

 Mode   freq       eps      Int      T**2         TX        TY        TZ
       cm**-1   L/(mol*cm) km/mol    a.u.
----------------------------------------------------------------------------
  6:     64.62   0.002199   11.11  0.010621  (-0.000001 -0.000346  0.103058)
  7:     82.25   0.000780    3.94  0.002959  ( 0.000175  0.054390  0.000640)
  8:     82.30   0.000779    3.94  0.002954  ( 0.054348 -0.000175 -0.000002)
  9:    443.54   0.062425  315.47  0.043921  ( 0.000000  0.000050 -0.209573)
 10:    913.70   0.000580    2.93  0.000198  (-0.000039 -0.014071 -0.000089)
 11:    914.08   0.000583    2.95  0.000199  ( 0.014105 -0.000039  0.000000)
 12:   1249.83   0.006910   34.92  0.001725  ( 0.000000 -0.000031  0.041538)
 13:   1444.89   0.001343    6.79  0.000290  (-0.017029 -0.000098 -0.000000)
 14:   1444.93   0.001356    6.85  0.000293  (-0.000097  0.017113  0.000104)
 15:   3103.12   0.000621    3.14  0.000062  ( 0.000000 -0.000061  0.007900)
 16:   3247.15   0.000154    0.78  0.000015  ( 0.000002 -0.003847  0.000002)
 17:   3248.20   0.000163    0.82  0.000016  ( 0.003959  0.000002 -0.000000)

* The epsilon (eps) is given for a Dirac delta lineshape.
** The dipole moment derivative (T) already includes vibrational overlap.

The first frequency considered to be a vibration is 6
The total number of vibrations considered is 12


--------------------------
THERMOCHEMISTRY AT 298.15K
--------------------------

Temperature         ...   298.15 K
Pressure            ...     1.00 atm
Total Mass          ...   221.84 AMU
Quasi RRHO          ...     True
Cut-Off Frequency   ...     1.00 cm^-1

Throughout the following assumptions are being made:
  (1) The electronic state is orbitally nondegenerate
  (2) There are no thermally accessible electronically excited states
  (3) Hindered rotations indicated by low frequency modes are not
      treated as such but are treated as vibrations and this may
      cause some error
  (4) All equations used are the standard statistical mechanics
      equations for an ideal gas
  (5) All vibrations are strictly harmonic

freq.      64.62  E(vib)   ...       0.50 
freq.      82.25  E(vib)   ...       0.48 
freq.      82.30  E(vib)   ...       0.48 
freq.     443.54  E(vib)   ...       0.17 
freq.     913.70  E(vib)   ...       0.03 
freq.     914.08  E(vib)   ...       0.03 
freq.    1249.83  E(vib)   ...       0.01 
freq.    1444.89  E(vib)   ...       0.00 
freq.    1444.93  E(vib)   ...       0.00 
freq.    3103.12  E(vib)   ...       0.00 
freq.    3247.15  E(vib)   ...       0.00 
freq.    3248.20  E(vib)   ...       0.00 

------------
INNER ENERGY
------------

The inner energy is: U= E(el) + E(ZPE) + E(vib) + E(rot) + E(trans)
    E(el)   - is the total energy from the electronic structure calculation
              = E(kin-el) + E(nuc-el) + E(el-el) + E(nuc-nuc)
    E(ZPE)  - the the zero temperature vibrational energy from the frequency calculation
    E(vib)  - the the finite temperature correction to E(ZPE) due to population
              of excited vibrational states
    E(rot)  - is the rotational thermal energy
    E(trans)- is the translational thermal energy

Summary of contributions to the inner energy U:
Electronic energy                ...  -2911.87577579 Eh
Zero point energy                ...      0.03699430 Eh      23.21 kcal/mol
Thermal vibrational correction   ...      0.00274084 Eh       1.72 kcal/mol
Thermal rotational correction    ...      0.00141627 Eh       0.89 kcal/mol
Thermal translational correction ...      0.00141627 Eh       0.89 kcal/mol
-----------------------------------------------------------------------
Total thermal energy                  -2911.83320811 Eh


Summary of corrections to the electronic energy:
(perhaps to be used in another calculation)
Total thermal correction                  0.00557338 Eh       3.50 kcal/mol
Non-thermal (ZPE) correction              0.03699430 Eh      23.21 kcal/mol
-----------------------------------------------------------------------
Total correction                          0.04256768 Eh      26.71 kcal/mol


--------
ENTHALPY
--------

The enthalpy is H = U + kB*T
                kB is Boltzmann's constant
Total thermal energy              ...  -2911.83320811 Eh 
Thermal Enthalpy correction       ...      0.00094421 Eh       0.59 kcal/mol
-----------------------------------------------------------------------
Total Enthalpy                    ...  -2911.83226390 Eh


Note: Rotational entropy computed according to Herzberg 
Infrared and Raman Spectra, Chapter V,1, Van Nostrand Reinhold, 1945 
Point Group:  Cs, Symmetry Number:   1  
Rotational constants in cm-1:     5.170335     0.011345     0.011345 

Vibrational entropy computed according to the QRRHO of S. Grimme
Chem.Eur.J. 2012 18 9955 using a reference frequency of 100.0 cm-1


-------
ENTROPY
-------

The entropy contributions are T*S = T*(S(el)+S(vib)+S(rot)+S(trans))
     S(el)   - electronic entropy
     S(vib)  - vibrational entropy
     S(rot)  - rotational entropy
     S(trans)- translational entropy
The entropies will be listed as multiplied by the temperature to get
units of energy

Electronic entropy                ...      0.00000000 Eh      0.00 kcal/mol
Vibrational entropy               ...      0.00531088 Eh      3.33 kcal/mol
Rotational entropy                ...      0.01296416 Eh      8.14 kcal/mol
Translational entropy             ...      0.01999968 Eh     12.55 kcal/mol
-----------------------------------------------------------------------
Final entropy term                ...      0.03827472 Eh     24.02 kcal/mol

In case the symmetry of your molecule has not been determined correctly
or in case you have a reason to use a different symmetry number we print 
out the resulting rotational entropy values for sn=1,12:

 non-linear molecules -----------------------------------
|  sn= 1 | S(rot)=       0.01296416 Eh      8.14 kcal/mol|
|  sn= 2 | S(rot)=       0.01230971 Eh      7.72 kcal/mol|
|  sn= 3 | S(rot)=       0.01192687 Eh      7.48 kcal/mol|
|  sn= 4 | S(rot)=       0.01165525 Eh      7.31 kcal/mol|
|  sn= 5 | S(rot)=       0.01144456 Eh      7.18 kcal/mol|
|  sn= 6 | S(rot)=       0.01127242 Eh      7.07 kcal/mol|
|  sn= 7 | S(rot)=       0.01112687 Eh      6.98 kcal/mol|
|  sn= 8 | S(rot)=       0.01100079 Eh      6.90 kcal/mol|
|  sn= 9 | S(rot)=       0.01088959 Eh      6.83 kcal/mol|
|  sn=10 | S(rot)=       0.01079011 Eh      6.77 kcal/mol|
|  sn=11 | S(rot)=       0.01070012 Eh      6.71 kcal/mol|
|  sn=12 | S(rot)=       0.01061796 Eh      6.66 kcal/mol|
 linear molecules ---------------------------------------
|  Dinfh | S(rot)=       0.00955477 Eh      6.00 kcal/mol|
|  Cinfv | S(rot)=       0.01020923 Eh      6.41 kcal/mol|
 --------------------------------------------------------


-------------------
GIBBS FREE ENERGY
-------------------

The Gibbs free energy is G = H - T*S

Total enthalpy                    ...  -2911.83226390 Eh 
Total entropy correction          ...     -0.03827472 Eh    -24.02 kcal/mol
-----------------------------------------------------------------------
Final Gibbs free energy         ...  -2911.87053862 Eh

For completeness - the Gibbs free energy minus the electronic energy
G-E(el)                           ...      0.00523717 Eh      3.29 kcal/mol


Maximum memory used throughout the entire PROP-calculation: 32.3 MB

--------------------------------
SUGGESTED CITATIONS FOR THIS RUN
--------------------------------

Below you find a list of papers that are relevant to this ORCA run
We neither can nor want to force you to cite these papers, but we appreciate if you do
You receive ORCA, which is the product of decades of hard work by many enthusiastic individuals, for free
The only thing we kindly ask in return is that you cite our papers,
We deeply appreciate it, if you show your appreciation for ORCA by not just citing the generic ORCA reference.

Please note that relegating all ORCA citations to the supporting information does *not* help us.
SI sections are not indexed - citations you put there will not count into any citation statistics
But we need these citations in order to attract the funding resources that allow us to do what we are doing

Therefore, if you are a happy ORCA user, please consider citing a few of the papers listed below in the main body of your paper

In addition to the list printed below, the program has created the file product_optfreq.bibtex that contains the list in bibtex format
You can import this file easily into all common literature databanks and citation aid programs


List of essential papers. We consider these as the minimum necessary citations

  1. Grimme, S.; Hansen, A.; Ehlert, S.; Mewes, J.
     r2SCAN-3c: A 'Swiss army knife' composite electronic-structure method
     J. Chem. Phys. 2021 154 , 064103
     doi.org/10.1063/5.0040021
  2. Neese, F.
     Software update: the ORCA program system, version 6.0
     WIRES Comput. Molec. Sci. 2025 15(1), e70019
     doi.org/10.1002/wcms.7019

List of papers to cite with high priority. The work reported in these papers was absolutely
necessary for this run to complete.
Our perspective: the developers of density functionals and basis sets usually get cited in chemistry papers
Good! But without the algorithms to do something with them, the functionals or basis sets would not do anything.
Hence, in our opinion, the algorithm design and method developments papers are equally worthy of getting cited

  1. Neese, F.
     An improvement of the resolution of the identity approximation for the formation of the Coulomb matrix
     J. Comp. Chem. 2003 24(14), 1740-1747
     doi.org/10.1002/jcc.10318
  2. Bykov, D.; Petrenko, T.; Izsak, R.; Kossmann, S.; Becker, U.; Valeev, E.; Neese, F.
     Efficient implementation of the analytic second derivatives of Hartree-Fock and hybrid DFT energies: a detailed analysis of different approximations
     Molec. Phys. 2015 113 , 1961-1977
     doi.org/10.1080/00268976.2015.1025114
  3. Caldeweyher, E.; Bannwarth, C.; Grimme, S.
     Extension of the D3 dispersion coefficient model
     J. Chem. Phys. 2017 147 , 034112
     doi.org/10.1063/1.4993215
  4. Lehtola, S.; Steigemann, C.; Oliveira, M.; Marques, M.
     Recent developments in Libxc - A comprehensive library of functionals for density functional theory
     Software X 2018 7 , 
     doi.org/10.1016/j.softx.2017.11.002
  5. Caldeweyher, E.; Ehlert, S.; Hansen, A.; Neugebauer, H.; Spicher, S.; Bannwarth, C.; Grimme, S.
     A generally applicable atomic-charge dependent London dispersion correction
     J. Chem. Phys. 2019 150 , 154122
     doi.org/10.1063/1.5090222
  6. Caldeweyher, E.; Mewes, J.; Ehlert, S.; Grimme, S.
     Extension and evaluation of the D4 London-dispersion model for periodic systems
     Phys. Chem. Chem. Phys. 2020 22(16), 8499-8512
     doi.org/10.1039/D0CP00502A
  7. Neese, F.
     The SHARK Integral Generation and Digestion System
     J. Comp. Chem. 2022 44(3), 381
     doi.org/10.1002/jcc.26942
  8. Wittmann, L.; Gordiy, I.; Friede, M.; Helmich-Paris, B.; Grimme, S.; Hansen, A.; Bursch, M.
     Extension of the D3 and D4 London Dispersion Corrections to the full Actinides Series
     Phys. Chem. Chem. Phys. 2024 26(32), 21379-21394
     doi.org/10.1039/D4CP01514B

List of suggested additional citations. These are papers that are important in the 'surrounding' of 
of this run, or papers that preceded the highly important papers. If you like your results we are grateful for a citation.

  1. Neese, F.
     The ORCA program system
     WIRES Comput. Molec. Sci. 2012 2(1), 73-78
     doi.org/10.1002/wcms.81
  2. Neese, F.
     Software update: the ORCA program system, version 4.0
     WIRES Comput. Molec. Sci. 2018 8(1), 1-6
     doi.org/10.1002/wcms.1327
  3. Neese, F.; Wennmohs, F.; Becker, U.; Riplinger, C.
     The ORCA quantum chemistry program package
     J. Chem. Phys. 2020 152(22), 224108
     doi.org/10.1063/5.0004608
  4. Neese, F.
     Software update: The ORCA program system—Version 5.0
     WIRES Comput. Molec. Sci. 2022 12(1), e1606
     doi.org/10.1002/wcms.1606

List of optional additional citations

  1. Neese, F.
     Approximate second-order SCF convergence for spin unrestricted wavefunctions
     Chem. Phys. Lett. 2000 325(1-3), 93-98
     doi.org/10.1016/s0009-2614(00)00662-x

Timings for individual modules:

Sum of individual times          ...       84.258 sec (=   1.404 min)
Startup calculation              ...       13.843 sec (=   0.231 min)  16.4 %
SCF iterations                   ...       36.160 sec (=   0.603 min)  42.9 %
Property integrals               ...       10.527 sec (=   0.175 min)  12.5 %
SCF Response                     ...        2.952 sec (=   0.049 min)   3.5 %
Property calculations            ...        5.186 sec (=   0.086 min)   6.2 %
SCF Gradient evaluation          ...       15.573 sec (=   0.260 min)  18.5 %
Geometry relaxation              ...        0.017 sec (=   0.000 min)   0.0 %
                             ****ORCA TERMINATED NORMALLY****
TOTAL RUN TIME: 0 days 0 hours 1 minutes 28 seconds 719 msec
