
                                 *****************
                                 * O   R   C   A *
                                 *****************

                                            #,                                       
                                            ###                                      
                                            ####                                     
                                            #####                                    
                                            ######                                   
                                           ########,                                 
                                     ,,################,,,,,                         
                               ,,#################################,,                 
                          ,,##########################################,,             
                       ,#########################################, ''#####,          
                    ,#############################################,,   '####,        
                  ,##################################################,,,,####,       
                ,###########''''           ''''###############################       
              ,#####''   ,,,,##########,,,,          '''####'''          '####       
            ,##' ,,,,###########################,,,                        '##       
           ' ,,###''''                  '''############,,,                           
         ,,##''                                '''############,,,,        ,,,,,,###''
      ,#''                                            '''#######################'''  
     '                                                          ''''####''''         
             ,#######,   #######,   ,#######,      ##                                
            ,#'     '#,  ##    ##  ,#'     '#,    #''#        ,####,    ,#,          
            ##       ##  ##   ,#'  ##            #'  '#       #'       ,# #          
            ##       ##  #######   ##           ,######,      #####,      #          
            '#,     ,#'  ##    ##  '#,     ,#' ,#      #,     #,   #      #          
             '#######'   ##     ##  '#######'  #'      '#     '####' #    #          



                #########################################################
                #                        -***-                          #
                #          Department of theory and spectroscopy        #
                #                                                       #
                #                      Frank Neese                      #
                #                                                       #
                #     Directorship, Architecture, Infrastructure        #
                #                    SHARK, DRIVERS                     #
                #        Core code/Algorithms in most modules           #
                #                                                       #
                #        Max Planck Institute fuer Kohlenforschung      #
                #                Kaiser Wilhelm Platz 1                 #
                #                 D-45470 Muelheim/Ruhr                 #
                #                      Germany                          #
                #                                                       #
                #                  All rights reserved                  #
                #                        -***-                          #
                #########################################################


                         Program Version 6.1.0  -  RELEASE   -
                                (GIT: $679e74b$)
                          ($2025-06-10 18:02:51 +0200$)


 With contributions from (in alphabetic order):
[Max-Planck-Institut fuer Kohlenforschung]                               
  Daniel Aravena         : Magnetic Suceptibility                        
  Michael Atanasov       : Ab Initio Ligand Field Theory (pilot matlab implementation)
  Alexander A. Auer      : GIAO ZORA, VPT2 properties, NMR spectrum      
  Ute Becker             : All parallelization in ORCA, NUMFREQ, NUMCALC 
  Giovanni Bistoni       : ED, misc. LED, open-shell LED, HFLD           
  Dmytro Bykov           : pre 5.0 version of the SCF Hessian            
  Marcos Casanova-Páez   : Triplet and SCS-CIS(D). UHF-(DLPNO)-IP/EA/STEOM-CCSD. UHF-CVS-IP/STEOM-CCSD   
  Vijay G. Chilkuri      : MRCI spin determinant printing, contributions to CSF-ICE 
  Pauline Colinet        : FMM embedding                                 
  Dipayan Datta          : RHF DLPNO-CCSD density                        
  Achintya Kumar Dutta   : EOM-CC, STEOM-CC                              
  Nicolas Foglia         : Exact transition moments, OPA infrastructure, MCD improvements    
  Dmitry Ganyushin       : Spin-Orbit,Spin-Spin,Magnetic field MRCI      
  Miquel Garcia-Rates    : C-PCM and meta-GGA Hessian, CCSD/C-PCM, Gaussian charge scheme 
  Tiago L. C. Gouveia    : GS-ROHF, GS-ROCIS                             
  Yang Guo               : DLPNO-NEVPT2, F12-NEVPT2, CIM, IAO-localization        
  Andreas Hansen         : Spin unrestricted coupled pair/coupled cluster methods 
  Ingolf Harden          : AUTO-CI MPn and infrastructure                
  Benjamin Helmich-Paris : MC-RPA, TRAH-(SCF,CASSCF), AVAS, COSX integrals, SCF dyn. polar., MC-PDFT, srDFT 
  Lee Huntington         : MR-EOM, pCC                                   
  Robert Izsak           : Overlap fitted RIJCOSX, COSX-SCS-MP3, EOM     
  Riya Kayal             : Wick's Theorem for AUTO-CI, AUTO-CI UHF-CCSDT 
  Emily Kempfer          : AUTO-CI RHF CISDT and CCSDT, approximate NEVPT4
  Christian Kollmar      : KDIIS, OOCD, Brueckner-CCSD(T), CCSD density, CASPT2, CASPT2-K, improved NEVPT2 
  Axel Koslowski         : Symmetry handling                             
  Simone Kossmann        : meta-GGA functionals, TD-DFT gradient, OOMP2, (MP2 Hessian; deprecated post 5.0) 
  Lucas Lang             : DCDCAS, Hyperfine gauge corrections, ICE-SOC+SSC
  Marvin Lechner         : AUTO-CI (C++ implementation), FIC-MRCC        
  Spencer Leger          : CASSCF response                               
  Dagmar Lenk            : GEPOL surface, SMD, ORCA-2-JSON               
  Dimitrios Liakos       : Extrapolation schemes; Compound Job, Property file
  Dimitrios Manganas     : Further ROCIS development; embedding schemes. LFT, Crystal Embedding 
  Dimitrios Pantazis     : SARC Basis sets                               
  Anastasios Papadopoulos: AUTO-CI, single reference methods and gradients 
  Taras Petrenko         : pre 6.0 DFT Hessian and TD-DFT gradient,  ECA, NRVS 
  Petra Pikulova         : Analytic Raman intensities                    
  Peter Pinski           : DLPNO-MP2, DLPNO-MP2 Gradient                 
  Shashank Vittal Rao    : ES-AILFT, MagRelax                            
  Christoph Reimann      : Effective Core Potentials                     
  Marius Retegan         : Local ZFS, SOC                                
  Christoph Riplinger    : Optimizer, TS searches, QM/MM, DLPNO-CCSD(T), (RO)-DLPNO pert. Triples 
  Michael Roemelt        : Original ROCIS implementation, recursive CI coupling coefficients
  Masaaki Saitow         : Open-shell DLPNO-CCSD energy and density      
  Barbara Sandhoefer     : DKH picture change effects                    
  Yorick L. A. Schmerwitz: GMF and freeze-and-release deltaSCF, NEB S-IDPP initial path                    
  Kantharuban Sivalingam : CASSCF convergence/infrastructure, NEVPT2, NEVPT3, NEVPT4(SD), FIC-MRCI and CEPA variants
  Bernardo de Souza      : ESD, SOC TD-DFT                               
  Georgi L. Stoychev     : AutoAux, RI-MP2 NMR, DLPNO-MP2 response, X2C  
  Van Anh Tran           : RI-MP2 g-tensors                              
  Willem Van den Heuvel  : Paramagnetic NMR                              
  Zikuan Wang            : NOTCH, Electric field optimization            
  Frank Wennmohs         : Technical directorship and infrastructure     
  Hang Xu                : AUTO-CI-Response properties                   
                                                                         
[FACCTs GmbH]                                                            
  Markus Bursch, Nicolas Foglia, Miquel Garcia-Rates, Ingolf Harden, Hagen Neugebauer, Anastasios Papadopoulos, 
  Christoph Riplinger, Bernardo de Souza, Georgi L. Stoychev                                                    
                                                                 
  APM, various basis sets, CI-OPT, improved COSX, DLPNO-Multilevel,           
  DOCKER, DRACO, updates on ESD, Fragmentator, GOAT, IRC, LR-CPCM, L-BFGS, MBIS, meta-GGA TD-DFT gradient, ML-optimized integration grids, 
  MM, NACMEs, nearIR, NEB, NEB-TS, NL-DFT gradient (VV10), 2- and 3-layer-ONIOM, interface openCOSMO-RS, QMMM,   
  Crystal-QMMM, RESP, rigid body optimization, SF, symmetry and pop. for TD-DFT, various functionals, SOLVATOR                                   
                                                                         
[Other institutions]                                                     
  V. Asgeirsson          : NEB                                           
  Christoph Bannwarth    : sTDA-DFT, sTD-DFT, PBEh-3c, B97-3c, D3        
  Giovanni Bistoni       : ETS/NOCV, ADLD/ADEX, COVALED                  
  Martin Brehm           : Molecular dynamics                            
  Ronald Cardenas        : ETS/NOCV                                      
  Martina Colucci        : COVALED                                       
  Sebastian Ehlert       : rSCAN, r2SCAN, r2SCAN-3c, D4, dhf basis sets  
  Marvin Friede          : D4 for Fr, Ra, Ac-Lr                          
  Lars Goerigk           : TD-DFT with DH, B97 family of functionals     
  Stefan Grimme          : VdW corrections, initial TS optimization, DFT functionals, gCP, sTDA/sTD-DF 
  Waldemar Hujo          : DFT-NL                                        
  H. Jonsson             : NEB                                           
  Holger Kruse           : gCP                                           
  Marcel Mueller         : wB97X-3c, vDZP basis set                      
  Hagen Neugebauer       : wr2SCAN, Native XTB                           
  Gianluca Regni         : ADLD/ADEX                                     
  Tobias Risthaus        : pre 6.0 range-separated hybrid DFT and stability analysis
  Lukas Wittmann         : regularized MP2, r2SCAN double-hybrids, wr2SCAN        
                                                                         
We gratefully acknowledge several colleagues who have allowed us to      
interface, adapt or use parts of their codes:                            
  Ed Valeev, F. Pavosevic, A. Kumar             : LibInt (2-el integral package), F12 methods 
  Garnet Chan, S. Sharma, J. Yang, R. Olivares  : DMRG                   
  Ulf Ekstrom                                   : XCFun DFT Library      
  Mihaly Kallay                                 : mrcc  (arbitrary order and MRCC methods)
  Frank Weinhold                                : gennbo (NPA and NBO analysis)           
  Simon Mueller                                 : openCOSMO-RS                            
  Christopher J. Cramer and Donald G. Truhlar   : smd solvation model                     
  S Lehtola, MJT Oliveira, MAL Marques          : LibXC Library                           
  Liviu Ungur et al                             : ANISO software                          


 Your calculation uses the libint2 library for the computation of 2-el integrals
 For citations please refer to: http://libint.valeyev.net

 Your ORCA version has been built with support for libXC version: 7.0.0
 For citations please refer to: https://libxc.gitlab.io

 This ORCA versions uses:
   CBLAS   interface :  Fast vector & matrix operations
   LAPACKE interface :  Fast linear algebra routines
   SCALAPACK package :  Parallel linear algebra routines
   Shared memory     :  Shared parallel matrices
   BLAS/LAPACK       :  OpenBLAS 0.3.29  USE64BITINT DYNAMIC_ARCH NO_AFFINITY SkylakeX SINGLE_THREADED
        Core in use  :  SkylakeX
   Copyright (c) 2011-2014, The OpenBLAS Project


  ***********************************
  * Starting time: Thu Mar 12 13:42:25 2026
  * Host name:     midway3-login4.rcc.local
  * Process ID:    3185632
  * Working dir.:  /home/rzhu16/orca_TS_search/sn2_i_br/DFT_test
  ***********************************

Your calculation utilizes the geometrical counterpoise correction gCP
Please cite in your paper:
H.Kruse, S. Grimme J.Chem.Phys., 136, (2012), 154101 
   

Your calculation utilizes the atom-pairwise dispersion correction
based on EEQ partial charges (D4)


================================================================================

cite the ECPs for I  [Def2-ECP] as follows:
Ce-Yb(ecp-28): M. Dolg, H. Stoll, H.Preuss, J. Chem. Phys., 1989, 90, 1730-1734.
Y-Cd(ecp-28), Hf-Hg(ecp-46): D. Andrae,U. Haeussermann, M. Dolg, H. Stoll, H. Preuss, Theor. Chim. Acta, 1990, 77, 123-141.
In-Sb(ecp-28), Tl-Bi(ecp-46): B. Metz, H. Stoll, M. Dolg, J. Chem. Phys., 2000, 113, 2563-2569.
Te-Xe(ecp-28), Po-Rn(ecp-46): K. A. Peterson, D. Figgen, E. Goll, H. Stoll, M. Dolg, J. Chem. Phys., 2003, 119, 11113-11123.
Rb(ecp-28), Cs(ecp-46): T. Leininger, A. Nicklass, W. Kuechle, H. Stoll, M. Dolg, A. Bergner, Chem. Phys. Lett., 1996, 255, 274-280.
Sr(ecp-28), Ba(ecp-46): M. Kaupp, P. V. Schleyer, H. Stoll and H. Preuss, J. Chem. Phys., 1991, 94, 1360-1366.
La(ecp-46): M. Dolg, H. Stoll, A. Savin, H. Preuss, Theor. Chim. Acta, 1989, 75, 173-194.
Lu(ecp-28): X. Cao, M. Dolg, J. Chem. Phys., 2001, 115, 7348-7355.
Fr-Ra(ecp-78) K. Eichkorn, F. Weigend, O. Treutler, R. Ahlrichs, Theor. Chem. Acc. 1997, 97, 119.
Ac-Lr(ecp-60) K. Eichkorn, F. Weigend, O. Treutler, R. Ahlrichs, Theor. Chem. Acc. 1997, 97, 119.

ECP parameters for I  [Def2-ECP] have been obtained from:
TURBOMOLE (7.0.2)

----- Orbital basis set information -----
Your calculation utilizes the basis: def2-mTZVPP
   Stefan Grimme, Andreas Hansen, Sebastian Ehlert, and Jan-Michael Mewes 
   J. Chem. Phys. 154, 064103 (2021). DOI: 10.1063/5.0040021

----- AuxJ basis set information -----
Your calculation utilizes the basis: def2-mTZVPP/J
   Stefan Grimme, Andreas Hansen, Sebastian Ehlert, and Jan-Michael Mewes 
   J. Chem. Phys. 154, 000000 (2021). DOI: 10.1063/5.0040021

================================================================================
                                        WARNINGS
                       Please study these warnings very carefully!
================================================================================



WARNING: SCAN, rSCAN, or r2SCAN functional requested.
  ===> : libXC variant has now been activated.



WARNING: Geometry Optimization
  ===> : Switching off AutoStart
         For restart on a previous wavefunction, please use MOREAD

================================================================================
                                       INPUT FILE
================================================================================
NAME = reactant_optfreq.inp
|  1> ! r2SCAN-3c Opt Freq PAL8 TightSCF
|  2> 
|  3> %pal
|  4>    nprocs 8
|  5> end
|  6> 
|  7> %scf
|  8>    MaxIter 150
|  9> end
| 10> 
| 11> * xyz -1 1
| 12>   C      -0.000088     -0.000182      0.315333
| 13>   H      -0.000036      1.031287      0.002302
| 14>   H       0.893023     -0.515642      0.002339
| 15>   H      -0.893046     -0.515614      0.002371
| 16>   I      -0.000014     -0.000012      2.520489
| 17>   Br     -0.000004     -0.000004     -2.625396
| 18> *
| 19> 
| 20>                          ****END OF INPUT****
================================================================================

                       *****************************
                       * Geometry Optimization Run *
                       *****************************

Geometry optimization settings:
Update method            Update   .... BFGS
Choice of coordinates    CoordSys .... (2022) Redundant Internals
Initial Hessian          InHess   .... Almloef's Model
Max. no of cycles        MaxIter  .... 50

Convergence Tolerances:
Energy Change            TolE     ....  5.0000e-06 Eh
Max. Gradient            TolMAXG  ....  3.0000e-04 Eh/bohr
RMS Gradient             TolRMSG  ....  1.0000e-04 Eh/bohr
Max. Displacement        TolMAXD  ....  4.0000e-03 bohr
RMS Displacement         TolRMSD  ....  2.0000e-03 bohr
Strict Convergence                .... False

------------------------------------------------------------------------------
                        ORCA OPTIMIZATION COORDINATE SETUP
------------------------------------------------------------------------------

The optimization will be done in redundant internal coordinates (2022)
Making redundant internal coordinates   ...  (2022 redundants) done
Evaluating the initial hessian          ...  (Almloef) done
Evaluating the coordinates              ...  done
Calculating the B-matrix                .... done
Calculating the G-matrix                .... done
The number of degrees of freedom        ....   17

    -----------------------------------------------------------------
                    Redundant Internal Coordinates


    -----------------------------------------------------------------
         Definition                    Initial Value    Approx d2E/dq
    -----------------------------------------------------------------
      1. B(H   1,C   0)                  1.0779         0.376437   
      2. B(H   2,C   0)                  1.0776         0.376825   
      3. B(H   3,C   0)                  1.0775         0.377032   
      4. B(I   4,C   0)                  2.2052         0.105124   
      5. B(Br  5,H   2)                  2.8228         0.010000   
      6. B(Br  5,H   3)                  2.8229         0.010000   
      7. B(Br  5,H   1)                  2.8228         0.010000   
      8. B(Br  5,C   0)                  2.9407         0.010000   
      9. A(H   1,C   0,H   3)          111.9279         0.295008   
     10. A(H   2,C   0,H   3)          111.9413         0.295056   
     11. A(H   1,C   0,I   4)          106.8776         0.282551   
     12. A(H   2,C   0,I   4)          106.8851         0.282596   
     13. A(H   3,C   0,I   4)          106.8890         0.282620   
     14. A(H   1,C   0,Br  5)           73.1145         0.193996   
     15. A(H   2,C   0,Br  5)           73.1158         0.194021   
     16. A(H   3,C   0,Br  5)           73.1180         0.194034   
     17. A(H   1,C   0,H   2)          111.9207         0.294982   
    -----------------------------------------------------------------

Number of atoms                         .... 6
Number of degrees of freedom            .... 17


         *************************************************************
         *                GEOMETRY OPTIMIZATION CYCLE   1            *
         *************************************************************
---------------------------------
CARTESIAN COORDINATES (ANGSTROEM)
---------------------------------
  C     -0.000088   -0.000182    0.315333
  H     -0.000036    1.031287    0.002302
  H      0.893023   -0.515642    0.002339
  H     -0.893046   -0.515614    0.002371
  I     -0.000014   -0.000012    2.520489
  Br    -0.000004   -0.000004   -2.625396

----------------------------
CARTESIAN COORDINATES (A.U.)
----------------------------
  NO LB      ZA    FRAG     MASS         X           Y           Z
   0 C     6.0000    0    12.011   -0.000166   -0.000344    0.595893
   1 H     1.0000    0     1.008   -0.000068    1.948850    0.004350
   2 H     1.0000    0     1.008    1.687569   -0.974422    0.004420
   3 H     1.0000    0     1.008   -1.687612   -0.974369    0.004481
   4 I    25.0000*   0   126.900   -0.000026   -0.000023    4.763034
   5 Br   35.0000    0    79.900   -0.000008   -0.000008   -4.961279
* core charge reduced due to ECP

--------------------------------
INTERNAL COORDINATES (ANGSTROEM)
--------------------------------
 C      0   0   0     0.000000000000     0.00000000     0.00000000
 H      1   0   0     1.077922403342     0.00000000     0.00000000
 H      1   2   0     1.077641644498   111.92072814     0.00000000
 H      1   2   3     1.077492157666   111.92786273   233.40278471
 I      1   2   3     2.205156007794   106.87761745   116.69706653
 Br     2   1   3     2.822827998109    85.45354767    63.29921427

---------------------------
INTERNAL COORDINATES (A.U.)
---------------------------
 C      0   0   0     0.000000000000     0.00000000     0.00000000
 H      1   0   0     2.036978135934     0.00000000     0.00000000
 H      1   2   0     2.036447578610   111.92072814     0.00000000
 H      1   2   3     2.036165089437   111.92786273   233.40278471
 I      1   2   3     4.167140937303   106.87761745   116.69706653
 Br     2   1   3     5.334371839591    85.45354767    63.29921427

---------------------
BASIS SET INFORMATION
---------------------
There are 4 groups of distinct atoms

 Group   1 Type C   : 11s6p1d contracted to 5s3p1d pattern {62111/411/1}
 Group   2 Type H   : 4s1p contracted to 2s1p pattern {31/1}
 Group   3 Type I   : 11s10p8d contracted to 6s5p3d pattern {521111/34111/611}
 Group   4 Type Br  : 17s13p7d contracted to 6s5p3d pattern {842111/64111/511}

Atom   0C    basis set group =>   1
Atom   1H    basis set group =>   2
Atom   2H    basis set group =>   2
Atom   3H    basis set group =>   2
Atom   4I    basis set group =>   3
Atom   5Br   basis set group =>   4
---------------------------------
AUXILIARY/J BASIS SET INFORMATION
---------------------------------
There are 4 groups of distinct atoms

 Group   1 Type C   : 8s3p3d contracted to 6s3p3d pattern {311111/111/111}
 Group   2 Type H   : 5s2p1d contracted to 3s1p1d pattern {311/2/1}
 Group   3 Type I   : 11s5p5d3f1g contracted to 8s4p3d2f1g pattern {41111111/2111/311/21/1}
 Group   4 Type Br  : 19s5p5d3f1g contracted to 8s4p3d2f1g pattern {121111111/2111/311/21/1}

Atom   0C    basis set group =>   1
Atom   1H    basis set group =>   2
Atom   2H    basis set group =>   2
Atom   3H    basis set group =>   2
Atom   4I    basis set group =>   3
Atom   5Br   basis set group =>   4
-------------------------
ECP PARAMETER INFORMATION
-------------------------

 Group 1, Type I  ECP Def2-ECP (replacing 28 core electrons, lmax=3)

Atom   4I    ECP group =>   1



           ************************************************************
           *        Program running with 8 parallel MPI-processes     *
           *              working on a common directory               *
           ************************************************************
------------------------------------------------------------------------------
                             ORCA STARTUP CALCULATIONS
                           -- RI-GTO INTEGRALS CHOSEN --
------------------------------------------------------------------------------
------------------------------------------------------------------------------
                   ___                                                        
                  /   \      - P O W E R E D   B Y -                         
                 /     \                                                     
                 |  |  |   _    _      __       _____    __    __             
                 |  |  |  | |  | |    /  \     |  _  \  |  |  /  |          
                  \  \/   | |  | |   /    \    | | | |  |  | /  /          
                 / \  \   | |__| |  /  /\  \   | |_| |  |  |/  /          
                |  |  |   |  __  | /  /__\  \  |    /   |      \           
                |  |  |   | |  | | |   __   |  |    \   |  |\   \          
                \     /   | |  | | |  |  |  |  | |\  \  |  | \   \       
                 \___/    |_|  |_| |__|  |__|  |_| \__\ |__|  \__/        
                                                                              
                      - O R C A' S   B I G   F R I E N D -                    
                                      &                                       
                       - I N T E G R A L  F E E D E R -                       
                                                                              
 v1 FN, 2020, v2 2021, v3 2022-2024                                           
------------------------------------------------------------------------------


----------------------
SHARK INTEGRAL PACKAGE
----------------------

Number of atoms                             ...      6
Number of basis functions                   ...    106
Number of shells                            ...     46
Maximum angular momentum                    ...      2
Integral batch strategy                     ... SHARK/LIBINT Hybrid
RI-J (if used) integral strategy            ... SPLIT-RIJ (Revised 2003 algorithm where possible)
Printlevel                                  ...      1
Contraction scheme used                     ... SEGMENTED contraction
Prescreening option                         ... SCHWARTZ
   Thresh                                   ... 2.500e-11
   Tcut                                     ... 2.500e-12
   Tpresel                                  ... 2.500e-12 
Coulomb Range Separation                    ... NOT USED
Exchange Range Separation                   ... NOT USED
Multipole approximations                    ... NOT USED
Finite Nucleus Model                        ... NOT USED
CABS basis                                  ... NOT available
Auxiliary Coulomb fitting basis             ... AVAILABLE
   # of basis functions in Aux-J            ...    179
   # of shells in Aux-J                     ...     63
   Maximum angular momentum in Aux-J        ...      4
Auxiliary J/K fitting basis                 ... NOT available
Auxiliary Correlation fitting basis         ... NOT available
Auxiliary 'external' fitting basis          ... NOT available

Checking pre-screening integrals            ... done (  0.0 sec) Dimension = 46
   => SHARK Basis and OBASIS are compatible. Storing Pre-screening
Shell pair information
Shell pair cut-off parameter TPreSel        ...   2.5e-12
Total number of shell pairs                 ...      1081
Shell pairs after pre-screening             ...       965
Total number of primitive shell pairs       ...      5082
Primitive shell pairs kept                  ...      3370
          la=0 lb=0:    240 shell pairs
          la=1 lb=0:    332 shell pairs
          la=1 lb=1:    128 shell pairs
          la=2 lb=0:    139 shell pairs
          la=2 lb=1:    101 shell pairs
          la=2 lb=2:     25 shell pairs

Checking whether 4 symmetric matrices of dimension 106 fit in memory
:Max Core in MB      =   4096.00
 MB in use           =      4.64
 MB left             =   4091.36
 MB needed           =      0.17
 Data fit in memory  = YES
Calculating RI/J V-Matrix + Cholesky decomp.... done (  0.0 sec)
Calculating Nuclear repulsion               ... done (  0.0 sec) ENN=    207.761748986513 Eh

Diagonalization of the overlap matrix:
Smallest eigenvalue                        ... 3.991e-03
Time for diagonalization                   ...    0.001 sec
Threshold for overlap eigenvalues          ... 1.000e-07
Number of eigenvalues below threshold      ... 0
Time for construction of square roots      ...    0.001 sec
Total time needed                          ...    0.003 sec

-------------------
DFT GRID GENERATION
-------------------

General Integration Accuracy     IntAcc      ... 4.388
Radial Grid Type                 RadialGrid  ... OptM3 with GC (2021)
Angular Grid (max. ang.)         AngularGrid ... 4 (Lebedev-302)
Angular grid pruning method      GridPruning ... 4 (adaptive)
Weight generation scheme         WeightScheme... mBecke (2022)
Basis function cutoff            BFCut       ... 1.0000e-11
Integration weight cutoff        WCut        ... 1.0000e-14
Partially contracted basis set               ... off
Rotationally invariant grid construction     ... off
Angular grids for H and He will be reduced by one unit
Core-polarized basis detected: some atoms will have their core
                               angular grid increased.

Total number of grid points                  ...    38799
Total number of batches                      ...      609
Average number of points per batch           ...       63
Average number of grid points per atom       ...     6466
Grids setup in   0.9 sec
Initializing property integral containers    ... done (  0.0 sec)

SHARK setup successfully completed in   1.3 seconds

Maximum memory used throughout the entire STARTUP-calculation: 14.0 MB


           ************************************************************
           *        Program running with 8 parallel MPI-processes     *
           *              working on a common directory               *
           ************************************************************
-------------------------------------------------------------------------------
                                 ORCA GUESS
                   Start orbitals & Density for SCF / CASSCF
-------------------------------------------------------------------------------

------------
SCF SETTINGS
------------
Hamiltonian:
 Density Functional     Method          .... DFT(GTOs)
  Functional kind                       .... Exchange
  Functional name                       .... Re-regularized SCAN exchange by Furness et al
  Functional family                     .... MGGA
  Functional refs                              
    [ 0] J. W. Furness, A. D. Kaplan, J. Ning, J. P. Perdew, and J. Sun.,  J. Phys. Chem. Lett. 11, 8208-8215 (2020), doi: 10.1021/acs.jpclett.0c02405
    [ 1] J. W. Furness, A. D. Kaplan, J. Ning, J. P. Perdew, and J. Sun.,  J. Phys. Chem. Lett. 11, 9248-9248 (2020), doi: 10.1021/acs.jpclett.0c03077
  Functional external parameters        .... 6
    Parameter  0 _c1        =  6.670000e-01 : c1 parameter        
    Parameter  1 _c2        =  8.000000e-01 : c2 parameter        
    Parameter  2 _d         =  1.240000e+00 : d parameter         
    Parameter  3 _k1        =  6.500000e-02 : k1 parameter        
    Parameter  4 _eta       =  1.000000e-03 : eta parameter       
    Parameter  5 _dp2       =  3.610000e-01 : dp2 parameter       
  Functional kind                       .... Correlation
  Functional name                       .... Re-regularized SCAN correlation by Furness et al
  Functional family                     .... MGGA
  Functional refs                              
    [ 0] J. W. Furness, A. D. Kaplan, J. Ning, J. P. Perdew, and J. Sun.,  J. Phys. Chem. Lett. 11, 8208-8215 (2020), doi: 10.1021/acs.jpclett.0c02405
    [ 1] J. W. Furness, A. D. Kaplan, J. Ning, J. P. Perdew, and J. Sun.,  J. Phys. Chem. Lett. 11, 9248-9248 (2020), doi: 10.1021/acs.jpclett.0c03077
  Functional external parameters        .... 1
    Parameter  0 _eta       =  1.000000e-03 : Regularization parameter
 Gradients option       PostSCFGGA      .... off
 RI-approximation to the Coulomb term is turned on
   Number of AuxJ basis functions       .... 179


General Settings:
 Integral files         IntName         .... reactant_optfreq
 Hartree-Fock type      HFTyp           .... RHF
 Total Charge           Charge          ....   -1
 Multiplicity           Mult            ....    1
 Number of Electrons    NEL             ....   70
 Basis Dimension        Dim             ....  106
 Nuclear Repulsion      ENuc            ....    207.7617489865 Eh

Convergence Acceleration:
 AO-DIIS                CNVDIIS         .... on
   Start iteration      DIISMaxIt       ....    12
   Startup error        DIISStart       ....  0.200000
   # of expansion vecs  DIISMaxEq       ....     5
   Bias factor          DIISBfac        ....   1.050
   Max. coefficient     DIISMaxC        ....  10.000
 MO-DIIS                CNVKDIIS        .... off
 Trust-Rad. Augm. Hess. CNVTRAH         .... auto
   Auto Start mean grad. ratio tolernc. ....  1.125000
   Auto Start start iteration           ....    50
   Auto Start num. interpolation iter.  ....    10
   Max. Number of Micro iterations      ....    24
   Max. Number of Macro iterations      .... Maxiter - #DIIS iter
   Number of Davidson start vectors     ....     2
   Converg. threshold    (grad. norm)   ....   1.000e-05
   Grad. Scal. Fac. for Micro threshold ....   0.100
   Minimum threshold for Micro iter.    ....   1.000e-02
   NR start threshold (gradient norm)   ....   1.000e-04
   Initial trust radius                 ....   0.400
   Minimum AH scaling param. (alpha)    ....   1.000
   Maximum AH scaling param. (alpha)    .... 1000.000
   Quad. conv. algorithm                .... NR
   White noise on init. David. guess    .... on
   Maximum white noise                  ....   0.010
   Pseudo random numbers                .... off
   Inactive MOs                         .... canonical
   Orbital update algorithm             .... Taylor
   Preconditioner                       .... Diag
   Full preconditioner red. dimension   ....   250
   COSX micro iterations for RIJONX calc.... off
 SOSCF                 CNVSOSCF           .... on
   Start iteration     SOSCFMaxIt         ....   150
   Startup grad/error  SOSCFStart         ....  0.003300
   Hessian update      SOSCFHessUp        .... L-BFGS
   Autom. constraints  SOSCFAutoConstrain .... off
 Level Shifting         CNVShift        .... on
   Level shift para.    LevelShift      ....    0.2500
   Turn off err/grad.   ShiftErr        ....    0.0010
 Zerner damping         CNVZerner       .... off
 Static damping         CNVDamp         .... on
   Fraction old density DampFac         ....    0.7000
   Max. Damping (<1)    DampMax         ....    0.9800
   Min. Damping (>=0)   DampMin         ....    0.0000
   Turn off err/grad.   DampErr         ....    0.1000

SCF Procedure:
 Maximum # iterations   MaxIter         ....   150
 SCF integral mode      SCFMode         .... Direct
   Integral package                     .... SHARK and LIBINT hybrid scheme
 Reset frequency        DirectResetFreq ....    20
 Integral Threshold     Thresh          ....  2.500e-11 Eh
 Primitive CutOff       TCut            ....  2.500e-12 Eh

Convergence Tolerance:
 Convergence Check Mode ConvCheckMode   .... Total+1el-Energy
 Convergence forced     ConvForced      .... 0
 Energy Change          TolE            ....  1.000e-08 Eh
 1-El. energy change                    ....  1.000e-05 Eh
 Orbital Gradient       TolG            ....  1.000e-05
 Orbital Rotation angle TolX            ....  1.000e-05
 DIIS Error             TolErr          ....  5.000e-07

------------------------------
INITIAL GUESS: MODEL POTENTIAL
------------------------------
Loading Hartree-Fock densities                     ... done
Atomic calculation to generate a density for atom 4 (I  with ECP)
  Multiplicity assumed   :    2
  Atomic configuration   : 1s2 2s2 2p6 3s2 3p6 4s2 3d10 4p6 5s2 4d10 5p5 
  Number of open shells  : 1
  Command: /software/orca-6.1.0-el8-x86_64/bin/orca reactant_optfreq_atom53.inp "" > reactant_optfreq_atom53.out
Returned from the atomic calculation with res=0
Calculating cut-offs                               ... done
Initializing the effective Hamiltonian             ... done
Setting up the integral package (SHARK)            ... done
Starting the Coulomb interaction                   ... done (   0.0 sec)
Making the grid                                    ... done (   0.5 sec)
Mapping shells                                     ... done
Starting the XC term evaluation                    ... done (   0.0 sec)
  promolecular density results
     # of electrons  =     96.997835987
     EX              =   -268.352326733
     EC              =     -4.847912573
     EX+EC           =   -273.200239306
Transforming the Hamiltonian                       ... done (   0.0 sec)
Diagonalizing the Hamiltonian                      ... done (   0.0 sec)
Back transforming the eigenvectors                 ... done (   0.0 sec)
Now organizing SCF variables                       ... done
                      ------------------
                      INITIAL GUESS DONE (   6.3 sec)
                      ------------------
             **** ENERGY FILE WAS UPDATED (reactant_optfreq.en.tmp) ****
Finished Guess after   6.5 sec
Maximum memory used throughout the entire GUESS-calculation: 7.7 MB


           ************************************************************
           *        Program running with 8 parallel MPI-processes     *
           *              working on a common directory               *
           ************************************************************

-------------------------------------------------------------------------------------------
                                      ORCA LEAN-SCF
                              memory conserving SCF solver
-------------------------------------------------------------------------------------------

----------------------------------------D-I-I-S--------------------------------------------
Iteration    Energy (Eh)           Delta-E    RMSDP     MaxDP     DIISErr   Damp  Time(sec)
-------------------------------------------------------------------------------------------
               ***  Starting incremental Fock matrix formation  ***
    1    -2911.7119335732090804     0.00e+00  1.16e-02  9.10e-02  6.02e-01  0.700   0.3
Warning: op=0 Small HOMO/LUMO gap (   0.076) - skipping pre-diagonalization
         Will do a full diagonalization
    2    -2911.7790264823343023    -6.71e-02  1.02e-02  6.01e-02  4.09e-01  0.700   0.3
    3    -2911.8101340322491524    -3.11e-02  5.95e-03  3.99e-02  2.78e-01  0.700   0.2
                               ***Turning on AO-DIIS***
    4    -2911.8270943078373421    -1.70e-02  2.71e-03  2.17e-02  1.90e-01  0.700   0.4
    5    -2911.8390032766824334    -1.19e-02  1.44e-03  1.06e-02  1.33e-01  0.700   0.4
    6    -2911.8473574271633879    -8.35e-03  8.90e-04  7.09e-03  9.40e-02  0.700   0.6
    7    -2911.8533777314314648    -6.02e-03  2.43e-03  1.62e-02  6.63e-02  0.000   0.5
    8    -2911.8674188179538760    -1.40e-02  5.82e-04  3.26e-03  6.17e-03  0.000   0.4
                              *** Initializing SOSCF ***
---------------------------------------S-O-S-C-F--------------------------------------
Iteration    Energy (Eh)           Delta-E    RMSDP     MaxDP     MaxGrad    Time(sec)
--------------------------------------------------------------------------------------
    9    -2911.8675105617171539    -9.17e-05  1.78e-04  2.34e-03  1.28e-03     0.3
               *** Restarting incremental Fock matrix formation ***
   10    -2911.8675154360676061    -4.87e-06  9.35e-05  6.86e-04  2.16e-04     0.4
   11    -2911.8675146140526522     8.22e-07  6.27e-05  4.44e-04  4.43e-04     0.3
   12    -2911.8675159148560851    -1.30e-06  2.15e-05  1.76e-04  6.01e-05     0.2
   13    -2911.8675159059985162     8.86e-09  1.26e-05  1.17e-04  7.01e-05     0.3
                 **** Energy Check signals convergence ****

               *****************************************************
               *                     SUCCESS                       *
               *           SCF CONVERGED AFTER  13 CYCLES          *
               *****************************************************

             **** ENERGY FILE WAS UPDATED (reactant_optfreq.en.tmp) ****

----------------
TOTAL SCF ENERGY
----------------

Total Energy       :      -2911.86751594049611 Eh          -79235.94339 eV

Components:
Nuclear Repulsion  :        207.76174898651303 Eh            5653.48461 eV
Electronic Energy  :      -3119.62926492700899 Eh          -84889.42799 eV
One Electron Energy:      -4582.08834164628206 Eh         -124684.96264 eV
Two Electron Energy:       1462.45907671927307 Eh           39795.53464 eV

Virial components:
Potential Energy   :      -5634.49317563449222 Eh         -153322.35407 eV
Kinetic Energy     :       2722.62565969399611 Eh           74086.41068 eV
Virial Ratio       :          2.06950711552016

DFT components:
N(Alpha)           :       35.000004138756 electrons
N(Beta)            :       35.000004138756 electrons
N(Total)           :       70.000008277512 electrons
E(X)               :     -117.300178487603 Eh       
E(C)               :       -3.074545538027 Eh       
E(XC)              :     -120.374724025630 Eh       

---------------
SCF CONVERGENCE
---------------

  Last Energy change         ...   -8.8576e-09  Tolerance :   1.0000e-08
  Last MAX-Density change    ...    1.1689e-04  Tolerance :   1.0000e-07
  Last RMS-Density change    ...    1.2560e-05  Tolerance :   5.0000e-09
  Last DIIS Error            ...    1.2846e-03  Tolerance :   5.0000e-07
  Last Orbital Gradient      ...    7.0087e-05  Tolerance :   1.0000e-05
  Last Orbital Rotation      ...    4.5978e-05  Tolerance :   1.0000e-05


----------------
ORBITAL ENERGIES
----------------

  NO   OCC          E(Eh)            E(eV) 
   0   2.0000    -481.955315    -13114.6709 
   1   2.0000     -62.028039     -1687.8688 
   2   2.0000     -55.806993     -1518.5855 
   3   2.0000     -55.806587     -1518.5744 
   4   2.0000     -55.806586     -1518.5744 
   5   2.0000      -9.928584      -270.1705 
   6   2.0000      -8.359579      -227.4757 
   7   2.0000      -6.672210      -181.5601 
   8   2.0000      -6.159175      -167.5997 
   9   2.0000      -6.157390      -167.5511 
  10   2.0000      -6.157390      -167.5511 
  11   2.0000      -4.687830      -127.5623 
  12   2.0000      -4.675972      -127.2397 
  13   2.0000      -4.675972      -127.2397 
  14   2.0000      -2.258714       -61.4627 
  15   2.0000      -2.258294       -61.4513 
  16   2.0000      -2.258294       -61.4513 
  17   2.0000      -2.256946       -61.4146 
  18   2.0000      -2.256945       -61.4146 
  19   2.0000      -1.723647       -46.9028 
  20   2.0000      -1.720888       -46.8277 
  21   2.0000      -1.720888       -46.8277 
  22   2.0000      -1.710822       -46.5538 
  23   2.0000      -1.710822       -46.5538 
  24   2.0000      -0.570249       -15.5173 
  25   2.0000      -0.475967       -12.9517 
  26   2.0000      -0.448796       -12.2124 
  27   2.0000      -0.258162        -7.0250 
  28   2.0000      -0.258077        -7.0226 
  29   2.0000      -0.192901        -5.2491 
  30   2.0000      -0.106744        -2.9046 
  31   2.0000      -0.106737        -2.9045 
  32   2.0000      -0.033272        -0.9054 
  33   2.0000      -0.031554        -0.8586 
  34   2.0000      -0.031552        -0.8586 
  35   0.0000       0.083127         2.2620 
  36   0.0000       0.239355         6.5132 
  37   0.0000       0.275986         7.5100 
  38   0.0000       0.276041         7.5115 
  39   0.0000       0.282319         7.6823 
  40   0.0000       0.307459         8.3664 
  41   0.0000       0.307473         8.3668 
  42   0.0000       0.337941         9.1958 
  43   0.0000       0.337948         9.1960 
  44   0.0000       0.363661         9.8957 
  45   0.0000       0.363702         9.8968 
*Only the first 10 virtual orbitals were printed.

                    ********************************
                    * MULLIKEN POPULATION ANALYSIS *
                    ********************************

-----------------------
MULLIKEN ATOMIC CHARGES
-----------------------
   0 C :   -0.376078
   1 H :    0.196818
   2 H :    0.196833
   3 H :    0.196841
   4 I :   -0.374316
   5 Br:   -0.840099
Sum of atomic charges:   -1.0000000

--------------------------------
MULLIKEN REDUCED ORBITAL CHARGES
--------------------------------
  0 C s       :     3.310651  s :     3.310651
      pz      :     0.788056  p :     3.043933
      px      :     1.127964
      py      :     1.127913
      dz2     :     0.007291  d :     0.021493
      dxz     :     0.002798
      dyz     :     0.002798
      dx2y2   :     0.004303
      dxy     :     0.004303

  1 H s       :     0.783741  s :     0.783741
      pz      :     0.005014  p :     0.019441
      px      :     0.003547
      py      :     0.010880

  2 H s       :     0.783715  s :     0.783715
      pz      :     0.005017  p :     0.019452
      px      :     0.009052
      py      :     0.005383

  3 H s       :     0.783702  s :     0.783702
      pz      :     0.005018  p :     0.019458
      px      :     0.009054
      py      :     0.005385

  4 I s       :     3.981233  s :     3.981233
      pz      :     3.342408  p :    11.343670
      px      :     4.000627
      py      :     4.000634
      dz2     :     2.020861  d :    10.049413
      dxz     :     2.014083
      dyz     :     2.014092
      dx2y2   :     2.000188
      dxy     :     2.000188

  5 Brs       :     7.979085  s :     7.979085
      pz      :     5.869546  p :    17.858625
      px      :     5.994539
      py      :     5.994540
      dz2     :     2.001419  d :    10.002389
      dxz     :     2.000479
      dyz     :     2.000479
      dx2y2   :     2.000006
      dxy     :     2.000006



                     *******************************
                     * LOEWDIN POPULATION ANALYSIS *
                     *******************************

----------------------
LOEWDIN ATOMIC CHARGES
----------------------
   0 C :   -0.564503
   1 H :    0.167088
   2 H :    0.167033
   3 H :    0.167002
   4 I :   -0.150915
   5 Br:   -0.785705

-------------------------------
LOEWDIN REDUCED ORBITAL CHARGES
-------------------------------
  0 C s       :     3.100404  s :     3.100404
      pz      :     1.009934  p :     3.413953
      px      :     1.202028
      py      :     1.201990
      dz2     :     0.015858  d :     0.050146
      dxz     :     0.006454
      dyz     :     0.006450
      dx2y2   :     0.010693
      dxy     :     0.010691

  1 H s       :     0.784627  s :     0.784627
      pz      :     0.010989  p :     0.048285
      px      :     0.008246
      py      :     0.029050

  2 H s       :     0.784649  s :     0.784649
      pz      :     0.010998  p :     0.048319
      px      :     0.023864
      py      :     0.013456

  3 H s       :     0.784662  s :     0.784662
      pz      :     0.011003  p :     0.048336
      px      :     0.023870
      py      :     0.013463

  4 I s       :     3.784309  s :     3.784309
      pz      :     3.309040  p :    11.255856
      px      :     3.973405
      py      :     3.973411
      dz2     :     2.061641  d :    10.110750
      dxz     :     2.024303
      dyz     :     2.024315
      dx2y2   :     2.000245
      dxy     :     2.000246

  5 Brs       :     7.953303  s :     7.953303
      pz      :     5.845387  p :    17.829589
      px      :     5.992100
      py      :     5.992102
      dz2     :     2.001563  d :    10.002812
      dxz     :     2.000615
      dyz     :     2.000615
      dx2y2   :     2.000010
      dxy     :     2.000010



                      *****************************
                      * MAYER POPULATION ANALYSIS *
                      *****************************

  NA   - Mulliken gross atomic population
  ZA   - Total nuclear charge
  QA   - Mulliken gross atomic charge
  VA   - Mayer's total valence
  BVA  - Mayer's bonded valence
  FA   - Mayer's free valence

  ATOM       NA         ZA         QA         VA         BVA        FA
  0 C      6.3761     6.0000    -0.3761     3.7675     3.7675    -0.0000
  1 H      0.8032     1.0000     0.1968     0.9448     0.9448    -0.0000
  2 H      0.8032     1.0000     0.1968     0.9448     0.9448    -0.0000
  3 H      0.8032     1.0000     0.1968     0.9448     0.9448    -0.0000
  4 I     25.3743    25.0000    -0.3743     0.8759     0.8759    -0.0000
  5 Br    35.8401    35.0000    -0.8401     0.2812     0.2812    -0.0000

  Mayer bond orders larger than 0.100000
B(  0-C ,  1-H ) :   0.9452 B(  0-C ,  2-H ) :   0.9452 B(  0-C ,  3-H ) :   0.9452 
B(  0-C ,  4-I ) :   0.7554 B(  0-C ,  5-Br) :   0.1765 B(  4-I ,  5-Br) :   0.1087 


-------
TIMINGS
-------

Total SCF time: 0 days 0 hours 0 min 5 sec 

Total time                  ....       5.622 sec
Sum of individual times     ....       4.947 sec  ( 88.0%)

SCF preparation             ....       0.396 sec  (  7.1%)
Fock matrix formation       ....       3.679 sec  ( 65.4%)
  Startup                   ....       0.014 sec  (  0.4% of F)
  Split-RI-J                ....       0.741 sec  ( 20.1% of F)
  XC integration            ....       2.923 sec  ( 79.4% of F)
    XC Preparation          ....       0.000 sec  (  0.0% of XC)
    Basis function eval.    ....       0.358 sec  ( 12.3% of XC)
    Density eval.           ....       0.354 sec  ( 12.1% of XC)
    XC-Functional eval.     ....       0.448 sec  ( 15.3% of XC)
    XC-Potential eval.      ....       0.731 sec  ( 25.0% of XC)
Diagonalization             ....       0.000 sec  (  0.0%)
Density matrix formation    ....       0.137 sec  (  2.4%)
Total Energy calculation    ....       0.106 sec  (  1.9%)
Population analysis         ....       0.010 sec  (  0.2%)
Orbital Transformation      ....       0.097 sec  (  1.7%)
Orbital Orthonormalization  ....       0.000 sec  (  0.0%)
DIIS solution               ....       0.404 sec  (  7.2%)
SOSCF solution              ....       0.118 sec  (  2.1%)
Finished LeanSCF after   5.7 sec

Maximum memory used throughout the entire LEANSCF-calculation: 7.0 MB


           ************************************************************
           *        Program running with 8 parallel MPI-processes     *
           *              working on a common directory               *
           ************************************************************

------------------------------------------------------------------------------
                         ORCA PROPERTY INTEGRAL CALCULATIONS
------------------------------------------------------------------------------

GBWName                                   ... reactant_optfreq.gbw
Number of atoms                           ...      6
Number of basis functions                 ...    106
Max core memory                           ...   4096 MB

Dipole integrals                          ... YES
Quadrupole integrals                      ...  NO
Linear momentum integrals                 ...  NO
Angular momentum integrals                ...  NO
Higher moments length integrals           ...  NO
Higher moments velocity integrals         ...  NO
Kinetic energy integrals                  ...  NO
GIAO right hand sides                     ...  NO
GIAO dipole derivative integrals          ...  NO
SOC integrals                             ...  NO
EPR diamagnetic integrals (GIAO)          ...  NO
EPR gauge integrals                       ...  NO
Field gradient integrals                  ...  NO (   0 nuclei)
Spin-dipole/Fermi contact integrals       ...  NO (   0 nuclei)
Contact density integrals                 ...  NO (   0 nuclei)
Nucleus-orbit integrals                   ...  NO (   0 nuclei)
Geometric perturbations                   ...  NO (   6 nuclei)

Choice of electric origin   ... Center of mass
Position of electric origin ... ( -0.0000, -0.0000,  0.9701) 
Choice of magnetic origin   ... GIAO
Position of magnetic origin ... (  0.0000,  0.0000,  0.0000) 

Calculating integrals                     ... Electric Dipole (Length)     done (  0.0 sec)

Property integrals calculated in   0.0 sec

Maximum memory used throughout the entire PROPINT-calculation: 7.4 MB


-------------------------------------------------------------------------------
                          DFT DISPERSION CORRECTION                            
                                                                               
                                DFTD4 V3.4.0                                   
-------------------------------------------------------------------------------
The R2SCAN3C composite method is recognized
Using three-body term ABC
Active option DFTDOPT                   ...         5   

-------------------------   ----------------
Dispersion correction           -0.001262367
-------------------------   ----------------

------------------   -----------------
gCP correction             0.002745532
------------------   -----------------

-------------------------   --------------------
FINAL SINGLE POINT ENERGY     -2911.866032776149
-------------------------   --------------------



           ************************************************************
           *        Program running with 8 parallel MPI-processes     *
           *              working on a common directory               *
           ************************************************************
------------------------------------------------------------------------------
                         ORCA SCF GRADIENT CALCULATION
------------------------------------------------------------------------------

Nuc. rep. gradient        (SHARK) ... done (  0.0 sec)
HCore & Overlap gradient  (SHARK) ... done (  0.0 sec)
ECP gradient              (SHARK) ... done (  0.3 sec)
Split-RIJ-J gradient      (SHARK) ... done (  1.6 sec)
XC gradient                       ... done (  0.7 sec)
Dispersion correction             ... done (  0.1 sec)

-------------------
DISPERSION GRADIENT
-------------------

   1   C   :    0.000000003    0.000000009    0.000008081
   2   H   :   -0.000000000    0.000002921    0.000001961
   3   H   :    0.000002535   -0.000001465    0.000001960
   4   H   :   -0.000002538   -0.000001466    0.000001960
   5   I   :   -0.000000000   -0.000000000    0.000078678
   6   Br  :    0.000000001    0.000000001   -0.000092640

Difference to translation invariance:
           :    0.0000000000    0.0000000000    0.0000000000

Difference to rotation invariance:
           :    0.0000000000    0.0000000000    0.0000000000

Norm of the Dispersion gradient    ...    0.0001219631
RMS gradient                       ...    0.0000287470
MAX gradient                       ...    0.0000926405
gCP correction                   ... done

------------------
CARTESIAN GRADIENT
------------------

   1   C   :   -0.000095753   -0.000280658    0.008045218
   2   H   :    0.000003834   -0.003911158   -0.000364417
   3   H   :   -0.003564192    0.002076361   -0.000324272
   4   H   :    0.003653820    0.002123689   -0.000296102
   5   I   :    0.000001980    0.000004814   -0.013898252
   6   Br  :    0.000000311   -0.000013048    0.006837824

Difference to translation invariance:
           :    0.0000000000   -0.0000000000   -0.0000000005

Difference to rotation invariance:
           :   -0.0000303072   -0.0000000096   -0.0000000118

Norm of the Cartesian gradient     ...    0.0188475172
RMS gradient                       ...    0.0044424024
MAX gradient                       ...    0.0138982518

-------
TIMINGS
-------

Total SCF gradient time     ....        2.790 sec

Densities                   ....       0.000 sec  (  0.0%)
One electron gradient       ....       0.010 sec  (  0.3%)
RI-J Coulomb gradient       ....       1.599 sec  ( 57.3%)
XC gradient                 ....       0.681 sec  ( 24.4%)

Maximum memory used throughout the entire SCFGRAD-calculation: 27.2 MB
------------------------------------------------------------------------------
                         ORCA GEOMETRY RELAXATION STEP
------------------------------------------------------------------------------

Reading the OPT-File                    .... done
Getting information on internals        .... done
Copying old internal coords+grads       .... done
Making the new internal coordinates     .... (2022 redundants) done
Validating the new internal coordinates .... (2022 redundants) done
Calculating the B-matrix                .... done
Calculating the G,G- and P matrices     .... done
Transforming gradient to internals      .... done
Projecting the internal gradient        .... done
Number of atoms                         ....   6
Number of internal coordinates          ....  17
Current Energy                          .... -2911.866032776 Eh
Current gradient norm                   ....     0.018847517 Eh/bohr
Maximum allowed component of the step   ....  0.300
Current trust radius                    ....  0.300
Evaluating the initial hessian          ....  (Almloef) done
Projecting the Hessian                  .... done
Forming the augmented Hessian           .... done
Diagonalizing the augmented Hessian     .... done
Last element of RFO vector              ....  0.955698479
Lowest eigenvalues of augmented Hessian:
 -0.002902846  0.010987629  0.045902273  0.045919872  0.106930400
Length of the computed step             ....  0.307991954
Warning: the length of the step is outside the trust region - taking restricted step instead
The input lambda is                     ....     0.009000
   iter:   5  x=    0.002987  g=  222.747054 f(x)=     0.473123
   iter:  10  x=   -0.003313  g=   11.327046 f(x)=     0.000058
The output lambda is                    ....    -0.003313 (12 iterations)
The final length of the internal step   ....  0.300000000
Converting the step to Cartesian space:
 Initial RMS(Int)=    0.0727606875
Transforming coordinates:
 Iter   0:  RMS(Cart)=    0.0454019079 RMS(Int)=    0.0728140181
done
Storing new coordinates                 .... done

                                .--------------------.
          ----------------------|Geometry convergence|-------------------------
          Item                value                   Tolerance       Converged
          ---------------------------------------------------------------------
          RMS gradient        0.0038120313            0.0001000000      NO
          MAX gradient        0.0138982515            0.0003000000      NO
          RMS step            0.0727606875            0.0020000000      NO
          MAX step            0.1432391122            0.0040000000      NO
          -------------------------------------------------------------------------
          ........................................................
          Max(Bonds)      0.0758      Max(Angles)    0.05
          Max(Dihed)        0.00      Max(Improp)    0.00
          ---------------------------------------------------------------------

The optimization has not yet converged - more geometry cycles are needed


    ---------------------------------------------------------------------------
                         Redundant Internal Coordinates
                            (Angstroem and degrees)

        Definition                    Value    dE/dq     Step     New-Value
    ----------------------------------------------------------------------------
     1. B(H   1,C   0)                1.0779 -0.003500  0.0049    1.0828   
     2. B(H   2,C   0)                1.0776 -0.003713  0.0052    1.0828   
     3. B(H   3,C   0)                1.0775 -0.003819  0.0053    1.0828   
     4. B(I   4,C   0)                2.2052 -0.013898  0.0678    2.2730   
     5. B(Br  5,H   2)                2.8228 -0.001758  0.0703    2.8931   
     6. B(Br  5,H   3)                2.8229 -0.001759  0.0703    2.8931   
     7. B(Br  5,H   1)                2.8228 -0.001732  0.0700    2.8928   
     8. B(Br  5,C   0)                2.9407 -0.001951  0.0758    3.0165   
     9. A(H   1,C   0,H   3)          111.93  0.000152   -0.04    111.89   
    10. A(H   2,C   0,H   3)          111.94  0.000181   -0.04    111.90   
    11. A(H   1,C   0,I   4)          106.88 -0.000185    0.04    106.92   
    12. A(H   2,C   0,I   4)          106.89 -0.000178    0.04    106.93   
    13. A(H   3,C   0,I   4)          106.89 -0.000166    0.04    106.93   
    14. A(H   1,C   0,Br  5)           73.11  0.000178   -0.05     73.06   
    15. A(H   2,C   0,Br  5)           73.12  0.000174   -0.04     73.08   
    16. A(H   3,C   0,Br  5)           73.12  0.000177   -0.04     73.08   
    17. A(H   1,C   0,H   2)          111.92  0.000143   -0.03    111.89   
    ----------------------------------------------------------------------------

Geometry step timings:
Preparation and reading OPT file:      0.000 s ( 3.582 %)
Internal coordinates            :      0.000 s ( 4.751 %)
B/P matrices and projection     :      0.000 s (11.915 %)
Hessian update/contruction      :      0.000 s (32.456 %)
Making the step                 :      0.000 s (14.620 %)
Converting the step to Cartesian:      0.000 s ( 3.363 %)
Storing new data                :      0.000 s ( 6.652 %)
Checking convergence            :      0.000 s ( 4.240 %)
Final printing                  :      0.000 s (17.982 %)
Total time                      :      0.001 s

Time for energy+gradient        :     19.016 s
Time for complete geometry iter :     19.910 s

         *************************************************************
         *                GEOMETRY OPTIMIZATION CYCLE   2            *
         *************************************************************
---------------------------------
CARTESIAN COORDINATES (ANGSTROEM)
---------------------------------
  C     -0.000052   -0.000147    0.317786
  H     -0.000014    1.035718    0.002466
  H      0.897109   -0.518034    0.002556
  H     -0.897189   -0.518065    0.002559
  I     -0.000013    0.000170    2.590766
  Br    -0.000008    0.000190   -2.698695

----------------------------
CARTESIAN COORDINATES (A.U.)
----------------------------
  NO LB      ZA    FRAG     MASS         X           Y           Z
   0 C     6.0000    0    12.011   -0.000097   -0.000278    0.600529
   1 H     1.0000    0     1.008   -0.000026    1.957224    0.004660
   2 H     1.0000    0     1.008    1.695291   -0.978943    0.004830
   3 H     1.0000    0     1.008   -1.695441   -0.979000    0.004837
   4 I    25.0000*   0   126.900   -0.000024    0.000322    4.895838
   5 Br   35.0000    0    79.900   -0.000014    0.000360   -5.099795
* core charge reduced due to ECP

--------------------------------
INTERNAL COORDINATES (ANGSTROEM)
--------------------------------
 C      0   0   0     0.000000000000     0.00000000     0.00000000
 H      1   0   0     1.082794738824     0.00000000     0.00000000
 H      1   2   0     1.082808678475   111.88504957     0.00000000
 H      1   2   3     1.082802643988   111.89044485   233.51875458
 I      1   2   3     2.272979880033   106.92240218   116.75694222
 Br     2   1   3     2.892851612478    85.95536961    63.24115900

---------------------------
INTERNAL COORDINATES (A.U.)
---------------------------
 C      0   0   0     0.000000000000     0.00000000     0.00000000
 H      1   0   0     2.046185515627     0.00000000     0.00000000
 H      1   2   0     2.046211857751   111.88504957     0.00000000
 H      1   2   3     2.046200454224   111.89044485   233.51875458
 I      1   2   3     4.295309481175   106.92240218   116.75694222
 Br     2   1   3     5.466697293657    85.95536961    63.24115900



           ************************************************************
           *        Program running with 8 parallel MPI-processes     *
           *              working on a common directory               *
           ************************************************************
------------------------------------------------------------------------------
                   ___                                                        
                  /   \      - P O W E R E D   B Y -                         
                 /     \                                                     
                 |  |  |   _    _      __       _____    __    __             
                 |  |  |  | |  | |    /  \     |  _  \  |  |  /  |          
                  \  \/   | |  | |   /    \    | | | |  |  | /  /          
                 / \  \   | |__| |  /  /\  \   | |_| |  |  |/  /          
                |  |  |   |  __  | /  /__\  \  |    /   |      \           
                |  |  |   | |  | | |   __   |  |    \   |  |\   \          
                \     /   | |  | | |  |  |  |  | |\  \  |  | \   \       
                 \___/    |_|  |_| |__|  |__|  |_| \__\ |__|  \__/        
                                                                              
                      - O R C A' S   B I G   F R I E N D -                    
                                      &                                       
                       - I N T E G R A L  F E E D E R -                       
                                                                              
 v1 FN, 2020, v2 2021, v3 2022-2024                                           
------------------------------------------------------------------------------


----------------------
SHARK INTEGRAL PACKAGE
----------------------

Number of atoms                             ...      6
Number of basis functions                   ...    106
Number of shells                            ...     46
Maximum angular momentum                    ...      2
Integral batch strategy                     ... SHARK/LIBINT Hybrid
RI-J (if used) integral strategy            ... SPLIT-RIJ (Revised 2003 algorithm where possible)
Printlevel                                  ...      1
Contraction scheme used                     ... SEGMENTED contraction
Prescreening option                         ... SCHWARTZ
   Thresh                                   ... 2.500e-11
   Tcut                                     ... 2.500e-12
   Tpresel                                  ... 2.500e-12 
Coulomb Range Separation                    ... NOT USED
Exchange Range Separation                   ... NOT USED
Multipole approximations                    ... NOT USED
Finite Nucleus Model                        ... NOT USED
CABS basis                                  ... NOT available
Auxiliary Coulomb fitting basis             ... AVAILABLE
   # of basis functions in Aux-J            ...    179
   # of shells in Aux-J                     ...     63
   Maximum angular momentum in Aux-J        ...      4
Auxiliary J/K fitting basis                 ... NOT available
Auxiliary Correlation fitting basis         ... NOT available
Auxiliary 'external' fitting basis          ... NOT available

Checking pre-screening integrals            ... done (  0.0 sec) Dimension = 46
   => SHARK Basis and OBASIS are compatible. Storing Pre-screening
Shell pair information
Shell pair cut-off parameter TPreSel        ...   2.5e-12
Total number of shell pairs                 ...      1081
Shell pairs after pre-screening             ...       959
Total number of primitive shell pairs       ...      5082
Primitive shell pairs kept                  ...      3344
          la=0 lb=0:    239 shell pairs
          la=1 lb=0:    331 shell pairs
          la=1 lb=1:    128 shell pairs
          la=2 lb=0:    137 shell pairs
          la=2 lb=1:    100 shell pairs
          la=2 lb=2:     24 shell pairs

Checking whether 4 symmetric matrices of dimension 106 fit in memory
:Max Core in MB      =   4096.00
 MB in use           =      4.72
 MB left             =   4091.28
 MB needed           =      0.17
 Data fit in memory  = YES
Calculating RI/J V-Matrix + Cholesky decomp.... done (  0.0 sec)
Calculating Nuclear repulsion               ... done (  0.0 sec) ENN=    202.423827378262 Eh

Diagonalization of the overlap matrix:
Smallest eigenvalue                        ... 4.163e-03
Time for diagonalization                   ...    0.077 sec
Threshold for overlap eigenvalues          ... 1.000e-07
Number of eigenvalues below threshold      ... 0
Time for construction of square roots      ...    0.001 sec
Total time needed                          ...    0.079 sec

-------------------
DFT GRID GENERATION
-------------------

General Integration Accuracy     IntAcc      ... 4.388
Radial Grid Type                 RadialGrid  ... OptM3 with GC (2021)
Angular Grid (max. ang.)         AngularGrid ... 4 (Lebedev-302)
Angular grid pruning method      GridPruning ... 4 (adaptive)
Weight generation scheme         WeightScheme... mBecke (2022)
Basis function cutoff            BFCut       ... 1.0000e-11
Integration weight cutoff        WCut        ... 1.0000e-14
Partially contracted basis set               ... off
Rotationally invariant grid construction     ... off
Angular grids for H and He will be reduced by one unit
Core-polarized basis detected: some atoms will have their core
                               angular grid increased.

Total number of grid points                  ...    38814
Total number of batches                      ...      609
Average number of points per batch           ...       63
Average number of grid points per atom       ...     6469
Grids setup in   1.4 sec
Initializing property integral containers    ... done (  0.0 sec)

SHARK setup successfully completed in   2.0 seconds

Maximum memory used throughout the entire STARTUP-calculation: 14.1 MB


           ************************************************************
           *        Program running with 8 parallel MPI-processes     *
           *              working on a common directory               *
           ************************************************************
Occupation numbers will be reassigned to an Aufbau configuration
             **** ENERGY FILE WAS UPDATED (reactant_optfreq.en.tmp) ****
Finished Guess after   0.7 sec
Maximum memory used throughout the entire GUESS-calculation: 7.3 MB


           ************************************************************
           *        Program running with 8 parallel MPI-processes     *
           *              working on a common directory               *
           ************************************************************
----------------------------------------D-I-I-S--------------------------------------------
Iteration    Energy (Eh)           Delta-E    RMSDP     MaxDP     DIISErr   Damp  Time(sec)
-------------------------------------------------------------------------------------------
               ***  Starting incremental Fock matrix formation  ***
    1    -2911.8682582271940191     0.00e+00  4.68e-04  2.60e-03  3.53e-02  0.700   0.5
    2    -2911.8684113098488524    -1.53e-04  4.66e-04  2.57e-03  2.48e-02  0.700   0.5
                               ***Turning on AO-DIIS***
    3    -2911.8685214653423827    -1.10e-04  3.89e-04  2.45e-03  1.73e-02  0.700   0.4
    4    -2911.8685968673171374    -7.54e-05  9.95e-04  6.62e-03  1.21e-02  0.000   0.2
                              *** Initializing SOSCF ***
---------------------------------------S-O-S-C-F--------------------------------------
Iteration    Energy (Eh)           Delta-E    RMSDP     MaxDP     MaxGrad    Time(sec)
--------------------------------------------------------------------------------------
    5    -2911.8687787935887172    -1.82e-04  9.84e-05  4.72e-04  9.12e-04     0.3
               *** Restarting incremental Fock matrix formation ***
    6    -2911.8687796601743685    -8.67e-07  1.18e-04  6.48e-04  2.88e-04     0.5
    7    -2911.8687776268807283     2.03e-06  7.53e-05  4.73e-04  7.07e-04     0.4
    8    -2911.8687803726215861    -2.75e-06  7.47e-06  5.73e-05  1.03e-05     0.4
    9    -2911.8687803734264889    -8.05e-10  2.68e-06  2.22e-05  1.09e-05     0.5
                 **** Energy Check signals convergence ****

               *****************************************************
               *                     SUCCESS                       *
               *           SCF CONVERGED AFTER   9 CYCLES          *
               *****************************************************

             **** ENERGY FILE WAS UPDATED (reactant_optfreq.en.tmp) ****

----------------
TOTAL SCF ENERGY
----------------

Total Energy       :      -2911.86878037549468 Eh          -79235.97779 eV

Components:
Nuclear Repulsion  :        202.42382737826233 Eh            5508.23238 eV
Electronic Energy  :      -3114.29260775375678 Eh          -84744.21017 eV
One Electron Energy:      -4571.30547223851863 Eh         -124391.54584 eV
Two Electron Energy:       1457.01286448476185 Eh           39647.33567 eV

Virial components:
Potential Energy   :      -5634.40881335359427 Eh         -153320.05845 eV
Kinetic Energy     :       2722.54003297809959 Eh           74084.08066 eV
Virial Ratio       :          2.06954121706350

DFT components:
N(Alpha)           :       35.000002903703 electrons
N(Beta)            :       35.000002903703 electrons
N(Total)           :       70.000005807407 electrons
E(X)               :     -117.276517821518 Eh       
E(C)               :       -3.071519965607 Eh       
E(XC)              :     -120.348037787126 Eh       

---------------
SCF CONVERGENCE
---------------

  Last Energy change         ...    8.0490e-10  Tolerance :   1.0000e-08
  Last MAX-Density change    ...    2.2247e-05  Tolerance :   1.0000e-07
  Last RMS-Density change    ...    2.6786e-06  Tolerance :   5.0000e-09
  Last DIIS Error            ...    9.1161e-04  Tolerance :   5.0000e-07
  Last Orbital Gradient      ...    1.0936e-05  Tolerance :   1.0000e-05
  Last Orbital Rotation      ...    1.0590e-05  Tolerance :   1.0000e-05


Total SCF time: 0 days 0 hours 0 min 4 sec 
Finished LeanSCF after   4.8 sec

Maximum memory used throughout the entire LEANSCF-calculation: 7.0 MB


           ************************************************************
           *        Program running with 8 parallel MPI-processes     *
           *              working on a common directory               *
           ************************************************************

------------------------------------------------------------------------------
                         ORCA PROPERTY INTEGRAL CALCULATIONS
------------------------------------------------------------------------------

GBWName                                   ... reactant_optfreq.gbw
Number of atoms                           ...      6
Number of basis functions                 ...    106
Max core memory                           ...   4096 MB

Dipole integrals                          ... YES
Quadrupole integrals                      ...  NO
Linear momentum integrals                 ...  NO
Angular momentum integrals                ...  NO
Higher moments length integrals           ...  NO
Higher moments velocity integrals         ...  NO
Kinetic energy integrals                  ...  NO
GIAO right hand sides                     ...  NO
GIAO dipole derivative integrals          ...  NO
SOC integrals                             ...  NO
EPR diamagnetic integrals (GIAO)          ...  NO
EPR gauge integrals                       ...  NO
Field gradient integrals                  ...  NO (   0 nuclei)
Spin-dipole/Fermi contact integrals       ...  NO (   0 nuclei)
Contact density integrals                 ...  NO (   0 nuclei)
Nucleus-orbit integrals                   ...  NO (   0 nuclei)
Geometric perturbations                   ...  NO (   6 nuclei)

Choice of electric origin   ... Center of mass
Position of electric origin ... ( -0.0000,  0.0003,  0.9964) 
Choice of magnetic origin   ... GIAO
Position of magnetic origin ... (  0.0000,  0.0000,  0.0000) 

Calculating integrals                     ... Electric Dipole (Length)     done (  0.0 sec)

Property integrals calculated in   0.0 sec

Maximum memory used throughout the entire PROPINT-calculation: 7.4 MB


-------------------------------------------------------------------------------
                          DFT DISPERSION CORRECTION                            
                                                                               
                                DFTD4 V3.4.0                                   
-------------------------------------------------------------------------------
-------------------------   ----------------
Dispersion correction           -0.001239067
-------------------------   ----------------

------------------   -----------------
gCP correction             0.002493166
------------------   -----------------

-------------------------   --------------------
FINAL SINGLE POINT ENERGY     -2911.867526275817
-------------------------   --------------------



           ************************************************************
           *        Program running with 8 parallel MPI-processes     *
           *              working on a common directory               *
           ************************************************************
------------------------------------------------------------------------------
                         ORCA SCF GRADIENT CALCULATION
------------------------------------------------------------------------------

Nuc. rep. gradient        (SHARK) ... done (  0.0 sec)
HCore & Overlap gradient  (SHARK) ... done (  0.0 sec)
ECP gradient              (SHARK) ... done (  0.2 sec)
Split-RIJ-J gradient      (SHARK) ... done (  1.5 sec)
XC gradient                       ... done (  0.4 sec)
Dispersion correction             ... done (  0.1 sec)

-------------------
DISPERSION GRADIENT
-------------------

   1   C   :    0.000000000   -0.000000003    0.000008598
   2   H   :   -0.000000000    0.000002975    0.000002064
   3   H   :    0.000002578   -0.000001490    0.000002067
   4   H   :   -0.000002579   -0.000001490    0.000002067
   5   I   :    0.000000000    0.000000003    0.000077399
   6   Br  :    0.000000001    0.000000005   -0.000092194

Difference to translation invariance:
           :   -0.0000000000    0.0000000000    0.0000000000

Difference to rotation invariance:
           :   -0.0000000000    0.0000000000   -0.0000000000

Norm of the Dispersion gradient    ...    0.0001208452
RMS gradient                       ...    0.0000284835
MAX gradient                       ...    0.0000921939
gCP correction                   ... done

------------------
CARTESIAN GRADIENT
------------------

   1   C   :   -0.000009859   -0.000027610    0.005724597
   2   H   :    0.000004595   -0.001565815   -0.002836459
   3   H   :   -0.001361621    0.000804502   -0.002845773
   4   H   :    0.001366088    0.000801776   -0.002844324
   5   I   :    0.000000737    0.000003845    0.000617181
   6   Br  :    0.000000060   -0.000016698    0.002184778

Difference to translation invariance:
           :   -0.0000000000    0.0000000000   -0.0000000002

Difference to rotation invariance:
           :   -0.0000696184   -0.0000000073   -0.0000000008

Norm of the Cartesian gradient     ...    0.0083440111
RMS gradient                       ...    0.0019667023
MAX gradient                       ...    0.0057245972

-------
TIMINGS
-------

Total SCF gradient time     ....        2.298 sec

Densities                   ....       0.000 sec  (  0.0%)
One electron gradient       ....       0.007 sec  (  0.3%)
RI-J Coulomb gradient       ....       1.497 sec  ( 65.1%)
XC gradient                 ....       0.410 sec  ( 17.8%)

Maximum memory used throughout the entire SCFGRAD-calculation: 27.2 MB
------------------------------------------------------------------------------
                         ORCA GEOMETRY RELAXATION STEP
------------------------------------------------------------------------------

Reading the OPT-File                    .... done
Getting information on internals        .... done
Copying old internal coords+grads       .... done
Making the new internal coordinates     .... (2022 redundants) done
Validating the new internal coordinates .... (2022 redundants) done
Calculating the B-matrix                .... done
Calculating the G,G- and P matrices     .... done
Transforming gradient to internals      .... done
Projecting the internal gradient        .... done
Number of atoms                         ....   6
Number of internal coordinates          ....  17
[...]



--------------------
Rotational spectrum 
--------------------
 
Rotational constants in cm-1:             5.096241             0.012017             0.012017 
Rotational constants in MHz :        152781.462998           360.265578           360.265545 

Dipole components along the rotational axes: 
x,y,z [a.u.] :     3.432233     0.000013     0.000650 
x,y,z [Debye]:     8.724043     0.000032     0.001653 

 

Dipole moment calculation done in   0.0 sec 

-----------
SCF HESSIAN
-----------

Occupied/Occupied contributions to the Hessian:
   => Occupied/Occupied contributions              ... done (  0.1 sec)
Perturbed density contributions to the Hessian:
   => Perturbed density contributions              ... done (  0.0 sec)
Explicit contributions to the Hessian:
   => Nuclear repulsion Hessian                    ... done (  0.0 sec)
   => HCore and overlap Hessian                    ... done (  0.5 sec)
   => ECP Hessian                                  ... done (  1.7 sec)
   => RI-J Hessian                                 ... done (  1.6 sec)
   => XC-Hessian                                   ... done (  3.4 sec)
   => Van der Waals-Hessian                        ... done (  0.4 sec)
   => GCP-Hessian                                  ... done (  0.0 sec)
   => Explicit contributions done
Dipole derivatives                                 ... done (  0.0 sec)
Mass weighting the Hessian           ... done
Calculating normal modes             ... done
Scaling frequencies                  ... done

-----------------------
VIBRATIONAL FREQUENCIES
-----------------------

Scaling factor for frequencies =  1.000000000  (already applied!)

     0:       0.00 cm**-1
     1:       0.00 cm**-1
     2:       0.00 cm**-1
     3:       0.00 cm**-1
     4:       0.00 cm**-1
     5:       0.00 cm**-1
     6:      82.86 cm**-1
     7:      99.58 cm**-1
     8:      99.60 cm**-1
     9:     319.73 cm**-1
    10:     840.43 cm**-1
    11:     840.66 cm**-1
    12:    1144.52 cm**-1
    13:    1430.34 cm**-1
    14:    1430.52 cm**-1
    15:    3123.01 cm**-1
    16:    3282.44 cm**-1
    17:    3283.36 cm**-1


------------
NORMAL MODES
------------

These modes are the Cartesian displacements weighted by the diagonal matrix
M(i,i)=1/sqrt(m[i]) where m[i] is the mass of the displaced atom
Thus, these vectors are normalized but *not* orthogonal

                  0          1          2          3          4          5    
      0       0.000000   0.000000   0.000000   0.000000   0.000000   0.000000
      1       0.000000   0.000000   0.000000   0.000000   0.000000   0.000000
      2       0.000000   0.000000   0.000000   0.000000   0.000000   0.000000
      3       0.000000   0.000000   0.000000   0.000000   0.000000   0.000000
      4       0.000000   0.000000   0.000000   0.000000   0.000000   0.000000
      5       0.000000   0.000000   0.000000   0.000000   0.000000   0.000000
      6       0.000000   0.000000   0.000000   0.000000   0.000000   0.000000
      7       0.000000   0.000000   0.000000   0.000000   0.000000   0.000000
      8       0.000000   0.000000   0.000000   0.000000   0.000000   0.000000
      9       0.000000   0.000000   0.000000   0.000000   0.000000   0.000000
     10       0.000000   0.000000   0.000000   0.000000   0.000000   0.000000
     11       0.000000   0.000000   0.000000   0.000000   0.000000   0.000000
     12       0.000000   0.000000   0.000000   0.000000   0.000000   0.000000
     13       0.000000   0.000000   0.000000   0.000000   0.000000   0.000000
     14       0.000000   0.000000   0.000000   0.000000   0.000000   0.000000
     15       0.000000   0.000000   0.000000   0.000000   0.000000   0.000000
     16       0.000000   0.000000   0.000000   0.000000   0.000000   0.000000
     17       0.000000   0.000000   0.000000   0.000000   0.000000   0.000000
                  6          7          8          9         10         11    
      0       0.000002  -0.000476   0.446371  -0.000001   0.000025  -0.082733
      1       0.006005   0.446352   0.000476   0.000705  -0.082727  -0.000025
      2       0.416741  -0.000827  -0.000000   0.711722   0.000102   0.000000
      3       0.000002  -0.000531   0.493974  -0.000000  -0.000056   0.181404
      4      -0.010871   0.502122   0.000535  -0.071403   0.117786   0.000035
      5       0.321420   0.198314   0.000212   0.396079   0.784529   0.000237
      6      -0.015196  -0.005398   0.497382  -0.062062   0.027720   0.133144
      7       0.015365   0.493385  -0.007259   0.036484   0.164993   0.028274
      8       0.317904  -0.100332   0.172317   0.396533  -0.392497   0.679285
      9       0.015201   0.004341   0.497393   0.062062  -0.027800   0.133131
     10       0.015365   0.493361   0.008312   0.036484   0.165011  -0.028174
     11       0.317902  -0.099964  -0.172530   0.396534  -0.392085  -0.679526
     12      -0.000001   0.000032  -0.029845   0.000000  -0.000001   0.004460
     13      -0.000437  -0.029844  -0.000032  -0.000065   0.004459   0.000001
     14       0.349867  -0.000270  -0.000000  -0.081140  -0.000006   0.000000
     15       0.000001   0.000041  -0.038482   0.000000   0.000000  -0.000295
     16      -0.000459  -0.038481  -0.000041  -0.000022  -0.000296  -0.000000
     17      -0.630393   0.000578   0.000001   0.006877  -0.000005   0.000000
                 12         13         14         15         16         17    
      0      -0.000000  -0.078180   0.000374  -0.000001  -0.000119   0.098033
      1      -0.000027   0.000374   0.078196   0.000136   0.098038   0.000119
      2      -0.080121  -0.000000   0.000027   0.031862  -0.000121   0.000000
      3      -0.000000   0.773175  -0.003699   0.000001  -0.000023   0.018219
      4       0.143216   0.000553   0.115771   0.562206  -0.788929  -0.000953
      5       0.557446   0.001084   0.226324  -0.126096   0.196567   0.000238
      6       0.123248   0.104713  -0.385521   0.488065   0.349402  -0.586369
      7      -0.071271   0.382080  -0.552796  -0.281897  -0.183660   0.349166
      8       0.557568  -0.197195  -0.112341  -0.125839  -0.097720   0.169079
      9      -0.123249   0.108396   0.384503  -0.488058  -0.347979  -0.587218
     10      -0.071271  -0.387351  -0.549115  -0.281894  -0.182814  -0.349614
     11       0.557564   0.196111  -0.114220  -0.125839  -0.097310  -0.169318
     12       0.000000  -0.000368   0.000002   0.000000   0.000000  -0.000081
     13      -0.000003   0.000002   0.000367  -0.000000  -0.000081  -0.000000
     14      -0.004707   0.000000   0.000000  -0.000075  -0.000000  -0.000000
     15      -0.000000  -0.000105   0.000001  -0.000000   0.000000  -0.000032
     16       0.000001   0.000000   0.000104  -0.000000  -0.000033  -0.000000
     17      -0.001581  -0.000000  -0.000001   0.000096  -0.000001  -0.000000


-----------
IR SPECTRUM
-----------

 Mode   freq       eps      Int      T**2         TX        TY        TZ
       cm**-1   L/(mol*cm) km/mol    a.u.
----------------------------------------------------------------------------
  6:     82.86   0.006285   31.76  0.023673  (-0.000000  0.000148  0.153860)
  7:     99.58   0.000652    3.29  0.002042  (-0.000048  0.045181 -0.000895)
  8:     99.60   0.000652    3.29  0.002043  ( 0.045195  0.000048 -0.000001)
  9:    319.73   0.078212  395.25  0.076336  (-0.000000  0.000035  0.276290)
 10:    840.43   0.000341    1.72  0.000127  (-0.000003  0.011252  0.000004)
 11:    840.66   0.000345    1.74  0.000128  ( 0.011315  0.000003  0.000000)
 12:   1144.52   0.017981   90.87  0.004903  ( 0.000000 -0.000025 -0.070019)
 13:   1430.34   0.001441    7.28  0.000314  ( 0.017731 -0.000085  0.000000)
 14:   1430.52   0.001456    7.36  0.000318  (-0.000085 -0.017821  0.000085)
 15:   3123.01   0.000168    0.85  0.000017  ( 0.000000  0.000083 -0.004100)
 16:   3282.44   0.000743    3.75  0.000071  ( 0.000010 -0.008404 -0.000048)
 17:   3283.36   0.000752    3.80  0.000072  (-0.008456 -0.000010 -0.000000)

* The epsilon (eps) is given for a Dirac delta lineshape.
** The dipole moment derivative (T) already includes vibrational overlap.

The first frequency considered to be a vibration is 6
The total number of vibrations considered is 12


--------------------------
THERMOCHEMISTRY AT 298.15K
--------------------------

Temperature         ...   298.15 K
Pressure            ...     1.00 atm
Total Mass          ...   221.84 AMU
Quasi RRHO          ...     True
Cut-Off Frequency   ...     1.00 cm^-1

Throughout the following assumptions are being made:
  (1) The electronic state is orbitally nondegenerate
  (2) There are no thermally accessible electronically excited states
  (3) Hindered rotations indicated by low frequency modes are not
      treated as such but are treated as vibrations and this may
      cause some error
  (4) All equations used are the standard statistical mechanics
      equations for an ideal gas
  (5) All vibrations are strictly harmonic

freq.      82.86  E(vib)   ...       0.48 
freq.      99.58  E(vib)   ...       0.46 
freq.      99.60  E(vib)   ...       0.46 
freq.     319.73  E(vib)   ...       0.25 
freq.     840.43  E(vib)   ...       0.04 
freq.     840.66  E(vib)   ...       0.04 
freq.    1144.52  E(vib)   ...       0.01 
freq.    1430.34  E(vib)   ...       0.00 
freq.    1430.52  E(vib)   ...       0.00 
freq.    3123.01  E(vib)   ...       0.00 
freq.    3282.44  E(vib)   ...       0.00 
freq.    3283.36  E(vib)   ...       0.00 

------------
INNER ENERGY
------------

The inner energy is: U= E(el) + E(ZPE) + E(vib) + E(rot) + E(trans)
    E(el)   - is the total energy from the electronic structure calculation
              = E(kin-el) + E(nuc-el) + E(el-el) + E(nuc-nuc)
    E(ZPE)  - the the zero temperature vibrational energy from the frequency calculation
    E(vib)  - the the finite temperature correction to E(ZPE) due to population
              of excited vibrational states
    E(rot)  - is the rotational thermal energy
    E(trans)- is the translational thermal energy

Summary of contributions to the inner energy U:
Electronic energy                ...  -2911.86793029 Eh
Zero point energy                ...      0.03639843 Eh      22.84 kcal/mol
Thermal vibrational correction   ...      0.00280393 Eh       1.76 kcal/mol
Thermal rotational correction    ...      0.00141627 Eh       0.89 kcal/mol
Thermal translational correction ...      0.00141627 Eh       0.89 kcal/mol
-----------------------------------------------------------------------
Total thermal energy                  -2911.82589540 Eh


Summary of corrections to the electronic energy:
(perhaps to be used in another calculation)
Total thermal correction                  0.00563647 Eh       3.54 kcal/mol
Non-thermal (ZPE) correction              0.03639843 Eh      22.84 kcal/mol
-----------------------------------------------------------------------
Total correction                          0.04203490 Eh      26.38 kcal/mol


--------
ENTHALPY
--------

The enthalpy is H = U + kB*T
                kB is Boltzmann's constant
Total thermal energy              ...  -2911.82589540 Eh 
Thermal Enthalpy correction       ...      0.00094421 Eh       0.59 kcal/mol
-----------------------------------------------------------------------
Total Enthalpy                    ...  -2911.82495119 Eh


Note: Rotational entropy computed according to Herzberg 
Infrared and Raman Spectra, Chapter V,1, Van Nostrand Reinhold, 1945 
Point Group:  Cs, Symmetry Number:   1  
Rotational constants in cm-1:     5.096245     0.012017     0.012017 

Vibrational entropy computed according to the QRRHO of S. Grimme
Chem.Eur.J. 2012 18 9955 using a reference frequency of 100.0 cm-1


-------
ENTROPY
-------

The entropy contributions are T*S = T*(S(el)+S(vib)+S(rot)+S(trans))
     S(el)   - electronic entropy
     S(vib)  - vibrational entropy
     S(rot)  - rotational entropy
     S(trans)- translational entropy
The entropies will be listed as multiplied by the temperature to get
units of energy

Electronic entropy                ...      0.00000000 Eh      0.00 kcal/mol
Vibrational entropy               ...      0.00539785 Eh      3.39 kcal/mol
Rotational entropy                ...      0.01291663 Eh      8.11 kcal/mol
Translational entropy             ...      0.01999968 Eh     12.55 kcal/mol
-----------------------------------------------------------------------
Final entropy term                ...      0.03831415 Eh     24.04 kcal/mol

In case the symmetry of your molecule has not been determined correctly
or in case you have a reason to use a different symmetry number we print 
out the resulting rotational entropy values for sn=1,12:

 non-linear molecules -----------------------------------
|  sn= 1 | S(rot)=       0.01291663 Eh      8.11 kcal/mol|
|  sn= 2 | S(rot)=       0.01226217 Eh      7.69 kcal/mol|
|  sn= 3 | S(rot)=       0.01187934 Eh      7.45 kcal/mol|
|  sn= 4 | S(rot)=       0.01160772 Eh      7.28 kcal/mol|
|  sn= 5 | S(rot)=       0.01139703 Eh      7.15 kcal/mol|
|  sn= 6 | S(rot)=       0.01122488 Eh      7.04 kcal/mol|
|  sn= 7 | S(rot)=       0.01107934 Eh      6.95 kcal/mol|
|  sn= 8 | S(rot)=       0.01095326 Eh      6.87 kcal/mol|
|  sn= 9 | S(rot)=       0.01084205 Eh      6.80 kcal/mol|
|  sn=10 | S(rot)=       0.01074257 Eh      6.74 kcal/mol|
|  sn=11 | S(rot)=       0.01065258 Eh      6.68 kcal/mol|
|  sn=12 | S(rot)=       0.01057043 Eh      6.63 kcal/mol|
 linear molecules ---------------------------------------
|  Dinfh | S(rot)=       0.00950043 Eh      5.96 kcal/mol|
|  Cinfv | S(rot)=       0.01015488 Eh      6.37 kcal/mol|
 --------------------------------------------------------


-------------------
GIBBS FREE ENERGY
-------------------

The Gibbs free energy is G = H - T*S

Total enthalpy                    ...  -2911.82495119 Eh 
Total entropy correction          ...     -0.03831415 Eh    -24.04 kcal/mol
-----------------------------------------------------------------------
Final Gibbs free energy         ...  -2911.86326534 Eh

For completeness - the Gibbs free energy minus the electronic energy
G-E(el)                           ...      0.00466495 Eh      2.93 kcal/mol


Maximum memory used throughout the entire PROP-calculation: 32.3 MB

--------------------------------
SUGGESTED CITATIONS FOR THIS RUN
--------------------------------

Below you find a list of papers that are relevant to this ORCA run
We neither can nor want to force you to cite these papers, but we appreciate if you do
You receive ORCA, which is the product of decades of hard work by many enthusiastic individuals, for free
The only thing we kindly ask in return is that you cite our papers,
We deeply appreciate it, if you show your appreciation for ORCA by not just citing the generic ORCA reference.

Please note that relegating all ORCA citations to the supporting information does *not* help us.
SI sections are not indexed - citations you put there will not count into any citation statistics
But we need these citations in order to attract the funding resources that allow us to do what we are doing

Therefore, if you are a happy ORCA user, please consider citing a few of the papers listed below in the main body of your paper

In addition to the list printed below, the program has created the file reactant_optfreq.bibtex that contains the list in bibtex format
You can import this file easily into all common literature databanks and citation aid programs


List of essential papers. We consider these as the minimum necessary citations

  1. Grimme, S.; Hansen, A.; Ehlert, S.; Mewes, J.
     r2SCAN-3c: A 'Swiss army knife' composite electronic-structure method
     J. Chem. Phys. 2021 154 , 064103
     doi.org/10.1063/5.0040021
  2. Neese, F.
     Software update: the ORCA program system, version 6.0
     WIRES Comput. Molec. Sci. 2025 15(1), e70019
     doi.org/10.1002/wcms.7019

List of papers to cite with high priority. The work reported in these papers was absolutely
necessary for this run to complete.
Our perspective: the developers of density functionals and basis sets usually get cited in chemistry papers
Good! But without the algorithms to do something with them, the functionals or basis sets would not do anything.
Hence, in our opinion, the algorithm design and method developments papers are equally worthy of getting cited

  1. Neese, F.
     An improvement of the resolution of the identity approximation for the formation of the Coulomb matrix
     J. Comp. Chem. 2003 24(14), 1740-1747
     doi.org/10.1002/jcc.10318
  2. Bykov, D.; Petrenko, T.; Izsak, R.; Kossmann, S.; Becker, U.; Valeev, E.; Neese, F.
     Efficient implementation of the analytic second derivatives of Hartree-Fock and hybrid DFT energies: a detailed analysis of different approximations
     Molec. Phys. 2015 113 , 1961-1977
     doi.org/10.1080/00268976.2015.1025114
  3. Caldeweyher, E.; Bannwarth, C.; Grimme, S.
     Extension of the D3 dispersion coefficient model
     J. Chem. Phys. 2017 147 , 034112
     doi.org/10.1063/1.4993215
  4. Lehtola, S.; Steigemann, C.; Oliveira, M.; Marques, M.
     Recent developments in Libxc - A comprehensive library of functionals for density functional theory
     Software X 2018 7 , 
     doi.org/10.1016/j.softx.2017.11.002
  5. Caldeweyher, E.; Ehlert, S.; Hansen, A.; Neugebauer, H.; Spicher, S.; Bannwarth, C.; Grimme, S.
     A generally applicable atomic-charge dependent London dispersion correction
     J. Chem. Phys. 2019 150 , 154122
     doi.org/10.1063/1.5090222
  6. Caldeweyher, E.; Mewes, J.; Ehlert, S.; Grimme, S.
     Extension and evaluation of the D4 London-dispersion model for periodic systems
     Phys. Chem. Chem. Phys. 2020 22(16), 8499-8512
     doi.org/10.1039/D0CP00502A
  7. Neese, F.
     The SHARK Integral Generation and Digestion System
     J. Comp. Chem. 2022 44(3), 381
     doi.org/10.1002/jcc.26942
  8. Wittmann, L.; Gordiy, I.; Friede, M.; Helmich-Paris, B.; Grimme, S.; Hansen, A.; Bursch, M.
     Extension of the D3 and D4 London Dispersion Corrections to the full Actinides Series
     Phys. Chem. Chem. Phys. 2024 26(32), 21379-21394
     doi.org/10.1039/D4CP01514B

List of suggested additional citations. These are papers that are important in the 'surrounding' of 
of this run, or papers that preceded the highly important papers. If you like your results we are grateful for a citation.

  1. Neese, F.
     The ORCA program system
     WIRES Comput. Molec. Sci. 2012 2(1), 73-78
     doi.org/10.1002/wcms.81
  2. Neese, F.
     Software update: the ORCA program system, version 4.0
     WIRES Comput. Molec. Sci. 2018 8(1), 1-6
     doi.org/10.1002/wcms.1327
  3. Neese, F.; Wennmohs, F.; Becker, U.; Riplinger, C.
     The ORCA quantum chemistry program package
     J. Chem. Phys. 2020 152(22), 224108
     doi.org/10.1063/5.0004608
  4. Neese, F.
     Software update: The ORCA program system—Version 5.0
     WIRES Comput. Molec. Sci. 2022 12(1), e1606
     doi.org/10.1002/wcms.1606

List of optional additional citations

  1. Neese, F.
     Approximate second-order SCF convergence for spin unrestricted wavefunctions
     Chem. Phys. Lett. 2000 325(1-3), 93-98
     doi.org/10.1016/s0009-2614(00)00662-x

Timings for individual modules:

Sum of individual times          ...      129.271 sec (=   2.155 min)
Startup calculation              ...       20.721 sec (=   0.345 min)  16.0 %
SCF iterations                   ...       51.848 sec (=   0.864 min)  40.1 %
Property integrals               ...       20.741 sec (=   0.346 min)  16.0 %
SCF Response                     ...        5.067 sec (=   0.084 min)   3.9 %
Property calculations            ...        8.543 sec (=   0.142 min)   6.6 %
SCF Gradient evaluation          ...       22.276 sec (=   0.371 min)  17.2 %
Geometry relaxation              ...        0.076 sec (=   0.001 min)   0.1 %
                             ****ORCA TERMINATED NORMALLY****
TOTAL RUN TIME: 0 days 0 hours 2 minutes 15 seconds 599 msec
