
                                 *****************
                                 * O   R   C   A *
                                 *****************

                                            #,                                       
                                            ###                                      
                                            ####                                     
                                            #####                                    
                                            ######                                   
                                           ########,                                 
                                     ,,################,,,,,                         
                               ,,#################################,,                 
                          ,,##########################################,,             
                       ,#########################################, ''#####,          
                    ,#############################################,,   '####,        
                  ,##################################################,,,,####,       
                ,###########''''           ''''###############################       
              ,#####''   ,,,,##########,,,,          '''####'''          '####       
            ,##' ,,,,###########################,,,                        '##       
           ' ,,###''''                  '''############,,,                           
         ,,##''                                '''############,,,,        ,,,,,,###''
      ,#''                                            '''#######################'''  
     '                                                          ''''####''''         
             ,#######,   #######,   ,#######,      ##                                
            ,#'     '#,  ##    ##  ,#'     '#,    #''#        ,####,    ,#,          
            ##       ##  ##   ,#'  ##            #'  '#       #'       ,# #          
            ##       ##  #######   ##           ,######,      #####,      #          
            '#,     ,#'  ##    ##  '#,     ,#' ,#      #,     #,   #      #          
             '#######'   ##     ##  '#######'  #'      '#     '####' #    #          



                #########################################################
                #                        -***-                          #
                #          Department of theory and spectroscopy        #
                #                                                       #
                #                      Frank Neese                      #
                #                                                       #
                #     Directorship, Architecture, Infrastructure        #
                #                    SHARK, DRIVERS                     #
                #        Core code/Algorithms in most modules           #
                #                                                       #
                #        Max Planck Institute fuer Kohlenforschung      #
                #                Kaiser Wilhelm Platz 1                 #
                #                 D-45470 Muelheim/Ruhr                 #
                #                      Germany                          #
                #                                                       #
                #                  All rights reserved                  #
                #                        -***-                          #
                #########################################################


                         Program Version 6.1.0  -  RELEASE   -
                                (GIT: $679e74b$)
                          ($2025-06-10 18:02:51 +0200$)


 With contributions from (in alphabetic order):
[Max-Planck-Institut fuer Kohlenforschung]                               
  Daniel Aravena         : Magnetic Suceptibility                        
  Michael Atanasov       : Ab Initio Ligand Field Theory (pilot matlab implementation)
  Alexander A. Auer      : GIAO ZORA, VPT2 properties, NMR spectrum      
  Ute Becker             : All parallelization in ORCA, NUMFREQ, NUMCALC 
  Giovanni Bistoni       : ED, misc. LED, open-shell LED, HFLD           
  Dmytro Bykov           : pre 5.0 version of the SCF Hessian            
  Marcos Casanova-Páez   : Triplet and SCS-CIS(D). UHF-(DLPNO)-IP/EA/STEOM-CCSD. UHF-CVS-IP/STEOM-CCSD   
  Vijay G. Chilkuri      : MRCI spin determinant printing, contributions to CSF-ICE 
  Pauline Colinet        : FMM embedding                                 
  Dipayan Datta          : RHF DLPNO-CCSD density                        
  Achintya Kumar Dutta   : EOM-CC, STEOM-CC                              
  Nicolas Foglia         : Exact transition moments, OPA infrastructure, MCD improvements    
  Dmitry Ganyushin       : Spin-Orbit,Spin-Spin,Magnetic field MRCI      
  Miquel Garcia-Rates    : C-PCM and meta-GGA Hessian, CCSD/C-PCM, Gaussian charge scheme 
  Tiago L. C. Gouveia    : GS-ROHF, GS-ROCIS                             
  Yang Guo               : DLPNO-NEVPT2, F12-NEVPT2, CIM, IAO-localization        
  Andreas Hansen         : Spin unrestricted coupled pair/coupled cluster methods 
  Ingolf Harden          : AUTO-CI MPn and infrastructure                
  Benjamin Helmich-Paris : MC-RPA, TRAH-(SCF,CASSCF), AVAS, COSX integrals, SCF dyn. polar., MC-PDFT, srDFT 
  Lee Huntington         : MR-EOM, pCC                                   
  Robert Izsak           : Overlap fitted RIJCOSX, COSX-SCS-MP3, EOM     
  Riya Kayal             : Wick's Theorem for AUTO-CI, AUTO-CI UHF-CCSDT 
  Emily Kempfer          : AUTO-CI RHF CISDT and CCSDT, approximate NEVPT4
  Christian Kollmar      : KDIIS, OOCD, Brueckner-CCSD(T), CCSD density, CASPT2, CASPT2-K, improved NEVPT2 
  Axel Koslowski         : Symmetry handling                             
  Simone Kossmann        : meta-GGA functionals, TD-DFT gradient, OOMP2, (MP2 Hessian; deprecated post 5.0) 
  Lucas Lang             : DCDCAS, Hyperfine gauge corrections, ICE-SOC+SSC
  Marvin Lechner         : AUTO-CI (C++ implementation), FIC-MRCC        
  Spencer Leger          : CASSCF response                               
  Dagmar Lenk            : GEPOL surface, SMD, ORCA-2-JSON               
  Dimitrios Liakos       : Extrapolation schemes; Compound Job, Property file
  Dimitrios Manganas     : Further ROCIS development; embedding schemes. LFT, Crystal Embedding 
  Dimitrios Pantazis     : SARC Basis sets                               
  Anastasios Papadopoulos: AUTO-CI, single reference methods and gradients 
  Taras Petrenko         : pre 6.0 DFT Hessian and TD-DFT gradient,  ECA, NRVS 
  Petra Pikulova         : Analytic Raman intensities                    
  Peter Pinski           : DLPNO-MP2, DLPNO-MP2 Gradient                 
  Shashank Vittal Rao    : ES-AILFT, MagRelax                            
  Christoph Reimann      : Effective Core Potentials                     
  Marius Retegan         : Local ZFS, SOC                                
  Christoph Riplinger    : Optimizer, TS searches, QM/MM, DLPNO-CCSD(T), (RO)-DLPNO pert. Triples 
  Michael Roemelt        : Original ROCIS implementation, recursive CI coupling coefficients
  Masaaki Saitow         : Open-shell DLPNO-CCSD energy and density      
  Barbara Sandhoefer     : DKH picture change effects                    
  Yorick L. A. Schmerwitz: GMF and freeze-and-release deltaSCF, NEB S-IDPP initial path                    
  Kantharuban Sivalingam : CASSCF convergence/infrastructure, NEVPT2, NEVPT3, NEVPT4(SD), FIC-MRCI and CEPA variants
  Bernardo de Souza      : ESD, SOC TD-DFT                               
  Georgi L. Stoychev     : AutoAux, RI-MP2 NMR, DLPNO-MP2 response, X2C  
  Van Anh Tran           : RI-MP2 g-tensors                              
  Willem Van den Heuvel  : Paramagnetic NMR                              
  Zikuan Wang            : NOTCH, Electric field optimization            
  Frank Wennmohs         : Technical directorship and infrastructure     
  Hang Xu                : AUTO-CI-Response properties                   
                                                                         
[FACCTs GmbH]                                                            
  Markus Bursch, Nicolas Foglia, Miquel Garcia-Rates, Ingolf Harden, Hagen Neugebauer, Anastasios Papadopoulos, 
  Christoph Riplinger, Bernardo de Souza, Georgi L. Stoychev                                                    
                                                                 
  APM, various basis sets, CI-OPT, improved COSX, DLPNO-Multilevel,           
  DOCKER, DRACO, updates on ESD, Fragmentator, GOAT, IRC, LR-CPCM, L-BFGS, MBIS, meta-GGA TD-DFT gradient, ML-optimized integration grids, 
  MM, NACMEs, nearIR, NEB, NEB-TS, NL-DFT gradient (VV10), 2- and 3-layer-ONIOM, interface openCOSMO-RS, QMMM,   
  Crystal-QMMM, RESP, rigid body optimization, SF, symmetry and pop. for TD-DFT, various functionals, SOLVATOR                                   
                                                                         
[Other institutions]                                                     
  V. Asgeirsson          : NEB                                           
  Christoph Bannwarth    : sTDA-DFT, sTD-DFT, PBEh-3c, B97-3c, D3        
  Giovanni Bistoni       : ETS/NOCV, ADLD/ADEX, COVALED                  
  Martin Brehm           : Molecular dynamics                            
  Ronald Cardenas        : ETS/NOCV                                      
  Martina Colucci        : COVALED                                       
  Sebastian Ehlert       : rSCAN, r2SCAN, r2SCAN-3c, D4, dhf basis sets  
  Marvin Friede          : D4 for Fr, Ra, Ac-Lr                          
  Lars Goerigk           : TD-DFT with DH, B97 family of functionals     
  Stefan Grimme          : VdW corrections, initial TS optimization, DFT functionals, gCP, sTDA/sTD-DF 
  Waldemar Hujo          : DFT-NL                                        
  H. Jonsson             : NEB                                           
  Holger Kruse           : gCP                                           
  Marcel Mueller         : wB97X-3c, vDZP basis set                      
  Hagen Neugebauer       : wr2SCAN, Native XTB                           
  Gianluca Regni         : ADLD/ADEX                                     
  Tobias Risthaus        : pre 6.0 range-separated hybrid DFT and stability analysis
  Lukas Wittmann         : regularized MP2, r2SCAN double-hybrids, wr2SCAN        
                                                                         
We gratefully acknowledge several colleagues who have allowed us to      
interface, adapt or use parts of their codes:                            
  Ed Valeev, F. Pavosevic, A. Kumar             : LibInt (2-el integral package), F12 methods 
  Garnet Chan, S. Sharma, J. Yang, R. Olivares  : DMRG                   
  Ulf Ekstrom                                   : XCFun DFT Library      
  Mihaly Kallay                                 : mrcc  (arbitrary order and MRCC methods)
  Frank Weinhold                                : gennbo (NPA and NBO analysis)           
  Simon Mueller                                 : openCOSMO-RS                            
  Christopher J. Cramer and Donald G. Truhlar   : smd solvation model                     
  S Lehtola, MJT Oliveira, MAL Marques          : LibXC Library                           
  Liviu Ungur et al                             : ANISO software                          


 Your calculation uses the libint2 library for the computation of 2-el integrals
 For citations please refer to: http://libint.valeyev.net

 Your ORCA version has been built with support for libXC version: 7.0.0
 For citations please refer to: https://libxc.gitlab.io

 This ORCA versions uses:
   CBLAS   interface :  Fast vector & matrix operations
   LAPACKE interface :  Fast linear algebra routines
   SCALAPACK package :  Parallel linear algebra routines
   Shared memory     :  Shared parallel matrices
   BLAS/LAPACK       :  OpenBLAS 0.3.29  USE64BITINT DYNAMIC_ARCH NO_AFFINITY SkylakeX SINGLE_THREADED
        Core in use  :  SkylakeX
   Copyright (c) 2011-2014, The OpenBLAS Project


  ***********************************
  * Starting time: Thu Mar 12 13:42:27 2026
  * Host name:     midway3-login4.rcc.local
  * Process ID:    3185910
  * Working dir.:  /home/rzhu16/orca_TS_search/sn2_i_br/DFT_test
  ***********************************

================================================================================

----- Orbital basis set information -----
Your calculation utilizes the basis: def2-SVP
   F. Weigend and R. Ahlrichs, Phys. Chem. Chem. Phys. 7, 3297 (2005).

The basis set includes element-specific modifications.

----- AuxJ basis set information -----
Your calculation utilizes the auxiliary basis: def2/J
   H-Rn: F. Weigend, Phys. Chem. Chem. Phys. 8, 1057 (2006).
   Fr-Lr: K. Eichkorn, F. Weigend, O. Treutler, R. Ahlrichs; Theor. Chem. Acc. 97, 119 (1997).

The basis set includes element-specific modifications.

================================================================================
                                        WARNINGS
                       Please study these warnings very carefully!
================================================================================


WARNING: ROHF and Conv is not properly working
  ===> : Setting Mode to Direct


WARNING: Found SCFConvIgnored == true
  ===> : Will try to continue after any unconverged SCF -
         no matter how far from convergence the wavefunction might be.

         Please be very careful with your results!


WARNING: TRAH-SCF with ROHF wave function is not implemented yet
  ===> : Turning TRAH off


================================================================================
                                       INPUT FILE
================================================================================
NAME = reactant_optfreq_atom53.inp
|  1> # input to generate an atomic fitting density for I 
|  2> # this file is used internally by ORCA
|  3> #
|  4> # atomic ground state (Mult=2): 1s2 2s2 2p6 3s2 3p6 4s2 3d10 4p6 5s2 4d10 5p5 
|  5> #
|  6> ! ROHF def2-SVP def2/J Conv LeanSCF AODIIS SOSCF NoMulliken NoLoewdin NoMayer NoPrintMOs 
|  7> 
|  8> %output print[p_atomdensfit] 2 end
|  9> 
| 10> %scf
| 11>   guess     HCore
| 12>   maxiter    1000
| 13>   maxdisk  500000
| 14>   diismaxeq     8
| 15>   soscfstart 1e-4
| 16>   lshift  1.000000
| 17>   ignoreconv true
| 18> 
| 19>   hftyp        rohf
| 20>   rohf_case    sahf
| 21>   rohf_numop   2
| 22>   rohf_norb[1] 3
| 23>   rohf_nel[1]  5
| 24> 
| 25> end
| 26> 
| 27> %basis
| 28>   NewECP 53
| 29>     N_core 28
| 30>     lmax f
| 31>     s 7
| 32>       1      40.0158350000     49.9942930000  2
| 33>       2      17.4297470000    281.0253170000  2
| 34>       3       9.0054840000     61.5733260000  2
| 35>       4      19.4586090000     21.8420400000  2
| 36>       5      19.3492600000     28.4681910000  2
| 37>       6       4.8237670000      0.2437130000  2
| 38>       7       4.8843150000      0.3208040000  2
| 39>     p 8
| 40>       1      15.3554660000     67.4428410000  2
| 41>       2      14.9718330000    134.8811370000  2
| 42>       3       8.9601640000     14.6750510000  2
| 43>       4       8.2590960000     29.3756660000  2
| 44>       5      19.4586090000     21.8420400000  2
| 45>       6      19.3492600000     28.4681910000  2
| 46>       7       4.8237670000      0.2437130000  2
| 47>       8       4.8843150000      0.3208040000  2
| 48>     d 10
| 49>       1      15.0689080000     35.4395290000  2
| 50>       2      14.5553220000     53.1760570000  2
| 51>       3       6.7186470000      9.0671950000  2
| 52>       4       6.4563930000     13.2069370000  2
| 53>       5       1.1917790000      0.0893350000  2
| 54>       6       1.2911570000      0.0523800000  2
| 55>       7      19.4586090000     21.8420400000  2
| 56>       8      19.3492600000     28.4681910000  2
| 57>       9       4.8237670000      0.2437130000  2
| 58>      10       4.8843150000      0.3208040000  2
| 59>     f 4
| 60>       1      19.4586090000    -21.8420400000  2
| 61>       2      19.3492600000    -28.4681910000  2
| 62>       3       4.8237670000     -0.2437130000  2
| 63>       4       4.8843150000     -0.3208040000  2
| 64>   end
| 65>   NewGTO 53
| 66>     s 5 
| 67>      1    5899.5791533000      0.0002610056
| 68>      2     898.5423876500      0.0016697400
| 69>      3     200.3723791200      0.0046223298
| 70>      4      31.4180538400     -0.0425342684
| 71>      5      15.6459878380      1.0368318419
| 72>     s 2 
| 73>      1      11.8157418570      0.6170236114
| 74>      2       6.4614458287      0.3988672596
| 75>     s 1 
| 76>      1       2.3838067579      1.0000000000
| 77>     s 1 
| 78>      1       1.1712089662      1.0000000000
| 79>     s 1 
| 80>      1       0.3211587576      1.0000000000
| 81>     s 1 
| 82>      1       0.1238791936      1.0000000000
| 83>     p 3 
| 84>      1     185.4336245500      0.0036816968
| 85>      2      20.0914081460      0.2834163906
| 86>      3       9.7577022390     -1.2308580344
| 87>     p 4 
| 88>      1      13.0683079120     -0.0375005622
| 89>      2       3.5818714205      0.2877848551
| 90>      3       2.0282441852      0.5305527579
| 91>      4       1.0181492146      0.2544110465
| 92>     p 1 
| 93>      1       0.4667377312      1.0000000000
| 94>     p 1 
| 95>      1       0.1924259796      1.0000000000
| 96>     p 1 
| 97>      1       0.0745088785      1.0000000000
| 98>     d 6 
| 99>      1     124.2034106200      0.0007100290
|100>      2      34.5873118010      0.0055840920
|101>      3      12.7673280640     -0.0214953156
|102>      4       4.7745100133      0.2312294668
|103>      5       2.4582209028      0.4692904315
|104>      6       1.1923708147      0.4092330422
|105>     d 1 
|106>      1       0.5288397191      1.0000000000
|107>     d 1 
|108>      1       0.1700816431      1.0000000000
|109>   end
|110>   NewAuxGTO 53
|111>     S 1
|112>      1 1310.72 1.0
|113>     S 1
|114>      1  655.36 1.0
|115>     S 1
|116>      1  327.68 1.0
|117>     S 1
|118>      1  163.84 1.0
|119>     S 1
|120>      1   81.82 1.0
|121>     S 1
|122>      1   40.96 1.0
|123>     S 1
|124>      1   20.48 1.0
|125>     S 1
|126>      1   10.24 1.0
|127>     S 1
|128>      1    5.12 1.0
|129>     S 1
|130>      1    2.56 1.0
|131>     S 1
|132>      1    1.28 1.0
|133>     S 1
|134>      1    0.64 1.0
|135>     S 1
|136>      1    0.32 1.0
|137>     S 1
|138>      1    0.16 1.0
|139>     S 1
|140>      1    0.08 1.0
|141>     S 1
|142>      1    0.04 1.0
|143>     S 1
|144>      1    0.02 1.0
|145>     S 1
|146>      1    0.01 1.0
|147>   end
|148> end
|149> 
|150> * xyz 0 2
|151> 53  0.0 0.0 0.0
|152> *
|153> 
|154> 
|155>                          ****END OF INPUT****
================================================================================

                       ****************************
                       * Single Point Calculation *
                       ****************************

---------------------------------
CARTESIAN COORDINATES (ANGSTROEM)
---------------------------------
  I      0.000000    0.000000    0.000000

----------------------------
CARTESIAN COORDINATES (A.U.)
----------------------------
  NO LB      ZA    FRAG     MASS         X           Y           Z
   0 I    25.0000*   0   126.900    0.000000    0.000000    0.000000
* core charge reduced due to ECP

--------------------------------
INTERNAL COORDINATES (ANGSTROEM)
--------------------------------
 I      0   0   0     0.000000000000     0.00000000     0.00000000

---------------------------
INTERNAL COORDINATES (A.U.)
---------------------------
 I      0   0   0     0.000000000000     0.00000000     0.00000000

---------------------
BASIS SET INFORMATION
---------------------
There are 1 groups of distinct atoms

 Group   1 Type I   : 11s10p8d contracted to 6s5p3d pattern {521111/34111/611}

Atom   0I    basis set group =>   1
---------------------------------
AUXILIARY/J BASIS SET INFORMATION
---------------------------------
There are 1 groups of distinct atoms

 Group   1 Type I   : 18s contracted to 18s pattern {111111111111111111}

Atom   0I    basis set group =>   1
-------------------------
ECP PARAMETER INFORMATION
-------------------------

 Group 1, Type I  ECP (replacing 28 core electrons, lmax=3)

Atom   0I    ECP group =>   1

------------------------------------------------------------------------------
                             ORCA STARTUP CALCULATIONS
------------------------------------------------------------------------------
------------------------------------------------------------------------------
                   ___                                                        
                  /   \      - P O W E R E D   B Y -                         
                 /     \                                                     
                 |  |  |   _    _      __       _____    __    __             
                 |  |  |  | |  | |    /  \     |  _  \  |  |  /  |          
                  \  \/   | |  | |   /    \    | | | |  |  | /  /          
                 / \  \   | |__| |  /  /\  \   | |_| |  |  |/  /          
                |  |  |   |  __  | /  /__\  \  |    /   |      \           
                |  |  |   | |  | | |   __   |  |    \   |  |\   \          
                \     /   | |  | | |  |  |  |  | |\  \  |  | \   \       
                 \___/    |_|  |_| |__|  |__|  |_| \__\ |__|  \__/        
                                                                              
                      - O R C A' S   B I G   F R I E N D -                    
                                      &                                       
                       - I N T E G R A L  F E E D E R -                       
                                                                              
 v1 FN, 2020, v2 2021, v3 2022-2024                                           
------------------------------------------------------------------------------


----------------------
SHARK INTEGRAL PACKAGE
----------------------

Number of atoms                             ...      1
Number of basis functions                   ...     36
Number of shells                            ...     14
Maximum angular momentum                    ...      2
Integral batch strategy                     ... SHARK/LIBINT Hybrid
RI-J (if used) integral strategy            ... SPLIT-RIJ (Revised 2003 algorithm where possible)
Printlevel                                  ...      1
Contraction scheme used                     ... SEGMENTED contraction
Prescreening option                         ... SCHWARTZ
   Thresh                                   ... 1.000e-10
   Tcut                                     ... 1.000e-11
   Tpresel                                  ... 1.000e-11 
Coulomb Range Separation                    ... NOT USED
Exchange Range Separation                   ... NOT USED
Multipole approximations                    ... NOT USED
Finite Nucleus Model                        ... NOT USED
CABS basis                                  ... NOT available
Auxiliary Coulomb fitting basis             ... AVAILABLE
   # of basis functions in Aux-J            ...     18
   # of shells in Aux-J                     ...     18
   Maximum angular momentum in Aux-J        ...      0
Auxiliary J/K fitting basis                 ... NOT available
Auxiliary Correlation fitting basis         ... NOT available
Auxiliary 'external' fitting basis          ... NOT available

Checking pre-screening integrals            ... done (  0.0 sec) Dimension = 14
   => SHARK Basis and OBASIS are compatible. Storing Pre-screening
Shell pair information
Shell pair cut-off parameter TPreSel        ...   1.0e-11
Total number of shell pairs                 ...       105
Shell pairs after pre-screening             ...       105
Total number of primitive shell pairs       ...       470
Primitive shell pairs kept                  ...       470
          la=0 lb=0:     21 shell pairs
          la=1 lb=0:     30 shell pairs
          la=1 lb=1:     15 shell pairs
          la=2 lb=0:     18 shell pairs
          la=2 lb=1:     15 shell pairs
          la=2 lb=2:      6 shell pairs

Checking whether 4 symmetric matrices of dimension 36 fit in memory
:Max Core in MB      =   4096.00
 MB in use           =      1.35
 MB left             =   4094.65
 MB needed           =      0.02
 Data fit in memory  = YES
Calculating RI/J V-Matrix + Cholesky decomp.... done (  0.0 sec)
Calculating Nuclear repulsion               ... done (  0.0 sec) ENN=      0.000000000000 Eh

Diagonalization of the overlap matrix:
Smallest eigenvalue                        ... 5.863e-03
Time for diagonalization                   ...    0.000 sec
Threshold for overlap eigenvalues          ... 1.000e-07
Number of eigenvalues below threshold      ... 0
Time for construction of square roots      ...    0.000 sec
Total time needed                          ...    0.001 sec

-------------------
DFT GRID GENERATION
-------------------

General Integration Accuracy     IntAcc      ... 4.388
Radial Grid Type                 RadialGrid  ... OptM3 with GC (2021)
Angular Grid (max. ang.)         AngularGrid ... 4 (Lebedev-302)
Angular grid pruning method      GridPruning ... 4 (adaptive)
Weight generation scheme         WeightScheme... mBecke (2022)
Basis function cutoff            BFCut       ... 1.0000e-10
Integration weight cutoff        WCut        ... 1.0000e-14
Partially contracted basis set               ... off
Rotationally invariant grid construction     ... off
Angular grids for H and He will be reduced by one unit

Total number of grid points                  ...    11810
Total number of batches                      ...      185
Average number of points per batch           ...       63
Average number of grid points per atom       ...    11810
Grids setup in   0.3 sec
Initializing property integral containers    ... done (  0.0 sec)

SHARK setup successfully completed in   0.5 seconds

Maximum memory used throughout the entire STARTUP-calculation: 7.7 MB
-------------------------------------------------------------------------------
                                 ORCA GUESS
                   Start orbitals & Density for SCF / CASSCF
-------------------------------------------------------------------------------

------------
SCF SETTINGS
------------
Hamiltonian:
 Ab initio Hamiltonian  Method          .... Hartree-Fock(GTOs)


General Settings:
 Integral files         IntName         .... reactant_optfreq_atom53
 Hartree-Fock type      HFTyp           .... ROHF
 Total Charge           Charge          ....    0
 Multiplicity           Mult            ....    2
 Number of Electrons    NEL             ....   25
 Basis Dimension        Dim             ....   36
 Nuclear Repulsion      ENuc            ....      0.0000000000 Eh

Convergence Acceleration:
 AO-DIIS                CNVDIIS         .... on
   Start iteration      DIISMaxIt       ....    12
   Startup error        DIISStart       ....  0.200000
   # of expansion vecs  DIISMaxEq       ....     8
   Bias factor          DIISBfac        ....   1.050
   Max. coefficient     DIISMaxC        ....  10.000
 MO-DIIS                CNVKDIIS        .... off
 Trust-Rad. Augm. Hess. CNVTRAH         .... off
 SOSCF                 CNVSOSCF           .... on
   Start iteration     SOSCFMaxIt         ....   150
   Startup grad/error  SOSCFStart         ....  0.000100
   Hessian update      SOSCFHessUp        .... L-BFGS
   Autom. constraints  SOSCFAutoConstrain .... off
 Level Shifting         CNVShift        .... on
   Level shift para.    LevelShift      ....    1.0000
   Turn off err/grad.   ShiftErr        ....    0.0010
 Zerner damping         CNVZerner       .... off
 Static damping         CNVDamp         .... on
   Fraction old density DampFac         ....    0.7000
   Max. Damping (<1)    DampMax         ....    0.9800
   Min. Damping (>=0)   DampMin         ....    0.0000
   Turn off err/grad.   DampErr         ....    0.1000

SCF Procedure:
 Maximum # iterations   MaxIter         ....  1000
 SCF integral mode      SCFMode         .... Direct
   Integral package                     .... SHARK and LIBINT hybrid scheme
 Reset frequency        DirectResetFreq ....    20
 Integral Threshold     Thresh          ....  1.000e-10 Eh
 Primitive CutOff       TCut            ....  1.000e-11 Eh

Convergence Tolerance:
 Convergence Check Mode ConvCheckMode   .... Total+1el-Energy
 Convergence forced     ConvForced      .... -1
 Energy Change          TolE            ....  1.000e-06 Eh
 1-El. energy change                    ....  1.000e-03 Eh
 Orbital Gradient       TolG            ....  5.000e-05
 Orbital Rotation angle TolX            ....  5.000e-05
 DIIS Error             TolErr          ....  1.000e-06


--------------------
INITIAL GUESS: HCORE
--------------------

Orthogonalizing HCORE                      ... done
Diagonalizing the Hamiltonian (no sym.)    ... done
Back transforming and storing orbitals     ... done
AVERAGE-CONFIGURATION (SAHF) CASE FOUND

-------------------
FINAL ROHF SETTINGS
-------------------
Number of operators             ... 2
  operator   0:  10 orbitals  20 electrons n(mue)= 2.000
  operator   1:   3 orbitals   5 electrons n(mue)= 1.667
Vector coupling coefficients a and b (Zerner convention):
   1.000    1.000           1.000    1.000 
   1.000    0.960           1.000    0.960 


   => ROHF data were saved in the ROHF file

Making the density                         ... done

                      -----------------
                      INTIAL GUESS DONE 
                      -----------------

             **** ENERGY FILE WAS UPDATED (reactant_optfreq_atom53.en.tmp) ****
Finished Guess after   0.2 sec
Maximum memory used throughout the entire GUESS-calculation: 4.2 MB

-------------------------------------------------------------------------------------------
                                      ORCA LEAN-SCF
                              memory conserving SCF solver
-------------------------------------------------------------------------------------------

----------------------------------------D-I-I-S--------------------------------------------
Iteration    Energy (Eh)           Delta-E    RMSDP     MaxDP     DIISErr   Damp  Time(sec)
-------------------------------------------------------------------------------------------
               ***  Starting incremental Fock matrix formation  ***
    1    -281.7765645401057100     0.00e+00  1.91e-01  4.35e+00  2.56e+00  0.700   0.2
    2    -286.4493583519770823    -4.67e+00  1.34e-01  3.05e+00  6.85e-01  0.700   0.3
                               ***Turning on AO-DIIS***
    3    -289.5246045365369696    -3.08e+00  9.28e-02  2.10e+00  1.45e-01  0.700   0.2
    4    -291.5621402899901682    -2.04e+00  6.39e-02  1.41e+00  1.06e-01  0.700   0.3
    5    -293.0285973479572021    -1.47e+00  4.53e-02  1.01e+00  3.91e-02  0.700   0.3
    6    -294.0705398291324855    -1.04e+00  1.06e-01  2.35e+00  2.07e-02  0.000   0.1
    7    -296.5422199125086991    -2.47e+00  2.27e-03  2.12e-02  5.20e-02  0.000   0.1
    8    -296.5565315889634803    -1.43e-02  2.33e-03  2.94e-02  2.12e-02  0.000   0.1
    9    -296.5621929151210452    -5.66e-03  3.46e-03  4.27e-02  1.93e-02  0.000   0.2
   10    -296.5639882750267589    -1.80e-03  3.37e-03  4.58e-02  1.52e-02  0.000   0.1
   11    -296.5602984142936975     3.69e-03  4.72e-04  7.14e-03  2.91e-02  0.000   0.2
   12    -296.5602856949148531     1.27e-05  6.22e-04  1.00e-02  3.33e-02  0.000   0.2
   13    -296.5609827171560937    -6.97e-04  2.16e-03  3.00e-02  2.98e-02  0.000   0.1
   14    -296.5653625464432253    -4.38e-03  8.99e-04  1.00e-02  1.01e-02  0.000   0.1
   15    -296.5663545653443975    -9.92e-04  1.87e-04  2.17e-03  1.33e-03  0.000   0.2
   16    -296.5663857099782490    -3.11e-05  2.46e-04  3.32e-03  9.67e-04  0.000   0.2
   17    -296.5663996563103524    -1.39e-05  7.47e-05  1.16e-03  2.97e-04  0.000   0.3
                              *** Initializing SOSCF ***
---------------------------------------S-O-S-C-F--------------------------------------
Iteration    Energy (Eh)           Delta-E    RMSDP     MaxDP     MaxGrad    Time(sec)
--------------------------------------------------------------------------------------
   18    -296.5664005239289622    -8.68e-07  8.01e-06  1.67e-04  4.73e-05     0.2
               *** Restarting incremental Fock matrix formation ***
   19    -296.5664005339911569    -1.01e-08  1.10e-06  2.69e-05  8.28e-06     0.2
                  *** Gradient check signals convergence ***

               *****************************************************
               *                     SUCCESS                       *
               *           SCF CONVERGED AFTER  19 CYCLES          *
               *****************************************************

             **** ENERGY FILE WAS UPDATED (reactant_optfreq_atom53.en.tmp) ****

----------------
TOTAL SCF ENERGY
----------------

Total Energy       :       -296.56640053405386 Eh           -8069.98203 eV

Components:
Nuclear Repulsion  :          0.00000000000000 Eh               0.00000 eV
Electronic Energy  :       -296.56640053405386 Eh           -8069.98203 eV
One Electron Energy:       -516.81641600237128 Eh          -14063.28964 eV
Two Electron Energy:        220.25001546831743 Eh            5993.30761 eV

Virial components:
Potential Energy   :       -408.74190543493103 Eh          -11122.43270 eV
Kinetic Energy     :        112.17550490087716 Eh            3052.45067 eV
Virial Ratio       :          3.64377147930925

---------------
SCF CONVERGENCE
---------------

  Last Energy change         ...    1.0062e-08  Tolerance :   1.0000e-06
  Last MAX-Density change    ...    2.6915e-05  Tolerance :   1.0000e-05
  Last RMS-Density change    ...    1.1022e-06  Tolerance :   1.0000e-06
  Last DIIS Error            ...    4.7348e-05  Tolerance :   1.0000e-06
  Last Orbital Gradient      ...    8.2841e-06  Tolerance :   5.0000e-05
  Last Orbital Rotation      ...    6.2171e-06  Tolerance :   5.0000e-05


----------------
ORBITAL ENERGIES
----------------

  NO   OCC          E(Eh)            E(eV) 
   0   2.0000      -7.795865      -212.1363 
   1   2.0000      -5.637151      -153.3947 
   2   2.0000      -5.637151      -153.3947 
   3   2.0000      -5.637151      -153.3947 
   4   2.0000      -2.313725       -62.9596 
   5   2.0000      -2.313725       -62.9596 
   6   2.0000      -2.313725       -62.9596 
   7   2.0000      -2.313725       -62.9596 
   8   2.0000      -2.313725       -62.9596 
   9   2.0000      -0.876941       -23.8628 
  10   1.6667      -0.402124       -10.9423 
  11   1.6667      -0.402124       -10.9423 
  12   1.6667      -0.402124       -10.9423 
  13   0.0000       0.218345         5.9415 
  14   0.0000       0.218345         5.9415 
  15   0.0000       0.218345         5.9415 
  16   0.0000       0.289112         7.8671 
  17   0.0000       0.289112         7.8671 
  18   0.0000       0.289112         7.8671 
  19   0.0000       0.289112         7.8671 
  20   0.0000       0.289112         7.8671 
  21   0.0000       0.393637        10.7114 
  22   0.0000       1.305557        35.5260 
  23   0.0000       1.305557        35.5260 
*Only the first 10 virtual orbitals were printed.

Warning: MO coefficients are modified such that the real solid harmonic m components
have the correct order within each shell (0, +1, -1, +2, -2, ...) and all s orbitals
come before all p orbitals etc. (with increasing orbital energy within each block of given angular momentum).

--------------------------
ATOM BASIS FOR ELEMENT I 
--------------------------
 NewGTO I 
 S 11
    1       5899.579153300000        -0.000142279684
    2        898.542387650000        -0.000910210663
    3        200.372379120000        -0.002519729940
    4         31.418053840000         0.023186331178
    5         15.645987838000        -0.565199011689
    6         11.815741857000         0.707974457162
    7          6.461445828700         0.457661305626
    8          2.383806757900        -0.877326860315
    9          1.171208966200        -0.530992554201
   10          0.321158757600        -0.024301125672
   11          0.123879193600         0.004682244955
 S 11
    1       5899.579153300000        -0.000062309133
    2        898.542387650000        -0.000398612334
    3        200.372379120000        -0.001103475792
    4         31.418053840000         0.010154086258
    5         15.645987838000        -0.247519949299
    6         11.815741857000         0.323040431446
    7          6.461445828700         0.208825479690
    8          2.383806757900        -0.557716191592
    9          1.171208966200        -0.434316475581
   10          0.321158757600         0.790775510234
   11          0.123879193600         0.507005276590
 S 11
    1       5899.579153300000        -0.000041125950
    2        898.542387650000        -0.000263096436
    3        200.372379120000        -0.000728328061
    4         31.418053840000         0.006702010152
    5         15.645987838000        -0.163370801747
    6         11.815741857000         0.219986328352
    7          6.461445828700         0.142207433100
    8          2.383806757900        -0.213806011892
    9          1.171208966200        -0.991335789583
   10          0.321158757600         2.788745693450
   11          0.123879193600        -2.160299082187
 S 11
    1       5899.579153300000         0.000280846413
    2        898.542387650000         0.001796668310
    3        200.372379120000         0.004973704571
    4         31.418053840000        -0.045767587848
    5         15.645987838000         1.115648492217
    6         11.815741857000        -1.441294355302
    7          6.461445828700        -0.931706857168
    8          2.383806757900         5.465140028504
    9          1.171208966200        -5.705601790505
   10          0.321158757600         2.635317379506
   11          0.123879193600        -1.001318060561
 S 11
    1       5899.579153300000         0.001188758819
    2        898.542387650000         0.007604887215
    3        200.372379120000         0.021052557165
    4         31.418053840000        -0.193723761766
    5         15.645987838000         4.722285636675
    6         11.815741857000        -4.208195667544
    7          6.461445828700        -2.720335887901
    8          2.383806757900         4.139220336731
    9          1.171208966200        -2.662379178793
   10          0.321158757600         0.818443092152
   11          0.123879193600        -0.293071145707
 S 11
    1       5899.579153300000         0.000986451631
    2        898.542387650000         0.006310660561
    3        200.372379120000         0.017469758388
    4         31.418053840000        -0.160755165537
    5         15.645987838000         3.918630333799
    6         11.815741857000        -2.252563598001
    7          6.461445828700        -1.456141795564
    8          2.383806757900         1.470385693677
    9          1.171208966200        -0.861589405617
   10          0.321158757600         0.253115835239
   11          0.123879193600        -0.090323072614
 P 10
    1        185.433624550000        -0.000634314032
    2         20.091408146000        -0.048829385788
    3          9.757702239000         0.212062688697
    4         13.068307912000         0.040422596885
    5          3.581871420500        -0.310208981012
    6          2.028244185200        -0.571893299750
    7          1.018149214600        -0.274234693363
    8          0.466737731200        -0.005017810538
    9          0.192425979600        -0.012131731714
   10          0.074508878500         0.003170855397
 P 10
    1        185.433624550000        -0.000206643777
    2         20.091408146000        -0.015907402644
    3          9.757702239000         0.069084763622
    4         13.068307912000         0.017392654111
    5          3.581871420500        -0.133473797446
    6          2.028244185200        -0.246068860427
    7          1.018149214600        -0.117995119920
    8          0.466737731200         0.363534965553
    9          0.192425979600         0.582357643203
   10          0.074508878500         0.257972231587
 P 10
    1        185.433624550000        -0.000099687286
    2         20.091408146000        -0.007673910244
    3          9.757702239000         0.033327268260
    4         13.068307912000         0.008557782140
    5          3.581871420500        -0.065673684569
    6          2.028244185200        -0.121074315942
    7          1.018149214600        -0.058057644531
    8          0.466737731200        -0.032170204683
    9          0.192425979600         1.362808464151
   10          0.074508878500        -1.580409428188
 P 10
    1        185.433624550000        -0.000376036810
    2         20.091408146000        -0.028947249345
    3          9.757702239000         0.125715927559
    4         13.068307912000         0.034892662985
    5          3.581871420500        -0.267771451204
    6          2.028244185200        -0.493656561162
    7          1.018149214600        -0.236718555255
    8          0.466737731200         2.484884936013
    9          0.192425979600        -2.562730603987
   10          0.074508878500         0.942355471912
 P 10
    1        185.433624550000        -0.004645579968
    2         20.091408146000        -0.357615952219
    3          9.757702239000         1.553101664607
    4         13.068307912000         0.030622670264
    5          3.581871420500        -0.235002896160
    6          2.028244185200        -0.433245295792
    7          1.018149214600        -0.207750101102
    8          0.466737731200         0.615923355888
    9          0.192425979600        -0.409645402825
   10          0.074508878500         0.137863464656
 D 8
    1        124.203410620000         0.000665356459
    2         34.587311801000         0.005232760468
    3         12.767328064000        -0.020142905546
    4          4.774510013300         0.216681317733
    5          2.458220902800         0.439764319419
    6          1.192370814700         0.383485530936
    7          0.528839719100         0.106028927640
    8          0.170081643100         0.013646848903
 D 8
    1        124.203410620000         0.000152575330
    2         34.587311801000         0.001199943495
    3         12.767328064000        -0.004619043550
    4          4.774510013300         0.049687987704
    5          2.458220902800         0.100843969036
    6          1.192370814700         0.087938473632
    7          0.528839719100        -0.006826425051
    8          0.170081643100        -1.004280922340
 D 8
    1        124.203410620000         0.000527577424
    2         34.587311801000         0.004149183870
    3         12.767328064000        -0.015971802896
    4          4.774510013300         0.171811921076
    5          2.458220902800         0.348699894068
    6          1.192370814700         0.304075065004
    7          0.528839719100        -1.479937395836
    8          0.170081643100         0.780569056538
 end
-------------------------------------------
RADIAL EXPECTATION VALUES <R**-3> TO <R**3>
-------------------------------------------
   0 :     0.000000     2.339426     1.448350     0.756875     0.626090     0.565093
   1 :     3.605956     2.085023     1.367920     0.809026     0.721824     0.708943
   2 :     3.605956     2.085023     1.367920     0.809026     0.721824     0.708943
   3 :     3.605956     2.085023     1.367920     0.809026     0.721824     0.708943
   4 :     2.986857     1.770142     1.237525     0.924987     0.974788     5.842738
   5 :     2.986857     1.770142     1.237525     0.924987     0.974788     5.842738
   6 :     2.986857     1.770142     1.237525     0.924987     0.974788     5.842738
   7 :     2.986857     1.770142     1.237525     0.924987     0.974788     5.842738
   8 :     2.986857     1.770142     1.237525     0.924987     0.974788     5.842738
   9 :     0.000000     0.478548     0.593037     2.012851     4.591169    11.677160
  10 :     0.368436     0.329900     0.488233     2.477364     7.065735    22.888750
  11 :     0.368436     0.329900     0.488233     2.477364     7.065735    22.888750
  12 :     0.368436     0.329900     0.488233     2.477364     7.065735    22.888750
  13 :     0.103606     0.113840     0.268390     4.569680    23.047232   123.351450
  14 :     0.103606     0.113840     0.268390     4.569680    23.047232   123.351450
  15 :     0.103606     0.113840     0.268390     4.569680    23.047232   123.351450
  16 :     0.159319     0.179415     0.366628     3.092600    10.323399   183.157647
  17 :     0.159319     0.179415     0.366628     3.092600    10.323399   183.157647
  18 :     0.159319     0.179415     0.366628     3.092600    10.323399   183.157647
  19 :     0.159319     0.179415     0.366628     3.092600    10.323399   183.157647
  20 :     0.159319     0.179415     0.366628     3.092600    10.323399   183.157647
  21 :     0.000000     0.289914     0.425168     3.051347    10.653670    40.213493
  22 :     0.806500     0.543218     0.577867     2.585168     9.015158    39.162813
  23 :     0.806500     0.543218     0.577867     2.585168     9.015158    39.162813
  24 :     0.806500     0.543218     0.577867     2.585168     9.015158    39.162813
  25 :     1.070508     0.680549     0.664926     2.102159     5.657600    91.540383
  26 :     1.070508     0.680549     0.664926     2.102159     5.657600    91.540383
  27 :     1.070508     0.680549     0.664926     2.102159     5.657600    91.540383
  28 :     1.070508     0.680549     0.664926     2.102159     5.657600    91.540383
  29 :     1.070508     0.680549     0.664926     2.102159     5.657600    91.540383
  30 :     0.000000     1.625966     1.027846     1.430429     2.971922     8.401419
  31 :    43.204093    10.300859     2.940945     0.452490     0.400557     0.967603
  32 :    43.204093    10.300859     2.940945     0.452490     0.400557     0.967603
  33 :    43.204093    10.300859     2.940945     0.452490     0.400557     0.967603
  34 :     0.000000    13.353608     2.733052     0.507694     0.454561     0.844461
  35 :     0.000000   104.027499     7.856451     0.186468     0.069213     0.086330
Making the total density                ... o.k.
Making exponents                        ... done
Making rho(0)                           ... done (         0.234500584)
Integral calculation                    ... Solving the equation system             ... done
atomic density will be written to file reactant_optfreq_atom53.adf

-------
TIMINGS
-------

Total SCF time: 0 days 0 hours 0 min 3 sec 

Total time                  ....       3.898 sec
Sum of individual times     ....       3.605 sec  ( 92.5%)

SCF preparation             ....       0.104 sec  (  2.7%)
Fock matrix formation       ....       3.107 sec  ( 79.7%)
  Startup                   ....       0.005 sec  (  0.2% of F)
  Coulomb+Exchange Fock     ....       3.052 sec  ( 98.2% of F)
Diagonalization             ....       0.000 sec  (  0.0%)
Density matrix formation    ....       0.025 sec  (  0.7%)
Total Energy calculation    ....       0.003 sec  (  0.1%)
Population analysis         ....       0.000 sec  (  0.0%)
Orbital Transformation      ....       0.003 sec  (  0.1%)
Orbital Orthonormalization  ....       0.000 sec  (  0.0%)
DIIS solution               ....       0.356 sec  (  9.1%)
SOSCF solution              ....       0.006 sec  (  0.2%)
Finished LeanSCF after   3.9 sec

Maximum memory used throughout the entire LEANSCF-calculation: 7.7 MB

-------------------------   --------------------
FINAL SINGLE POINT ENERGY      -296.566400534054
-------------------------   --------------------


------------------------------------------------------------------------------
                              ORCA PROPERTY CALCULATIONS
------------------------------------------------------------------------------

GBWName                                 ... reactant_optfreq_atom53.gbw
Number of atoms                         ...      1
Number of basis functions               ...     36
Max core memory                         ...   4096 MB

Electric properties:
Dipole moment                           ... YES
Quadrupole moment                       ...  NO
Static polarizability (Dipole/Dipole)   ...  NO
Static polarizability (Dipole/Quad.)    ...  NO
Static polarizability (Quad./Quad.)     ...  NO
Static polarizability (Velocity)        ...  NO
Static hyperpolarizability              ...  NO

Atomic electric properties:
Dipole moment                           ...  NO
Quadrupole moment                       ...  NO
Static polarizability                   ...  NO

Choice of electric origin               ... Center of mass
Position of electric origin             ...     0.000000     0.000000     0.000000

General magnetic properties:
Magnetizability                         ...  NO

EPR properties:
g-Tensor (aka g-matrix)                 ...  NO
Zero-Field splitting spin-orbit         ...  NO
Zero-field splitting spin-spin          ...  NO
Hyperfine couplings                     ...  NO (   0 nuclei)
Quadrupole couplings                    ...  NO (   0 nuclei)
Contact density                         ...  NO (   0 nuclei)

NMR properties:
Chemical shifts                         ...  NO (   0 nuclei)
Spin-rotation constants                 ...  NO (   0 nuclei)
Spin-spin couplings                     ...  NO (   0 nuclei,    0 pairs)

Choice of magnetic origin               ... GIAO
Position of magnetic origin             ...     0.000000     0.000000     0.000000

Properties with geometric perturbations:
SCF Hessian                             ...  NO
IR spectrum                             ...  NO
VCD spectrum                            ...  NO
X-ray spectroscopy properties:
SCF XES/XAS/RIXS spectra                ...  NO

SCF SOC stabilization energy            ...  NO
Diagonal Born-Oppenheimer correction    ...  NO

-------------
DIPOLE MOMENT
-------------

Method             : SCF
Type of density    : Electron Density
Multiplicity       :   2
Irrep              :   0
Energy             :  -296.5664005340538552 Eh
Basis              : AO
                                X                 Y                 Z
Electronic contribution:     -0.000000000      -0.000000000      -0.000000000
Nuclear contribution   :      0.000000000       0.000000000       0.000000000
                        -----------------------------------------
Total Dipole Moment    :     -0.000000000      -0.000000000      -0.000000000
                        -----------------------------------------
Magnitude (a.u.)       :      0.000000000
Magnitude (Debye)      :      0.000000000



--------------------
Rotational spectrum 
--------------------
 
Rotational constants in cm-1:             0.000000             0.000000             0.000000 
Rotational constants in MHz :             0.000000             0.000000             0.000000 

Dipole components along the rotational axes: 
x,y,z [a.u.] :    -0.000000    -0.000000    -0.000000 
x,y,z [Debye]:    -0.000000    -0.000000    -0.000000 

 

Dipole moment calculation done in   0.0 sec 

Maximum memory used throughout the entire PROP-calculation: 2.0 MB

--------------------------------
SUGGESTED CITATIONS FOR THIS RUN
--------------------------------

Below you find a list of papers that are relevant to this ORCA run
We neither can nor want to force you to cite these papers, but we appreciate if you do
You receive ORCA, which is the product of decades of hard work by many enthusiastic individuals, for free
The only thing we kindly ask in return is that you cite our papers,
We deeply appreciate it, if you show your appreciation for ORCA by not just citing the generic ORCA reference.

Please note that relegating all ORCA citations to the supporting information does *not* help us.
SI sections are not indexed - citations you put there will not count into any citation statistics
But we need these citations in order to attract the funding resources that allow us to do what we are doing

Therefore, if you are a happy ORCA user, please consider citing a few of the papers listed below in the main body of your paper

In addition to the list printed below, the program has created the file reactant_optfreq_atom53.bibtex that contains the list in bibtex format
You can import this file easily into all common literature databanks and citation aid programs


List of essential papers. We consider these as the minimum necessary citations

  1. Neese, F.
     Software update: the ORCA program system, version 6.0
     WIRES Comput. Molec. Sci. 2025 15(1), e70019
     doi.org/10.1002/wcms.7019

List of papers to cite with high priority. The work reported in these papers was absolutely
necessary for this run to complete.
Our perspective: the developers of density functionals and basis sets usually get cited in chemistry papers
Good! But without the algorithms to do something with them, the functionals or basis sets would not do anything.
Hence, in our opinion, the algorithm design and method developments papers are equally worthy of getting cited

  1. Neese, F.
     The SHARK Integral Generation and Digestion System
     J. Comp. Chem. 2022 44(3), 381
     doi.org/10.1002/jcc.26942

List of suggested additional citations. These are papers that are important in the 'surrounding' of 
of this run, or papers that preceded the highly important papers. If you like your results we are grateful for a citation.

  1. Neese, F.
     The ORCA program system
     WIRES Comput. Molec. Sci. 2012 2(1), 73-78
     doi.org/10.1002/wcms.81
  2. Neese, F.
     Software update: the ORCA program system, version 4.0
     WIRES Comput. Molec. Sci. 2018 8(1), 1-6
     doi.org/10.1002/wcms.1327
  3. Neese, F.; Wennmohs, F.; Becker, U.; Riplinger, C.
     The ORCA quantum chemistry program package
     J. Chem. Phys. 2020 152(22), 224108
     doi.org/10.1063/5.0004608
  4. Neese, F.
     Software update: The ORCA program system—Version 5.0
     WIRES Comput. Molec. Sci. 2022 12(1), e1606
     doi.org/10.1002/wcms.1606

List of optional additional citations

  1. Neese, F.
     Approximate second-order SCF convergence for spin unrestricted wavefunctions
     Chem. Phys. Lett. 2000 325(1-3), 93-98
     doi.org/10.1016/s0009-2614(00)00662-x

Timings for individual modules:

Sum of individual times          ...        5.110 sec (=   0.085 min)
Startup calculation              ...        0.692 sec (=   0.012 min)  13.5 %
SCF iterations                   ...        4.215 sec (=   0.070 min)  82.5 %
Property calculations            ...        0.203 sec (=   0.003 min)   4.0 %
                             ****ORCA TERMINATED NORMALLY****
TOTAL RUN TIME: 0 days 0 hours 0 minutes 5 seconds 513 msec
