
                                 *****************
                                 * O   R   C   A *
                                 *****************

                                            #,                                       
                                            ###                                      
                                            ####                                     
                                            #####                                    
                                            ######                                   
                                           ########,                                 
                                     ,,################,,,,,                         
                               ,,#################################,,                 
                          ,,##########################################,,             
                       ,#########################################, ''#####,          
                    ,#############################################,,   '####,        
                  ,##################################################,,,,####,       
                ,###########''''           ''''###############################       
              ,#####''   ,,,,##########,,,,          '''####'''          '####       
            ,##' ,,,,###########################,,,                        '##       
           ' ,,###''''                  '''############,,,                           
         ,,##''                                '''############,,,,        ,,,,,,###''
      ,#''                                            '''#######################'''  
     '                                                          ''''####''''         
             ,#######,   #######,   ,#######,      ##                                
            ,#'     '#,  ##    ##  ,#'     '#,    #''#        ,####,    ,#,          
            ##       ##  ##   ,#'  ##            #'  '#       #'       ,# #          
            ##       ##  #######   ##           ,######,      #####,      #          
            '#,     ,#'  ##    ##  '#,     ,#' ,#      #,     #,   #      #          
             '#######'   ##     ##  '#######'  #'      '#     '####' #    #          



                #########################################################
                #                        -***-                          #
                #          Department of theory and spectroscopy        #
                #                                                       #
                #                      Frank Neese                      #
                #                                                       #
                #     Directorship, Architecture, Infrastructure        #
                #                    SHARK, DRIVERS                     #
                #        Core code/Algorithms in most modules           #
                #                                                       #
                #        Max Planck Institute fuer Kohlenforschung      #
                #                Kaiser Wilhelm Platz 1                 #
                #                 D-45470 Muelheim/Ruhr                 #
                #                      Germany                          #
                #                                                       #
                #                  All rights reserved                  #
                #                        -***-                          #
                #########################################################


                         Program Version 6.1.0  -  RELEASE   -
                                (GIT: $679e74b$)
                          ($2025-06-10 18:02:51 +0200$)


 With contributions from (in alphabetic order):
[Max-Planck-Institut fuer Kohlenforschung]                               
  Daniel Aravena         : Magnetic Suceptibility                        
  Michael Atanasov       : Ab Initio Ligand Field Theory (pilot matlab implementation)
  Alexander A. Auer      : GIAO ZORA, VPT2 properties, NMR spectrum      
  Ute Becker             : All parallelization in ORCA, NUMFREQ, NUMCALC 
  Giovanni Bistoni       : ED, misc. LED, open-shell LED, HFLD           
  Dmytro Bykov           : pre 5.0 version of the SCF Hessian            
  Marcos Casanova-Páez   : Triplet and SCS-CIS(D). UHF-(DLPNO)-IP/EA/STEOM-CCSD. UHF-CVS-IP/STEOM-CCSD   
  Vijay G. Chilkuri      : MRCI spin determinant printing, contributions to CSF-ICE 
  Pauline Colinet        : FMM embedding                                 
  Dipayan Datta          : RHF DLPNO-CCSD density                        
  Achintya Kumar Dutta   : EOM-CC, STEOM-CC                              
  Nicolas Foglia         : Exact transition moments, OPA infrastructure, MCD improvements    
  Dmitry Ganyushin       : Spin-Orbit,Spin-Spin,Magnetic field MRCI      
  Miquel Garcia-Rates    : C-PCM and meta-GGA Hessian, CCSD/C-PCM, Gaussian charge scheme 
  Tiago L. C. Gouveia    : GS-ROHF, GS-ROCIS                             
  Yang Guo               : DLPNO-NEVPT2, F12-NEVPT2, CIM, IAO-localization        
  Andreas Hansen         : Spin unrestricted coupled pair/coupled cluster methods 
  Ingolf Harden          : AUTO-CI MPn and infrastructure                
  Benjamin Helmich-Paris : MC-RPA, TRAH-(SCF,CASSCF), AVAS, COSX integrals, SCF dyn. polar., MC-PDFT, srDFT 
  Lee Huntington         : MR-EOM, pCC                                   
  Robert Izsak           : Overlap fitted RIJCOSX, COSX-SCS-MP3, EOM     
  Riya Kayal             : Wick's Theorem for AUTO-CI, AUTO-CI UHF-CCSDT 
  Emily Kempfer          : AUTO-CI RHF CISDT and CCSDT, approximate NEVPT4
  Christian Kollmar      : KDIIS, OOCD, Brueckner-CCSD(T), CCSD density, CASPT2, CASPT2-K, improved NEVPT2 
  Axel Koslowski         : Symmetry handling                             
  Simone Kossmann        : meta-GGA functionals, TD-DFT gradient, OOMP2, (MP2 Hessian; deprecated post 5.0) 
  Lucas Lang             : DCDCAS, Hyperfine gauge corrections, ICE-SOC+SSC
  Marvin Lechner         : AUTO-CI (C++ implementation), FIC-MRCC        
  Spencer Leger          : CASSCF response                               
  Dagmar Lenk            : GEPOL surface, SMD, ORCA-2-JSON               
  Dimitrios Liakos       : Extrapolation schemes; Compound Job, Property file
  Dimitrios Manganas     : Further ROCIS development; embedding schemes. LFT, Crystal Embedding 
  Dimitrios Pantazis     : SARC Basis sets                               
  Anastasios Papadopoulos: AUTO-CI, single reference methods and gradients 
  Taras Petrenko         : pre 6.0 DFT Hessian and TD-DFT gradient,  ECA, NRVS 
  Petra Pikulova         : Analytic Raman intensities                    
  Peter Pinski           : DLPNO-MP2, DLPNO-MP2 Gradient                 
  Shashank Vittal Rao    : ES-AILFT, MagRelax                            
  Christoph Reimann      : Effective Core Potentials                     
  Marius Retegan         : Local ZFS, SOC                                
  Christoph Riplinger    : Optimizer, TS searches, QM/MM, DLPNO-CCSD(T), (RO)-DLPNO pert. Triples 
  Michael Roemelt        : Original ROCIS implementation, recursive CI coupling coefficients
  Masaaki Saitow         : Open-shell DLPNO-CCSD energy and density      
  Barbara Sandhoefer     : DKH picture change effects                    
  Yorick L. A. Schmerwitz: GMF and freeze-and-release deltaSCF, NEB S-IDPP initial path                    
  Kantharuban Sivalingam : CASSCF convergence/infrastructure, NEVPT2, NEVPT3, NEVPT4(SD), FIC-MRCI and CEPA variants
  Bernardo de Souza      : ESD, SOC TD-DFT                               
  Georgi L. Stoychev     : AutoAux, RI-MP2 NMR, DLPNO-MP2 response, X2C  
  Van Anh Tran           : RI-MP2 g-tensors                              
  Willem Van den Heuvel  : Paramagnetic NMR                              
  Zikuan Wang            : NOTCH, Electric field optimization            
  Frank Wennmohs         : Technical directorship and infrastructure     
  Hang Xu                : AUTO-CI-Response properties                   
                                                                         
[FACCTs GmbH]                                                            
  Markus Bursch, Nicolas Foglia, Miquel Garcia-Rates, Ingolf Harden, Hagen Neugebauer, Anastasios Papadopoulos, 
  Christoph Riplinger, Bernardo de Souza, Georgi L. Stoychev                                                    
                                                                 
  APM, various basis sets, CI-OPT, improved COSX, DLPNO-Multilevel,           
  DOCKER, DRACO, updates on ESD, Fragmentator, GOAT, IRC, LR-CPCM, L-BFGS, MBIS, meta-GGA TD-DFT gradient, ML-optimized integration grids, 
  MM, NACMEs, nearIR, NEB, NEB-TS, NL-DFT gradient (VV10), 2- and 3-layer-ONIOM, interface openCOSMO-RS, QMMM,   
  Crystal-QMMM, RESP, rigid body optimization, SF, symmetry and pop. for TD-DFT, various functionals, SOLVATOR                                   
                                                                         
[Other institutions]                                                     
  V. Asgeirsson          : NEB                                           
  Christoph Bannwarth    : sTDA-DFT, sTD-DFT, PBEh-3c, B97-3c, D3        
  Giovanni Bistoni       : ETS/NOCV, ADLD/ADEX, COVALED                  
  Martin Brehm           : Molecular dynamics                            
  Ronald Cardenas        : ETS/NOCV                                      
  Martina Colucci        : COVALED                                       
  Sebastian Ehlert       : rSCAN, r2SCAN, r2SCAN-3c, D4, dhf basis sets  
  Marvin Friede          : D4 for Fr, Ra, Ac-Lr                          
  Lars Goerigk           : TD-DFT with DH, B97 family of functionals     
  Stefan Grimme          : VdW corrections, initial TS optimization, DFT functionals, gCP, sTDA/sTD-DF 
  Waldemar Hujo          : DFT-NL                                        
  H. Jonsson             : NEB                                           
  Holger Kruse           : gCP                                           
  Marcel Mueller         : wB97X-3c, vDZP basis set                      
  Hagen Neugebauer       : wr2SCAN, Native XTB                           
  Gianluca Regni         : ADLD/ADEX                                     
  Tobias Risthaus        : pre 6.0 range-separated hybrid DFT and stability analysis
  Lukas Wittmann         : regularized MP2, r2SCAN double-hybrids, wr2SCAN        
                                                                         
We gratefully acknowledge several colleagues who have allowed us to      
interface, adapt or use parts of their codes:                            
  Ed Valeev, F. Pavosevic, A. Kumar             : LibInt (2-el integral package), F12 methods 
  Garnet Chan, S. Sharma, J. Yang, R. Olivares  : DMRG                   
  Ulf Ekstrom                                   : XCFun DFT Library      
  Mihaly Kallay                                 : mrcc  (arbitrary order and MRCC methods)
  Frank Weinhold                                : gennbo (NPA and NBO analysis)           
  Simon Mueller                                 : openCOSMO-RS                            
  Christopher J. Cramer and Donald G. Truhlar   : smd solvation model                     
  S Lehtola, MJT Oliveira, MAL Marques          : LibXC Library                           
  Liviu Ungur et al                             : ANISO software                          


 Your calculation uses the libint2 library for the computation of 2-el integrals
 For citations please refer to: http://libint.valeyev.net

 Your ORCA version has been built with support for libXC version: 7.0.0
 For citations please refer to: https://libxc.gitlab.io

 This ORCA versions uses:
   CBLAS   interface :  Fast vector & matrix operations
   LAPACKE interface :  Fast linear algebra routines
   SCALAPACK package :  Parallel linear algebra routines
   Shared memory     :  Shared parallel matrices
   BLAS/LAPACK       :  OpenBLAS 0.3.29  USE64BITINT DYNAMIC_ARCH NO_AFFINITY SkylakeX SINGLE_THREADED
        Core in use  :  SkylakeX
   Copyright (c) 2011-2014, The OpenBLAS Project


  ***********************************
  * Starting time: Thu Mar 12 13:14:34 2026
  * Host name:     midway3-login4.rcc.local
  * Process ID:    2975340
  * Working dir.:  /home/rzhu16/orca_TS_search/sn2_f_i/DFT_test
  ***********************************

Your calculation utilizes the geometrical counterpoise correction gCP
Please cite in your paper:
H.Kruse, S. Grimme J.Chem.Phys., 136, (2012), 154101 
   

Your calculation utilizes the atom-pairwise dispersion correction
based on EEQ partial charges (D4)


================================================================================

cite the ECPs for I  [Def2-ECP] as follows:
Ce-Yb(ecp-28): M. Dolg, H. Stoll, H.Preuss, J. Chem. Phys., 1989, 90, 1730-1734.
Y-Cd(ecp-28), Hf-Hg(ecp-46): D. Andrae,U. Haeussermann, M. Dolg, H. Stoll, H. Preuss, Theor. Chim. Acta, 1990, 77, 123-141.
In-Sb(ecp-28), Tl-Bi(ecp-46): B. Metz, H. Stoll, M. Dolg, J. Chem. Phys., 2000, 113, 2563-2569.
Te-Xe(ecp-28), Po-Rn(ecp-46): K. A. Peterson, D. Figgen, E. Goll, H. Stoll, M. Dolg, J. Chem. Phys., 2003, 119, 11113-11123.
Rb(ecp-28), Cs(ecp-46): T. Leininger, A. Nicklass, W. Kuechle, H. Stoll, M. Dolg, A. Bergner, Chem. Phys. Lett., 1996, 255, 274-280.
Sr(ecp-28), Ba(ecp-46): M. Kaupp, P. V. Schleyer, H. Stoll and H. Preuss, J. Chem. Phys., 1991, 94, 1360-1366.
La(ecp-46): M. Dolg, H. Stoll, A. Savin, H. Preuss, Theor. Chim. Acta, 1989, 75, 173-194.
Lu(ecp-28): X. Cao, M. Dolg, J. Chem. Phys., 2001, 115, 7348-7355.
Fr-Ra(ecp-78) K. Eichkorn, F. Weigend, O. Treutler, R. Ahlrichs, Theor. Chem. Acc. 1997, 97, 119.
Ac-Lr(ecp-60) K. Eichkorn, F. Weigend, O. Treutler, R. Ahlrichs, Theor. Chem. Acc. 1997, 97, 119.

ECP parameters for I  [Def2-ECP] have been obtained from:
TURBOMOLE (7.0.2)

----- Orbital basis set information -----
Your calculation utilizes the basis: def2-mTZVPP
   Stefan Grimme, Andreas Hansen, Sebastian Ehlert, and Jan-Michael Mewes 
   J. Chem. Phys. 154, 064103 (2021). DOI: 10.1063/5.0040021

----- AuxJ basis set information -----
Your calculation utilizes the basis: def2-mTZVPP/J
   Stefan Grimme, Andreas Hansen, Sebastian Ehlert, and Jan-Michael Mewes 
   J. Chem. Phys. 154, 000000 (2021). DOI: 10.1063/5.0040021

================================================================================
                                        WARNINGS
                       Please study these warnings very carefully!
================================================================================



WARNING: SCAN, rSCAN, or r2SCAN functional requested.
  ===> : libXC variant has now been activated.



WARNING: Geometry Optimization
  ===> : Switching off AutoStart
         For restart on a previous wavefunction, please use MOREAD

================================================================================
                                       INPUT FILE
================================================================================
NAME = product_optfreq.inp
|  1> ! r2SCAN-3c Opt Freq PAL8 TightSCF
|  2> 
|  3> %pal
|  4>    nprocs 8
|  5> end
|  6> 
|  7> %scf
|  8>    MaxIter 150
|  9> end
| 10> 
| 11> * xyz -1 1
| 12>   C       0.000007      0.183295      0.372103
| 13>   H       0.000066      1.253018      0.221952
| 14>   H       0.912392     -0.356720      0.227036
| 15>   H      -0.912395     -0.356666      0.227074
| 16>   F      -0.000061      0.306127      2.001640
| 17>   I      -0.000122      0.292696     -2.423039
| 18> *
| 19> 
| 20>                          ****END OF INPUT****
================================================================================

                       *****************************
                       * Geometry Optimization Run *
                       *****************************

Geometry optimization settings:
Update method            Update   .... BFGS
Choice of coordinates    CoordSys .... (2022) Redundant Internals
Initial Hessian          InHess   .... Almloef's Model
Max. no of cycles        MaxIter  .... 50

Convergence Tolerances:
Energy Change            TolE     ....  5.0000e-06 Eh
Max. Gradient            TolMAXG  ....  3.0000e-04 Eh/bohr
RMS Gradient             TolRMSG  ....  1.0000e-04 Eh/bohr
Max. Displacement        TolMAXD  ....  4.0000e-03 bohr
RMS Displacement         TolRMSD  ....  2.0000e-03 bohr
Strict Convergence                .... False

------------------------------------------------------------------------------
                        ORCA OPTIMIZATION COORDINATE SETUP
------------------------------------------------------------------------------

The optimization will be done in redundant internal coordinates (2022)
Making redundant internal coordinates   ...  (2022 redundants) done
Evaluating the initial hessian          ...  (Almloef) done
Evaluating the coordinates              ...  done
Calculating the B-matrix                .... done
Calculating the G-matrix                .... done
The number of degrees of freedom        ....   18

    -----------------------------------------------------------------
                    Redundant Internal Coordinates


    -----------------------------------------------------------------
         Definition                    Initial Value    Approx d2E/dq
    -----------------------------------------------------------------
      1. B(H   1,C   0)                  1.0802         0.373287   
      2. B(H   2,C   0)                  1.0701         0.387416   
      3. B(H   3,C   0)                  1.0701         0.387441   
      4. B(F   4,C   0)                  1.6342         0.212044   
      5. B(I   5,H   1)                  2.8139         0.010000   
      6. B(I   5,H   3)                  2.8770         0.010000   
      7. B(I   5,C   0)                  2.7973         0.011940   
      8. B(I   5,H   2)                  2.8770         0.010000   
      9. A(H   1,C   0,H   3)          118.7447         0.295888   
     10. A(H   2,C   0,H   3)          116.9987         0.297635   
     11. A(H   1,C   0,F   4)           93.6794         0.294827   
     12. A(H   2,C   0,F   4)           99.9709         0.296565   
     13. A(H   3,C   0,F   4)           99.9647         0.296569   
     14. A(H   1,C   0,I   5)           79.7685         0.207072   
     15. A(H   2,C   0,I   5)           83.3569         0.208069   
     16. A(H   3,C   0,I   5)           83.3542         0.208071   
     17. A(F   4,C   0,I   5)          173.4479         0.207461   
     18. A(H   1,C   0,H   2)          118.7411         0.295885   
    -----------------------------------------------------------------

Number of atoms                         .... 6
Number of degrees of freedom            .... 18


         *************************************************************
         *                GEOMETRY OPTIMIZATION CYCLE   1            *
         *************************************************************
---------------------------------
CARTESIAN COORDINATES (ANGSTROEM)
---------------------------------
  C      0.000007    0.183295    0.372103
  H      0.000066    1.253018    0.221952
  H      0.912392   -0.356720    0.227036
  H     -0.912395   -0.356666    0.227074
  F     -0.000061    0.306127    2.001640
  I     -0.000122    0.292696   -2.423039

----------------------------
CARTESIAN COORDINATES (A.U.)
----------------------------
  NO LB      ZA    FRAG     MASS         X           Y           Z
   0 C     6.0000    0    12.011    0.000013    0.346377    0.703173
   1 H     1.0000    0     1.008    0.000125    2.367861    0.419428
   2 H     1.0000    0     1.008    1.724171   -0.674103    0.429036
   3 H     1.0000    0     1.008   -1.724177   -0.674001    0.429108
   4 F     9.0000    0    18.998   -0.000115    0.578496    3.782551
   5 I    25.0000*   0   126.900   -0.000231    0.553115   -4.578880
* core charge reduced due to ECP

--------------------------------
INTERNAL COORDINATES (ANGSTROEM)
--------------------------------
 C      0   0   0     0.000000000000     0.00000000     0.00000000
 H      1   0   0     1.080209527365     0.00000000     0.00000000
 H      1   2   0     1.070096735318   118.74106556     0.00000000
 H      1   2   3     1.070078829791   118.74473478   206.95877405
 F      1   2   3     1.634159887899    93.67936934   103.48263604
 I      1   2   3     2.797282144441    79.76851985   283.47719837

---------------------------
INTERNAL COORDINATES (A.U.)
---------------------------
 C      0   0   0     0.000000000000     0.00000000     0.00000000
 H      1   0   0     2.041300173973     0.00000000     0.00000000
 H      1   2   0     2.022189766555   118.74106556     0.00000000
 H      1   2   3     2.022155930011   118.74473478   206.95877405
 F      1   2   3     3.088114647168    93.67936934   103.48263604
 I      1   2   3     5.286097172301    79.76851985   283.47719837

---------------------
BASIS SET INFORMATION
---------------------
There are 4 groups of distinct atoms

 Group   1 Type C   : 11s6p1d contracted to 5s3p1d pattern {62111/411/1}
 Group   2 Type H   : 4s1p contracted to 2s1p pattern {31/1}
 Group   3 Type F   : 11s6p2d contracted to 5s3p2d pattern {62111/411/11}
 Group   4 Type I   : 11s10p8d contracted to 6s5p3d pattern {521111/34111/611}

Atom   0C    basis set group =>   1
Atom   1H    basis set group =>   2
Atom   2H    basis set group =>   2
Atom   3H    basis set group =>   2
Atom   4F    basis set group =>   3
Atom   5I    basis set group =>   4
---------------------------------
AUXILIARY/J BASIS SET INFORMATION
---------------------------------
There are 4 groups of distinct atoms

 Group   1 Type C   : 8s3p3d contracted to 6s3p3d pattern {311111/111/111}
 Group   2 Type H   : 5s2p1d contracted to 3s1p1d pattern {311/2/1}
 Group   3 Type F   : 8s3p4d contracted to 6s3p4d pattern {311111/111/1111}
 Group   4 Type I   : 11s5p5d3f1g contracted to 8s4p3d2f1g pattern {41111111/2111/311/21/1}

Atom   0C    basis set group =>   1
Atom   1H    basis set group =>   2
Atom   2H    basis set group =>   2
Atom   3H    basis set group =>   2
Atom   4F    basis set group =>   3
Atom   5I    basis set group =>   4
-------------------------
ECP PARAMETER INFORMATION
-------------------------

 Group 1, Type I  ECP Def2-ECP (replacing 28 core electrons, lmax=3)

Atom   5I    ECP group =>   1



           ************************************************************
           *        Program running with 8 parallel MPI-processes     *
           *              working on a common directory               *
           ************************************************************
------------------------------------------------------------------------------
                             ORCA STARTUP CALCULATIONS
                           -- RI-GTO INTEGRALS CHOSEN --
------------------------------------------------------------------------------
------------------------------------------------------------------------------
                   ___                                                        
                  /   \      - P O W E R E D   B Y -                         
                 /     \                                                     
                 |  |  |   _    _      __       _____    __    __             
                 |  |  |  | |  | |    /  \     |  _  \  |  |  /  |          
                  \  \/   | |  | |   /    \    | | | |  |  | /  /          
                 / \  \   | |__| |  /  /\  \   | |_| |  |  |/  /          
                |  |  |   |  __  | /  /__\  \  |    /   |      \           
                |  |  |   | |  | | |   __   |  |    \   |  |\   \          
                \     /   | |  | | |  |  |  |  | |\  \  |  | \   \       
                 \___/    |_|  |_| |__|  |__|  |_| \__\ |__|  \__/        
                                                                              
                      - O R C A' S   B I G   F R I E N D -                    
                                      &                                       
                       - I N T E G R A L  F E E D E R -                       
                                                                              
 v1 FN, 2020, v2 2021, v3 2022-2024                                           
------------------------------------------------------------------------------


----------------------
SHARK INTEGRAL PACKAGE
----------------------

Number of atoms                             ...      6
Number of basis functions                   ...     94
Number of shells                            ...     42
Maximum angular momentum                    ...      2
Integral batch strategy                     ... SHARK/LIBINT Hybrid
RI-J (if used) integral strategy            ... SPLIT-RIJ (Revised 2003 algorithm where possible)
Printlevel                                  ...      1
Contraction scheme used                     ... SEGMENTED contraction
Prescreening option                         ... SCHWARTZ
   Thresh                                   ... 2.500e-11
   Tcut                                     ... 2.500e-12
   Tpresel                                  ... 2.500e-12 
Coulomb Range Separation                    ... NOT USED
Exchange Range Separation                   ... NOT USED
Multipole approximations                    ... NOT USED
Finite Nucleus Model                        ... NOT USED
CABS basis                                  ... NOT available
Auxiliary Coulomb fitting basis             ... AVAILABLE
   # of basis functions in Aux-J            ...    156
   # of shells in Aux-J                     ...     58
   Maximum angular momentum in Aux-J        ...      4
Auxiliary J/K fitting basis                 ... NOT available
Auxiliary Correlation fitting basis         ... NOT available
Auxiliary 'external' fitting basis          ... NOT available

Checking pre-screening integrals            ... done (  0.0 sec) Dimension = 42
   => SHARK Basis and OBASIS are compatible. Storing Pre-screening
Shell pair information
Shell pair cut-off parameter TPreSel        ...   2.5e-12
Total number of shell pairs                 ...       903
Shell pairs after pre-screening             ...       842
Total number of primitive shell pairs       ...      3409
Primitive shell pairs kept                  ...      2485
          la=0 lb=0:    228 shell pairs
          la=1 lb=0:    289 shell pairs
          la=1 lb=1:    102 shell pairs
          la=2 lb=0:    122 shell pairs
          la=2 lb=1:     81 shell pairs
          la=2 lb=2:     20 shell pairs

Checking whether 4 symmetric matrices of dimension 94 fit in memory
:Max Core in MB      =   4096.00
 MB in use           =      4.35
 MB left             =   4091.65
 MB needed           =      0.14
 Data fit in memory  = YES
Calculating RI/J V-Matrix + Cholesky decomp.... done (  0.0 sec)
Calculating Nuclear repulsion               ... done (  0.0 sec) ENN=    103.298122073805 Eh

Diagonalization of the overlap matrix:
Smallest eigenvalue                        ... 4.439e-03
Time for diagonalization                   ...    0.013 sec
Threshold for overlap eigenvalues          ... 1.000e-07
Number of eigenvalues below threshold      ... 0
Time for construction of square roots      ...    0.009 sec
Total time needed                          ...    0.100 sec

-------------------
DFT GRID GENERATION
-------------------

General Integration Accuracy     IntAcc      ... 4.388
Radial Grid Type                 RadialGrid  ... OptM3 with GC (2021)
Angular Grid (max. ang.)         AngularGrid ... 4 (Lebedev-302)
Angular grid pruning method      GridPruning ... 4 (adaptive)
Weight generation scheme         WeightScheme... mBecke (2022)
Basis function cutoff            BFCut       ... 1.0000e-11
Integration weight cutoff        WCut        ... 1.0000e-14
Partially contracted basis set               ... off
Rotationally invariant grid construction     ... off
Angular grids for H and He will be reduced by one unit

Total number of grid points                  ...    33636
Total number of batches                      ...      529
Average number of points per batch           ...       63
Average number of grid points per atom       ...     5606
Grids setup in   1.0 sec
Initializing property integral containers    ... done (  0.0 sec)

SHARK setup successfully completed in   1.6 seconds

Maximum memory used throughout the entire STARTUP-calculation: 12.8 MB


           ************************************************************
           *        Program running with 8 parallel MPI-processes     *
           *              working on a common directory               *
           ************************************************************
-------------------------------------------------------------------------------
                                 ORCA GUESS
                   Start orbitals & Density for SCF / CASSCF
-------------------------------------------------------------------------------

------------
SCF SETTINGS
------------
Hamiltonian:
 Density Functional     Method          .... DFT(GTOs)
  Functional kind                       .... Exchange
  Functional name                       .... Re-regularized SCAN exchange by Furness et al
  Functional family                     .... MGGA
  Functional refs                              
    [ 0] J. W. Furness, A. D. Kaplan, J. Ning, J. P. Perdew, and J. Sun.,  J. Phys. Chem. Lett. 11, 8208-8215 (2020), doi: 10.1021/acs.jpclett.0c02405
    [ 1] J. W. Furness, A. D. Kaplan, J. Ning, J. P. Perdew, and J. Sun.,  J. Phys. Chem. Lett. 11, 9248-9248 (2020), doi: 10.1021/acs.jpclett.0c03077
  Functional external parameters        .... 6
    Parameter  0 _c1        =  6.670000e-01 : c1 parameter        
    Parameter  1 _c2        =  8.000000e-01 : c2 parameter        
    Parameter  2 _d         =  1.240000e+00 : d parameter         
    Parameter  3 _k1        =  6.500000e-02 : k1 parameter        
    Parameter  4 _eta       =  1.000000e-03 : eta parameter       
    Parameter  5 _dp2       =  3.610000e-01 : dp2 parameter       
  Functional kind                       .... Correlation
  Functional name                       .... Re-regularized SCAN correlation by Furness et al
  Functional family                     .... MGGA
  Functional refs                              
    [ 0] J. W. Furness, A. D. Kaplan, J. Ning, J. P. Perdew, and J. Sun.,  J. Phys. Chem. Lett. 11, 8208-8215 (2020), doi: 10.1021/acs.jpclett.0c02405
    [ 1] J. W. Furness, A. D. Kaplan, J. Ning, J. P. Perdew, and J. Sun.,  J. Phys. Chem. Lett. 11, 9248-9248 (2020), doi: 10.1021/acs.jpclett.0c03077
  Functional external parameters        .... 1
    Parameter  0 _eta       =  1.000000e-03 : Regularization parameter
 Gradients option       PostSCFGGA      .... off
 RI-approximation to the Coulomb term is turned on
   Number of AuxJ basis functions       .... 156


General Settings:
 Integral files         IntName         .... product_optfreq
 Hartree-Fock type      HFTyp           .... RHF
 Total Charge           Charge          ....   -1
 Multiplicity           Mult            ....    1
 Number of Electrons    NEL             ....   44
 Basis Dimension        Dim             ....   94
 Nuclear Repulsion      ENuc            ....    103.2981220738 Eh

Convergence Acceleration:
 AO-DIIS                CNVDIIS         .... on
   Start iteration      DIISMaxIt       ....    12
   Startup error        DIISStart       ....  0.200000
   # of expansion vecs  DIISMaxEq       ....     5
   Bias factor          DIISBfac        ....   1.050
   Max. coefficient     DIISMaxC        ....  10.000
 MO-DIIS                CNVKDIIS        .... off
 Trust-Rad. Augm. Hess. CNVTRAH         .... auto
   Auto Start mean grad. ratio tolernc. ....  1.125000
   Auto Start start iteration           ....    50
   Auto Start num. interpolation iter.  ....    10
   Max. Number of Micro iterations      ....    24
   Max. Number of Macro iterations      .... Maxiter - #DIIS iter
   Number of Davidson start vectors     ....     2
   Converg. threshold    (grad. norm)   ....   1.000e-05
   Grad. Scal. Fac. for Micro threshold ....   0.100
   Minimum threshold for Micro iter.    ....   1.000e-02
   NR start threshold (gradient norm)   ....   1.000e-04
   Initial trust radius                 ....   0.400
   Minimum AH scaling param. (alpha)    ....   1.000
   Maximum AH scaling param. (alpha)    .... 1000.000
   Quad. conv. algorithm                .... NR
   White noise on init. David. guess    .... on
   Maximum white noise                  ....   0.010
   Pseudo random numbers                .... off
   Inactive MOs                         .... canonical
   Orbital update algorithm             .... Taylor
   Preconditioner                       .... Diag
   Full preconditioner red. dimension   ....   250
   COSX micro iterations for RIJONX calc.... off
 SOSCF                 CNVSOSCF           .... on
   Start iteration     SOSCFMaxIt         ....   150
   Startup grad/error  SOSCFStart         ....  0.003300
   Hessian update      SOSCFHessUp        .... L-BFGS
   Autom. constraints  SOSCFAutoConstrain .... off
 Level Shifting         CNVShift        .... on
   Level shift para.    LevelShift      ....    0.2500
   Turn off err/grad.   ShiftErr        ....    0.0010
 Zerner damping         CNVZerner       .... off
 Static damping         CNVDamp         .... on
   Fraction old density DampFac         ....    0.7000
   Max. Damping (<1)    DampMax         ....    0.9800
   Min. Damping (>=0)   DampMin         ....    0.0000
   Turn off err/grad.   DampErr         ....    0.1000

SCF Procedure:
 Maximum # iterations   MaxIter         ....   150
 SCF integral mode      SCFMode         .... Direct
   Integral package                     .... SHARK and LIBINT hybrid scheme
 Reset frequency        DirectResetFreq ....    20
 Integral Threshold     Thresh          ....  2.500e-11 Eh
 Primitive CutOff       TCut            ....  2.500e-12 Eh

Convergence Tolerance:
 Convergence Check Mode ConvCheckMode   .... Total+1el-Energy
 Convergence forced     ConvForced      .... 0
 Energy Change          TolE            ....  1.000e-08 Eh
 1-El. energy change                    ....  1.000e-05 Eh
 Orbital Gradient       TolG            ....  1.000e-05
 Orbital Rotation angle TolX            ....  1.000e-05
 DIIS Error             TolErr          ....  5.000e-07

------------------------------
INITIAL GUESS: MODEL POTENTIAL
------------------------------
Loading Hartree-Fock densities                     ... done
Atomic calculation to generate a density for atom 5 (I  with ECP)
  Multiplicity assumed   :    2
  Atomic configuration   : 1s2 2s2 2p6 3s2 3p6 4s2 3d10 4p6 5s2 4d10 5p5 
  Number of open shells  : 1
  Command: /software/orca-6.1.0-el8-x86_64/bin/orca product_optfreq_atom53.inp "" > product_optfreq_atom53.out
Returned from the atomic calculation with res=0
Calculating cut-offs                               ... done
Initializing the effective Hamiltonian             ... done
Setting up the integral package (SHARK)            ... done
Starting the Coulomb interaction                   ... done (   0.1 sec)
Making the grid                                    ... done (   0.2 sec)
Mapping shells                                     ... done
Starting the XC term evaluation                    ... done (   0.1 sec)
  promolecular density results
     # of electrons  =     70.999064551
     EX              =   -189.034503693
     EC              =     -3.442362290
     EX+EC           =   -192.476865983
Transforming the Hamiltonian                       ... done (   0.0 sec)
Diagonalizing the Hamiltonian                      ... done (   0.0 sec)
Back transforming the eigenvectors                 ... done (   0.0 sec)
Now organizing SCF variables                       ... done
                      ------------------
                      INITIAL GUESS DONE (   6.6 sec)
                      ------------------
             **** ENERGY FILE WAS UPDATED (product_optfreq.en.tmp) ****
Finished Guess after   6.8 sec
Maximum memory used throughout the entire GUESS-calculation: 7.4 MB


           ************************************************************
           *        Program running with 8 parallel MPI-processes     *
           *              working on a common directory               *
           ************************************************************

-------------------------------------------------------------------------------------------
                                      ORCA LEAN-SCF
                              memory conserving SCF solver
-------------------------------------------------------------------------------------------

----------------------------------------D-I-I-S--------------------------------------------
Iteration    Energy (Eh)           Delta-E    RMSDP     MaxDP     DIISErr   Damp  Time(sec)
-------------------------------------------------------------------------------------------
               ***  Starting incremental Fock matrix formation  ***
    1    -437.4100935845540334     0.00e+00  1.44e-02  1.40e-01  6.02e-01  0.700   0.4
    2    -437.4654888104340671    -5.54e-02  1.06e-02  1.00e-01  4.04e-01  0.700   0.3
    3    -437.4916100044877112    -2.61e-02  6.11e-03  4.87e-02  2.72e-01  0.700   0.3
                               ***Turning on AO-DIIS***
    4    -437.5069639023939772    -1.54e-02  2.96e-03  2.13e-02  1.86e-01  0.700   0.5
    5    -437.5170538704386445    -1.01e-02  1.60e-03  1.26e-02  1.33e-01  0.700   0.2
    6    -437.5243920140044338    -7.34e-03  1.05e-03  6.98e-03  9.44e-02  0.700   0.2
    7    -437.5296872250435172    -5.30e-03  3.08e-03  2.08e-02  6.62e-02  0.000   0.4
    8    -437.5419466744858710    -1.23e-02  5.68e-04  4.69e-03  5.03e-03  0.000   0.7
    9    -437.5419731456190675    -2.65e-05  1.36e-04  1.00e-03  3.58e-03  0.000   0.5
                              *** Initializing SOSCF ***
---------------------------------------S-O-S-C-F--------------------------------------
Iteration    Energy (Eh)           Delta-E    RMSDP     MaxDP     MaxGrad    Time(sec)
--------------------------------------------------------------------------------------
   10    -437.5419817526095585    -8.61e-06  5.52e-05  4.70e-04  5.27e-04     0.3
               *** Restarting incremental Fock matrix formation ***
   11    -437.5419825734026062    -8.21e-07  3.77e-05  3.22e-04  4.59e-05     0.3
   12    -437.5419825748742824    -1.47e-09  1.68e-05  1.49e-04  3.99e-05     0.3
                 **** Energy Check signals convergence ****

               *****************************************************
               *                     SUCCESS                       *
               *           SCF CONVERGED AFTER  12 CYCLES          *
               *****************************************************

             **** ENERGY FILE WAS UPDATED (product_optfreq.en.tmp) ****

----------------
TOTAL SCF ENERGY
----------------

Total Energy       :       -437.54198260093187 Eh          -11906.12264 eV

Components:
Nuclear Repulsion  :        103.29812207380519 Eh            2810.88480 eV
Electronic Energy  :       -540.84010467473695 Eh          -14717.00745 eV
One Electron Energy:       -925.65078124685226 Eh          -25188.23830 eV
Two Electron Energy:        384.81067657211526 Eh           10471.23086 eV

Virial components:
Potential Energy   :       -688.95688407798809 Eh          -18747.46992 eV
Kinetic Energy     :        251.41490147705619 Eh            6841.34728 eV
Virial Ratio       :          2.74031841402552

DFT components:
N(Alpha)           :       22.000013109978 electrons
N(Beta)            :       22.000013109978 electrons
N(Total)           :       44.000026219957 electrons
E(X)               :      -37.810134874367 Eh       
E(C)               :       -1.660239994957 Eh       
E(XC)              :      -39.470374869325 Eh       

---------------
SCF CONVERGENCE
---------------

  Last Energy change         ...    1.4717e-09  Tolerance :   1.0000e-08
  Last MAX-Density change    ...    1.4919e-04  Tolerance :   1.0000e-07
  Last RMS-Density change    ...    1.6847e-05  Tolerance :   5.0000e-09
  Last DIIS Error            ...    5.2691e-04  Tolerance :   5.0000e-07
  Last Orbital Gradient      ...    3.9896e-05  Tolerance :   1.0000e-05
  Last Orbital Rotation      ...    4.2415e-05  Tolerance :   1.0000e-05


----------------
ORBITAL ENERGIES
----------------

  NO   OCC          E(Eh)            E(eV) 
   0   2.0000     -24.249899      -659.8733 
   1   2.0000      -9.935146      -270.3491 
   2   2.0000      -6.570106      -178.7817 
   3   2.0000      -4.578495      -124.5872 
   4   2.0000      -4.577483      -124.5597 
   5   2.0000      -4.577415      -124.5578 
   6   2.0000      -1.615887       -43.9705 
   7   2.0000      -1.615629       -43.9635 
   8   2.0000      -1.615606       -43.9629 
   9   2.0000      -1.614420       -43.9306 
  10   2.0000      -1.614409       -43.9303 
  11   2.0000      -0.895002       -24.3542 
  12   2.0000      -0.506872       -13.7927 
  13   2.0000      -0.406331       -11.0568 
  14   2.0000      -0.264023        -7.1844 
  15   2.0000      -0.262156        -7.1336 
  16   2.0000      -0.214118        -5.8265 
  17   2.0000      -0.131214        -3.5705 
  18   2.0000      -0.129260        -3.5173 
  19   2.0000      -0.032009        -0.8710 
  20   2.0000      -0.030635        -0.8336 
  21   2.0000      -0.029431        -0.8008 
  22   0.0000       0.160037         4.3548 
  23   0.0000       0.266882         7.2622 
  24   0.0000       0.322793         8.7836 
  25   0.0000       0.324991         8.8434 
  26   0.0000       0.332092         9.0367 
  27   0.0000       0.336734         9.1630 
  28   0.0000       0.337982         9.1970 
  29   0.0000       0.367898        10.0110 
  30   0.0000       0.368170        10.0184 
  31   0.0000       0.399020        10.8579 
  32   0.0000       0.425567        11.5803 
*Only the first 10 virtual orbitals were printed.

                    ********************************
                    * MULLIKEN POPULATION ANALYSIS *
                    ********************************

-----------------------
MULLIKEN ATOMIC CHARGES
-----------------------
   0 C :   -0.120848
   1 H :    0.175838
   2 H :    0.165527
   3 H :    0.165537
   4 F :   -0.509043
   5 I :   -0.877011
Sum of atomic charges:   -1.0000000

--------------------------------
MULLIKEN REDUCED ORBITAL CHARGES
--------------------------------
  0 C s       :     3.319501  s :     3.319501
      pz      :     0.572946  p :     2.767461
      px      :     1.092415
      py      :     1.102100
      dz2     :     0.016120  d :     0.033886
      dxz     :     0.004052
      dyz     :     0.004198
      dx2y2   :     0.004292
      dxy     :     0.005223

  1 H s       :     0.805101  s :     0.805101
      pz      :     0.003683  p :     0.019061
      px      :     0.003235
      py      :     0.012143

  2 H s       :     0.815342  s :     0.815342
      pz      :     0.003425  p :     0.019132
      px      :     0.010022
      py      :     0.005685

  3 H s       :     0.815330  s :     0.815330
      pz      :     0.003425  p :     0.019132
      px      :     0.010023
      py      :     0.005685

  4 F s       :     3.956826  s :     3.956826
      pz      :     1.586602  p :     5.544504
      px      :     1.979011
      py      :     1.978890
      dz2     :     0.004583  d :     0.007714
      dxz     :     0.001379
      dyz     :     0.001508
      dx2y2   :     0.000066
      dxy     :     0.000178

  5 I s       :     3.983708  s :     3.983708
      pz      :     3.882614  p :    11.879723
      px      :     3.998983
      py      :     3.998126
      dz2     :     2.005863  d :    10.013580
      dxz     :     2.003637
      dyz     :     2.003967
      dx2y2   :     2.000026
      dxy     :     2.000086



                     *******************************
                     * LOEWDIN POPULATION ANALYSIS *
                     *******************************

----------------------
LOEWDIN ATOMIC CHARGES
----------------------
   0 C :   -0.177926
   1 H :    0.168425
   2 H :    0.158338
   3 H :    0.158343
   4 F :   -0.563899
   5 I :   -0.743281

-------------------------------
LOEWDIN REDUCED ORBITAL CHARGES
-------------------------------
  0 C s       :     3.040544  s :     3.040544
      pz      :     0.742865  p :     3.059661
      px      :     1.158075
      py      :     1.158722
      dz2     :     0.034605  d :     0.077720
      dxz     :     0.008133
      dyz     :     0.008539
      dx2y2   :     0.012001
      dxy     :     0.014442

  1 H s       :     0.786938  s :     0.786938
      pz      :     0.007332  p :     0.044637
      px      :     0.006970
      py      :     0.030335

  2 H s       :     0.796575  s :     0.796575
      pz      :     0.006876  p :     0.045087
      px      :     0.024762
      py      :     0.013450

  3 H s       :     0.796568  s :     0.796568
      pz      :     0.006876  p :     0.045089
      px      :     0.024764
      py      :     0.013449

  4 F s       :     3.870036  s :     3.870036
      pz      :     1.631499  p :     5.589045
      px      :     1.978836
      py      :     1.978710
      dz2     :     0.048482  d :     0.104818
      dxz     :     0.025521
      dyz     :     0.029407
      dx2y2   :     0.000202
      dxy     :     0.001206

  5 I s       :     3.923053  s :     3.923053
      pz      :     3.806466  p :    11.785409
      px      :     3.989960
      py      :     3.988984
      dz2     :     2.020475  d :    10.034819
      dxz     :     2.006576
      dyz     :     2.007490
      dx2y2   :     2.000064
      dxy     :     2.000214



                      *****************************
                      * MAYER POPULATION ANALYSIS *
                      *****************************

  NA   - Mulliken gross atomic population
  ZA   - Total nuclear charge
  QA   - Mulliken gross atomic charge
  VA   - Mayer's total valence
  BVA  - Mayer's bonded valence
  FA   - Mayer's free valence

  ATOM       NA         ZA         QA         VA         BVA        FA
  0 C      6.1208     6.0000    -0.1208     3.7173     3.7173    -0.0000
  1 H      0.8242     1.0000     0.1758     0.9466     0.9466     0.0000
  2 H      0.8345     1.0000     0.1655     0.9479     0.9479    -0.0000
  3 H      0.8345     1.0000     0.1655     0.9479     0.9479    -0.0000
  4 F      9.5090     9.0000    -0.5090     0.6210     0.6210     0.0000
  5 I     25.8770    25.0000    -0.8770     0.2418     0.2418    -0.0000

  Mayer bond orders larger than 0.100000
B(  0-C ,  1-H ) :   0.9642 B(  0-C ,  2-H ) :   0.9606 B(  0-C ,  3-H ) :   0.9606 
B(  0-C ,  4-F ) :   0.6146 B(  0-C ,  5-I ) :   0.2175 

-------
TIMINGS
-------

Total SCF time: 0 days 0 hours 0 min 5 sec 

Total time                  ....       5.295 sec
Sum of individual times     ....       4.902 sec  ( 92.6%)

SCF preparation             ....       0.572 sec  ( 10.8%)
Fock matrix formation       ....       3.315 sec  ( 62.6%)
  Startup                   ....       0.019 sec  (  0.6% of F)
  Split-RI-J                ....       0.537 sec  ( 16.2% of F)
  XC integration            ....       2.580 sec  ( 77.8% of F)
    XC Preparation          ....       0.000 sec  (  0.0% of XC)
    Basis function eval.    ....       0.612 sec  ( 23.7% of XC)
    Density eval.           ....       0.202 sec  (  7.8% of XC)
    XC-Functional eval.     ....       0.387 sec  ( 15.0% of XC)
    XC-Potential eval.      ....       0.205 sec  (  7.9% of XC)
Diagonalization             ....       0.000 sec  (  0.0%)
Density matrix formation    ....       0.380 sec  (  7.2%)
Total Energy calculation    ....       0.109 sec  (  2.1%)
Population analysis         ....       0.010 sec  (  0.2%)
Orbital Transformation      ....       0.011 sec  (  0.2%)
Orbital Orthonormalization  ....       0.000 sec  (  0.0%)
DIIS solution               ....       0.485 sec  (  9.2%)
SOSCF solution              ....       0.019 sec  (  0.4%)
Finished LeanSCF after   5.3 sec

Maximum memory used throughout the entire LEANSCF-calculation: 6.5 MB


           ************************************************************
           *        Program running with 8 parallel MPI-processes     *
           *              working on a common directory               *
           ************************************************************

------------------------------------------------------------------------------
                         ORCA PROPERTY INTEGRAL CALCULATIONS
------------------------------------------------------------------------------

GBWName                                   ... product_optfreq.gbw
Number of atoms                           ...      6
Number of basis functions                 ...     94
Max core memory                           ...   4096 MB

Dipole integrals                          ... YES
Quadrupole integrals                      ...  NO
Linear momentum integrals                 ...  NO
Angular momentum integrals                ...  NO
Higher moments length integrals           ...  NO
Higher moments velocity integrals         ...  NO
Kinetic energy integrals                  ...  NO
GIAO right hand sides                     ...  NO
GIAO dipole derivative integrals          ...  NO
SOC integrals                             ...  NO
EPR diamagnetic integrals (GIAO)          ...  NO
EPR gauge integrals                       ...  NO
Field gradient integrals                  ...  NO (   0 nuclei)
Spin-dipole/Fermi contact integrals       ...  NO (   0 nuclei)
Contact density integrals                 ...  NO (   0 nuclei)
Nucleus-orbit integrals                   ...  NO (   0 nuclei)
Geometric perturbations                   ...  NO (   6 nuclei)

Choice of electric origin   ... Center of mass
Position of electric origin ... ( -0.0002,  0.5367, -3.1036) 
Choice of magnetic origin   ... GIAO
Position of magnetic origin ... (  0.0000,  0.0000,  0.0000) 

Calculating integrals                     ... Electric Dipole (Length)     done (  0.1 sec)

Property integrals calculated in   0.1 sec

Maximum memory used throughout the entire PROPINT-calculation: 6.9 MB


-------------------------------------------------------------------------------
                          DFT DISPERSION CORRECTION                            
                                                                               
                                DFTD4 V3.4.0                                   
-------------------------------------------------------------------------------
The R2SCAN3C composite method is recognized
Using three-body term ABC
Active option DFTDOPT                   ...         5   

-------------------------   ----------------
Dispersion correction           -0.000922690
-------------------------   ----------------

------------------   -----------------
gCP correction             0.004057519
------------------   -----------------

-------------------------   --------------------
FINAL SINGLE POINT ENERGY      -437.538847772125
-------------------------   --------------------



           ************************************************************
           *        Program running with 8 parallel MPI-processes     *
           *              working on a common directory               *
           ************************************************************
------------------------------------------------------------------------------
                         ORCA SCF GRADIENT CALCULATION
------------------------------------------------------------------------------

Nuc. rep. gradient        (SHARK) ... done (  0.0 sec)
HCore & Overlap gradient  (SHARK) ... done (  0.0 sec)
ECP gradient              (SHARK) ... done (  0.2 sec)
Split-RIJ-J gradient      (SHARK) ... done (  0.9 sec)
XC gradient                       ... done (  0.5 sec)
Dispersion correction             ... done (  0.1 sec)

-------------------
DISPERSION GRADIENT
-------------------

   1   C   :    0.000000002   -0.000001901    0.000040244
   2   H   :    0.000000000    0.000000238    0.000008466
   3   H   :    0.000000903   -0.000000555    0.000008491
   4   H   :   -0.000000903   -0.000000554    0.000008491
   5   F   :    0.000000000    0.000000155    0.000026956
   6   I   :   -0.000000004    0.000002617   -0.000092649

Difference to translation invariance:
           :    0.0000000000   -0.0000000000   -0.0000000000

Difference to rotation invariance:
           :    0.0000000000    0.0000000000   -0.0000000000

Norm of the Dispersion gradient    ...    0.0001056344
RMS gradient                       ...    0.0000248983
MAX gradient                       ...    0.0000926486
gCP correction                   ... done

------------------
CARTESIAN GRADIENT
------------------

   1   C   :   -0.000007002   -0.016686535   -0.058320750
   2   H   :    0.000002561    0.004232623    0.011418958
   3   H   :   -0.005928302    0.001983638    0.006044262
   4   H   :    0.005938129    0.001986398    0.006052654
   5   F   :   -0.000005438    0.007822023    0.012745804
   6   I   :    0.000000052    0.000661853    0.022059073

Difference to translation invariance:
           :    0.0000000000    0.0000000000    0.0000000000

Difference to rotation invariance:
           :   -0.0000436811    0.0000003895   -0.0000000215

Norm of the Cartesian gradient     ...    0.0684849827
RMS gradient                       ...    0.0161420652
MAX gradient                       ...    0.0583207500

-------
TIMINGS
-------

Total SCF gradient time     ....        1.793 sec

Densities                   ....       0.000 sec  (  0.0%)
One electron gradient       ....       0.007 sec  (  0.4%)
RI-J Coulomb gradient       ....       0.891 sec  ( 49.7%)
XC gradient                 ....       0.492 sec  ( 27.4%)

Maximum memory used throughout the entire SCFGRAD-calculation: 26.8 MB
------------------------------------------------------------------------------
                         ORCA GEOMETRY RELAXATION STEP
------------------------------------------------------------------------------

Reading the OPT-File                    .... done
Getting information on internals        .... done
Copying old internal coords+grads       .... done
Making the new internal coordinates     .... (2022 redundants) done
Validating the new internal coordinates .... (2022 redundants) done
Calculating the B-matrix                .... done
Calculating the G,G- and P matrices     .... done
Transforming gradient to internals      .... done
Projecting the internal gradient        .... done
Number of atoms                         ....   6
Number of internal coordinates          ....  18
Current Energy                          ....  -437.538847772 Eh
Current gradient norm                   ....     0.068484983 Eh/bohr
Maximum allowed component of the step   ....  0.300
Current trust radius                    ....  0.300
Evaluating the initial hessian          ....  (Almloef) done
Projecting the Hessian                  .... done
Forming the augmented Hessian           .... done
Diagonalizing the augmented Hessian     .... done
Last element of RFO vector              ....  0.874601978
Lowest eigenvalues of augmented Hessian:
 -0.011185835  0.016515016  0.050878166  0.063239924  0.178336859
Length of the computed step             ....  0.554356856
Warning: the length of the step is outside the trust region - taking restricted step instead
The input lambda is                     ....     0.009540
   iter:   5  x=    0.002998  g= 2076.714009 f(x)=     5.179370
   iter:  10  x=   -0.028982  g=    8.310260 f(x)=     0.061990
   iter:  15  x=   -0.033097  g=    3.391471 f(x)=     0.000000
The output lambda is                    ....    -0.033097 (15 iterations)
The final length of the internal step   ....  0.300000000
Converting the step to Cartesian space:
 Initial RMS(Int)=    0.0707106781
Transforming coordinates:
 Iter   0:  RMS(Cart)=    0.0379712688 RMS(Int)=    0.0709285372
done
Storing new coordinates                 .... done

                                .--------------------.
          ----------------------|Geometry convergence|-------------------------
          Item                value                   Tolerance       Converged
          ---------------------------------------------------------------------
          RMS gradient        0.0082185753            0.0001000000      NO
          MAX gradient        0.0178859363            0.0003000000      NO
          RMS step            0.0707106781            0.0020000000      NO
          MAX step            0.1970925862            0.0040000000      NO
          -------------------------------------------------------------------------
          ........................................................
          Max(Bonds)      0.1043      Max(Angles)    3.80
          Max(Dihed)        0.00      Max(Improp)    0.00
          ---------------------------------------------------------------------

The optimization has not yet converged - more geometry cycles are needed


    ---------------------------------------------------------------------------
                         Redundant Internal Coordinates
                            (Angstroem and degrees)

        Definition                    Value    dE/dq     Step     New-Value
    ----------------------------------------------------------------------------
     1. B(H   1,C   0)                1.0802  0.002788 -0.0047    1.0756   
     2. B(H   2,C   0)                1.0701 -0.006413  0.0071    1.0772   
     3. B(H   3,C   0)                1.0701 -0.006424  0.0071    1.0772   
     4. B(F   4,C   0)                1.6342  0.013298 -0.0287    1.6055   
     5. B(I   5,H   1)                2.8139 -0.000889  0.0574    2.8713   
     6. B(I   5,H   3)                2.8770 -0.001779  0.0582    2.9352   
     7. B(I   5,C   0)                2.7973 -0.017886  0.1043    2.9016   
     8. B(I   5,H   2)                2.8770 -0.001780  0.0582    2.9353   
     9. A(H   1,C   0,H   3)          118.74  0.004693   -1.20    117.55   
    10. A(H   2,C   0,H   3)          117.00  0.001858   -0.63    116.37   
    11. A(H   1,C   0,F   4)           93.68 -0.016318    3.80     97.48   
    12. A(H   2,C   0,F   4)           99.97 -0.003951    1.36    101.33   
    13. A(H   3,C   0,F   4)           99.96 -0.003962    1.36    101.33   
    14. A(H   1,C   0,I   5)           79.77  0.007558   -2.07     77.70   
    15. A(H   2,C   0,I   5)           83.36  0.008451   -2.25     81.11   
    16. A(H   3,C   0,I   5)           83.35  0.008453   -2.25     81.11   
    17. A(F   4,C   0,I   5)          173.45 -0.008760    1.72    175.17   
    18. A(H   1,C   0,H   2)          118.74  0.004688   -1.20    117.54   
    ----------------------------------------------------------------------------

Geometry step timings:
Preparation and reading OPT file:      0.000 s ( 2.870 %)
Internal coordinates            :      0.000 s ( 3.357 %)
B/P matrices and projection     :      0.000 s (12.886 %)
Hessian update/contruction      :      0.001 s (29.561 %)
Making the step                 :      0.000 s (15.809 %)
Converting the step to Cartesian:      0.000 s ( 3.465 %)
Storing new data                :      0.000 s ( 7.093 %)
Checking convergence            :      0.000 s ( 5.198 %)
Final printing                  :      0.000 s (19.383 %)
Total time                      :      0.002 s

Time for energy+gradient        :     18.131 s
Time for complete geometry iter :     18.844 s

         *************************************************************
         *                GEOMETRY OPTIMIZATION CYCLE   2            *
         *************************************************************
---------------------------------
CARTESIAN COORDINATES (ANGSTROEM)
---------------------------------
  C      0.000005    0.194528    0.414265
  H      0.000057    1.251827    0.217118
  H      0.914779   -0.344255    0.231899
  H     -0.914800   -0.344202    0.231923
  F     -0.000039    0.281343    2.017370
  I     -0.000115    0.282509   -2.485808

----------------------------
CARTESIAN COORDINATES (A.U.)
----------------------------
  NO LB      ZA    FRAG     MASS         X           Y           Z
   0 C     6.0000    0    12.011    0.000009    0.367605    0.782847
   1 H     1.0000    0     1.008    0.000108    2.365609    0.410293
   2 H     1.0000    0     1.008    1.728681   -0.650547    0.438225
   3 H     1.0000    0     1.008   -1.728721   -0.650447    0.438271
   4 F     9.0000    0    18.998   -0.000074    0.531661    3.812278
   5 I    25.0000*   0   126.900   -0.000216    0.533865   -4.697497
* core charge reduced due to ECP

--------------------------------
INTERNAL COORDINATES (ANGSTROEM)
--------------------------------
 C      0   0   0     0.000000000000     0.00000000     0.00000000
 H      1   0   0     1.075521825554     0.00000000     0.00000000
 H      1   2   0     1.077197896402   117.42721747     0.00000000
 H      1   2   3     1.077193439231   117.42987035   213.80983196
 F      1   2   3     1.605454817065    97.46246507   106.90692831
 I      2   1   3     2.871477906144    80.83350423    73.09729431

---------------------------
INTERNAL COORDINATES (A.U.)
---------------------------
 C      0   0   0     0.000000000000     0.00000000     0.00000000
 H      1   0   0     2.032441701352     0.00000000     0.00000000
 H      1   2   0     2.035609016236   117.42721747     0.00000000
 H      1   2   3     2.035600593404   117.42987035   213.80983196
 F      1   2   3     3.033869924638    97.46246507   106.90692831
 I      2   1   3     5.426306842217    80.83350423    73.09729431



           ************************************************************
           *        Program running with 8 parallel MPI-processes     *
           *              working on a common directory               *
           ************************************************************
------------------------------------------------------------------------------
                   ___                                                        
                  /   \      - P O W E R E D   B Y -                         
                 /     \                                                     
                 |  |  |   _    _      __       _____    __    __             
                 |  |  |  | |  | |    /  \     |  _  \  |  |  /  |          
                  \  \/   | |  | |   /    \    | | | |  |  | /  /          
                 / \  \   | |__| |  /  /\  \   | |_| |  |  |/  /          
                |  |  |   |  __  | /  /__\  \  |    /   |      \           
                |  |  |   | |  | | |   __   |  |    \   |  |\   \          
                \     /   | |  | | |  |  |  |  | |\  \  |  | \   \       
                 \___/    |_|  |_| |__|  |__|  |_| \__\ |__|  \__/        
                                                                              
                      - O R C A' S   B I G   F R I E N D -                    
                                      &                                       
                       - I N T E G R A L  F E E D E R -                       
                                                                              
 v1 FN, 2020, v2 2021, v3 2022-2024                                           
------------------------------------------------------------------------------


----------------------
SHARK INTEGRAL PACKAGE
----------------------

Number of atoms                             ...      6
Number of basis functions                   ...     94
Number of shells                            ...     42
Maximum angular momentum                    ...      2
Integral batch strategy                     ... SHARK/LIBINT Hybrid
RI-J (if used) integral strategy            ... SPLIT-RIJ (Revised 2003 algorithm where possible)
Printlevel                                  ...      1
Contraction scheme used                     ... SEGMENTED contraction
Prescreening option                         ... SCHWARTZ
   Thresh                                   ... 2.500e-11
   Tcut                                     ... 2.500e-12
   Tpresel                                  ... 2.500e-12 
Coulomb Range Separation                    ... NOT USED
Exchange Range Separation                   ... NOT USED
Multipole approximations                    ... NOT USED
Finite Nucleus Model                        ... NOT USED
CABS basis                                  ... NOT available
Auxiliary Coulomb fitting basis             ... AVAILABLE
   # of basis functions in Aux-J            ...    156
   # of shells in Aux-J                     ...     58
   Maximum angular momentum in Aux-J        ...      4
Auxiliary J/K fitting basis                 ... NOT available
Auxiliary Correlation fitting basis         ... NOT available
Auxiliary 'external' fitting basis          ... NOT available

Checking pre-screening integrals            ... done (  0.0 sec) Dimension = 42
   => SHARK Basis and OBASIS are compatible. Storing Pre-screening
Shell pair information
Shell pair cut-off parameter TPreSel        ...   2.5e-12
Total number of shell pairs                 ...       903
Shell pairs after pre-screening             ...       837
Total number of primitive shell pairs       ...      3409
Primitive shell pairs kept                  ...      2474
          la=0 lb=0:    228 shell pairs
          la=1 lb=0:    285 shell pairs
          la=1 lb=1:    102 shell pairs
          la=2 lb=0:    121 shell pairs
          la=2 lb=1:     81 shell pairs
          la=2 lb=2:     20 shell pairs

Checking whether 4 symmetric matrices of dimension 94 fit in memory
:Max Core in MB      =   4096.00
 MB in use           =      4.42
 MB left             =   4091.58
 MB needed           =      0.14
 Data fit in memory  = YES
Calculating RI/J V-Matrix + Cholesky decomp.... done (  0.1 sec)
Calculating Nuclear repulsion               ... done (  0.0 sec) ENN=    101.791668566556 Eh

Diagonalization of the overlap matrix:
Smallest eigenvalue                        ... 4.552e-03
Time for diagonalization                   ...    0.001 sec
Threshold for overlap eigenvalues          ... 1.000e-07
Number of eigenvalues below threshold      ... 0
Time for construction of square roots      ...    0.001 sec
Total time needed                          ...    0.003 sec

-------------------
DFT GRID GENERATION
-------------------

General Integration Accuracy     IntAcc      ... 4.388
Radial Grid Type                 RadialGrid  ... OptM3 with GC (2021)
Angular Grid (max. ang.)         AngularGrid ... 4 (Lebedev-302)
Angular grid pruning method      GridPruning ... 4 (adaptive)
Weight generation scheme         WeightScheme... mBecke (2022)
Basis function cutoff            BFCut       ... 1.0000e-11
Integration weight cutoff        WCut        ... 1.0000e-14
Partially contracted basis set               ... off
Rotationally invariant grid construction     ... off
Angular grids for H and He will be reduced by one unit

Total number of grid points                  ...    33652
Total number of batches                      ...      529
Average number of points per batch           ...       63
Average number of grid points per atom       ...     5609
Grids setup in   1.0 sec
Initializing property integral containers    ... done (  0.0 sec)

SHARK setup successfully completed in   1.5 seconds

Maximum memory used throughout the entire STARTUP-calculation: 12.9 MB


           ************************************************************
           *        Program running with 8 parallel MPI-processes     *
           *              working on a common directory               *
           ************************************************************
Occupation numbers will be reassigned to an Aufbau configuration
             **** ENERGY FILE WAS UPDATED (product_optfreq.en.tmp) ****
Finished Guess after   0.3 sec
Maximum memory used throughout the entire GUESS-calculation: 6.8 MB


           ************************************************************
           *        Program running with 8 parallel MPI-processes     *
           *              working on a common directory               *
           ************************************************************
----------------------------------------D-I-I-S--------------------------------------------
Iteration    Energy (Eh)           Delta-E    RMSDP     MaxDP     DIISErr   Damp  Time(sec)
-------------------------------------------------------------------------------------------
               ***  Starting incremental Fock matrix formation  ***
    1    -437.5477887696927155     0.00e+00  6.53e-04  3.38e-03  1.30e-02  0.700   0.4
    2    -437.5480833170056485    -2.95e-04  6.96e-04  3.83e-03  9.57e-03  0.700   0.5
                               ***Turning on AO-DIIS***
    3    -437.5483208953259009    -2.38e-04  6.07e-04  3.50e-03  6.73e-03  0.700   0.6
    4    -437.5484901193228779    -1.69e-04  1.62e-03  9.70e-03  4.77e-03  0.000   0.3
                              *** Initializing SOSCF ***
---------------------------------------S-O-S-C-F--------------------------------------
Iteration    Energy (Eh)           Delta-E    RMSDP     MaxDP     MaxGrad    Time(sec)
--------------------------------------------------------------------------------------
    5    -437.5488893138069670    -3.99e-04  1.53e-04  8.90e-04  4.60e-04     0.2
               *** Restarting incremental Fock matrix formation ***
    6    -437.5488907880222769    -1.47e-06  1.46e-04  8.38e-04  2.02e-04     0.3
    7    -437.5488907275121164     6.05e-08  6.04e-05  3.29e-04  3.53e-04     0.2
    8    -437.5488914532261333    -7.26e-07  4.72e-05  2.64e-04  7.10e-05     0.2
    9    -437.5488915039219364    -5.07e-08  1.32e-05  9.29e-05  2.76e-05     0.2
   10    -437.5488915182991150    -1.44e-08  1.00e-05  5.51e-05  1.82e-05     0.2
   11    -437.5488915216503756    -3.35e-09  4.03e-06  1.99e-05  8.11e-06     0.5
                 **** Energy Check signals convergence ****

               *****************************************************
               *                     SUCCESS                       *
               *           SCF CONVERGED AFTER  11 CYCLES          *
               *****************************************************

             **** ENERGY FILE WAS UPDATED (product_optfreq.en.tmp) ****

----------------
TOTAL SCF ENERGY
----------------

Total Energy       :       -437.54889152277053 Eh          -11906.31064 eV

Components:
Nuclear Repulsion  :        101.79166856655627 Eh            2769.89212 eV
Electronic Energy  :       -539.34056008932680 Eh          -14676.20276 eV
One Electron Energy:       -922.57281465881385 Eh          -25104.48257 eV
Two Electron Energy:        383.23225456948705 Eh           10428.27981 eV

Virial components:
Potential Energy   :       -688.93046851682016 Eh          -18746.75111 eV
Kinetic Energy     :        251.38157699404957 Eh            6840.44047 eV
Virial Ratio       :          2.74057660372275

DFT components:
N(Alpha)           :       22.000018548936 electrons
N(Beta)            :       22.000018548936 electrons
N(Total)           :       44.000037097871 electrons
E(X)               :      -37.804084723746 Eh       
E(C)               :       -1.658771982556 Eh       
E(XC)              :      -39.462856706302 Eh       

---------------
SCF CONVERGENCE
---------------

  Last Energy change         ...    3.3513e-09  Tolerance :   1.0000e-08
  Last MAX-Density change    ...    1.9890e-05  Tolerance :   1.0000e-07
  Last RMS-Density change    ...    4.0251e-06  Tolerance :   5.0000e-09
  Last DIIS Error            ...    4.5952e-04  Tolerance :   5.0000e-07
  Last Orbital Gradient      ...    8.1142e-06  Tolerance :   1.0000e-05
  Last Orbital Rotation      ...    3.1267e-05  Tolerance :   1.0000e-05


Total SCF time: 0 days 0 hours 0 min 4 sec 
Finished LeanSCF after   4.3 sec

Maximum memory used throughout the entire LEANSCF-calculation: 6.6 MB


           ************************************************************
           *        Program running with 8 parallel MPI-processes     *
           *              working on a common directory               *
           ************************************************************

------------------------------------------------------------------------------
                         ORCA PROPERTY INTEGRAL CALCULATIONS
------------------------------------------------------------------------------

GBWName                                   ... product_optfreq.gbw
Number of atoms                           ...      6
Number of basis functions                 ...     94
Max core memory                           ...   4096 MB

Dipole integrals                          ... YES
Quadrupole integrals                      ...  NO
Linear momentum integrals                 ...  NO
Angular momentum integrals                ...  NO
Higher moments length integrals           ...  NO
Higher moments velocity integrals         ...  NO
Kinetic energy integrals                  ...  NO
GIAO right hand sides                     ...  NO
GIAO dipole derivative integrals          ...  NO
SOC integrals                             ...  NO
EPR diamagnetic integrals (GIAO)          ...  NO
EPR gauge integrals                       ...  NO
Field gradient integrals                  ...  NO (   0 nuclei)
Spin-dipole/Fermi contact integrals       ...  NO (   0 nuclei)
Contact density integrals                 ...  NO (   0 nuclei)
Nucleus-orbit integrals                   ...  NO (   0 nuclei)
Geometric perturbations                   ...  NO (   6 nuclei)

Choice of electric origin   ... Center of mass
Position of electric origin ... ( -0.0002,  0.5178, -3.1876) 
Choice of magnetic origin   ... GIAO
Position of magnetic origin ... (  0.0000,  0.0000,  0.0000) 

Calculating integrals                     ... Electric Dipole (Length)     done (  0.0 sec)

Property integrals calculated in   0.0 sec

Maximum memory used throughout the entire PROPINT-calculation: 6.9 MB


-------------------------------------------------------------------------------
                          DFT DISPERSION CORRECTION                            
                                                                               
                                DFTD4 V3.4.0                                   
-------------------------------------------------------------------------------
-------------------------   ----------------
Dispersion correction           -0.000909385
-------------------------   ----------------

------------------   -----------------
gCP correction             0.003941085
------------------   -----------------

-------------------------   --------------------
FINAL SINGLE POINT ENERGY      -437.545859822718
-------------------------   --------------------



           ************************************************************
           *        Program running with 8 parallel MPI-processes     *
           *              working on a common directory               *
           ************************************************************
------------------------------------------------------------------------------
                         ORCA SCF GRADIENT CALCULATION
------------------------------------------------------------------------------

Nuc. rep. gradient        (SHARK) ... done (  0.0 sec)
HCore & Overlap gradient  (SHARK) ... done (  0.0 sec)
ECP gradient              (SHARK) ... done (  0.2 sec)
Split-RIJ-J gradient      (SHARK) ... done (  1.2 sec)
XC gradient                       ... done (  0.5 sec)
Dispersion correction             ... done (  0.1 sec)

-------------------
DISPERSION GRADIENT
-------------------

   1   C   :    0.000000001   -0.000000956    0.000023938
   2   H   :    0.000000000    0.000000387    0.000008908
   3   H   :    0.000000870   -0.000000574    0.000009293
   4   H   :   -0.000000869   -0.000000573    0.000009293
   5   F   :    0.000000000   -0.000000068    0.000024827
   6   I   :   -0.000000003    0.000001784   -0.000076260

Difference to translation invariance:
           :    0.0000000000    0.0000000000    0.0000000000

Difference to rotation invariance:
           :    0.0000000000    0.0000000000    0.0000000000

Norm of the Dispersion gradient    ...    0.0000852258
RMS gradient                       ...    0.0000200879
MAX gradient                       ...    0.0000762597
gCP correction                   ... done

------------------
CARTESIAN GRADIENT
------------------

   1   C   :    0.000000724   -0.005697312   -0.057081481
   2   H   :    0.000001952   -0.000598778    0.009696946
   3   H   :   -0.001940572    0.000210323    0.005447628
   4   H   :    0.001942046    0.000208875    0.005452824
   5   F   :   -0.000004131    0.005450051    0.019183937
   6   I   :   -0.000000019    0.000426842    0.017300146

Difference to translation invariance:
           :    0.0000000000    0.0000000000    0.0000000000

Difference to rotation invariance:
           :    0.0000504151    0.0000002579   -0.0000000262

Norm of the Cartesian gradient     ...    0.0644157051
RMS gradient                       ...    0.0151829273
MAX gradient                       ...    0.0570814810

-------
TIMINGS
-------

Total SCF gradient time     ....        2.079 sec

Densities                   ....       0.000 sec  (  0.0%)
One electron gradient       ....       0.007 sec  (  0.3%)
RI-J Coulomb gradient       ....       1.220 sec  ( 58.7%)
XC gradient                 ....       0.487 sec  ( 23.4%)

Maximum memory used throughout the entire SCFGRAD-calculation: 26.8 MB
------------------------------------------------------------------------------
                         ORCA GEOMETRY RELAXATION STEP
------------------------------------------------------------------------------

Reading the OPT-File                    .... done
Getting information on internals        .... done
Copying old internal coords+grads       .... done
Making the new internal coordinates     .... (2022 redundants) done
Validating the new internal coordinates .... (2022 redundants) done
Calculating the B-matrix                .... done
Calculating the G,G- and P matrices     .... done
Transforming gradient to internals      .... done
Projecting the internal gradient        .... done
Number of atoms                         ....   6
Number of internal coordinates          ....  18
Current Energy                          ....  -437.545859823 Eh
Current gradient norm                   ....     0.064415705 Eh/bohr
Maximum allowed component of the step   ....  0.300
Current trust radius                    ....  0.300
Updating the Hessian (BFGS)             .... done
Forming the augmented Hessian           .... done
Diagonalizing the augmented Hessian     .... done
Last element of RFO vector              ....  0.808957411
Lowest eigenvalues of augmented Hessian:
 -0.020780373  0.017434551  0.050878166  0.055722358  0.063305132
Length of the computed step             ....  0.726697406
Warning: the length of the step is outside the trust region - taking restricted step instead
The input lambda is                     ....     0.007938
[...]



--------------------
Rotational spectrum 
--------------------
 
Rotational constants in cm-1:             5.235026             0.031172             0.031172 
Rotational constants in MHz :        156942.131335           934.519755           934.517086 

Dipole components along the rotational axes: 
x,y,z [a.u.] :     0.551248    -0.006931     0.000004 
x,y,z [Debye]:     1.401160    -0.017617     0.000011 

 

Dipole moment calculation done in   0.0 sec 

-----------
SCF HESSIAN
-----------

Occupied/Occupied contributions to the Hessian:
   => Occupied/Occupied contributions              ... done (  0.0 sec)
Perturbed density contributions to the Hessian:
   => Perturbed density contributions              ... done (  0.0 sec)
Explicit contributions to the Hessian:
   => Nuclear repulsion Hessian                    ... done (  0.0 sec)
   => HCore and overlap Hessian                    ... done (  0.2 sec)
   => ECP Hessian                                  ... done (  1.2 sec)
   => RI-J Hessian                                 ... done (  1.8 sec)
   => XC-Hessian                                   ... done (  2.6 sec)
   => Van der Waals-Hessian                        ... done (  0.6 sec)
   => GCP-Hessian                                  ... done (  0.1 sec)
   => Explicit contributions done
Dipole derivatives                                 ... done (  0.0 sec)
Mass weighting the Hessian           ... done
Calculating normal modes             ... done
Scaling frequencies                  ... done

-----------------------
VIBRATIONAL FREQUENCIES
-----------------------

Scaling factor for frequencies =  1.000000000  (already applied!)

     0:       0.00 cm**-1
     1:       0.00 cm**-1
     2:       0.00 cm**-1
     3:       0.00 cm**-1
     4:       0.00 cm**-1
     5:       0.00 cm**-1
     6:      74.73 cm**-1
     7:      85.28 cm**-1
     8:      85.33 cm**-1
     9:     951.41 cm**-1
    10:    1148.54 cm**-1
    11:    1149.31 cm**-1
    12:    1433.36 cm**-1
    13:    1472.21 cm**-1
    14:    1472.43 cm**-1
    15:    3038.47 cm**-1
    16:    3149.52 cm**-1
    17:    3150.20 cm**-1


------------
NORMAL MODES
------------

These modes are the Cartesian displacements weighted by the diagonal matrix
M(i,i)=1/sqrt(m[i]) where m[i] is the mass of the displaced atom
Thus, these vectors are normalized but *not* orthogonal

                  0          1          2          3          4          5    
      0       0.000000   0.000000   0.000000   0.000000   0.000000   0.000000
      1       0.000000   0.000000   0.000000   0.000000   0.000000   0.000000
      2       0.000000   0.000000   0.000000   0.000000   0.000000   0.000000
      3       0.000000   0.000000   0.000000   0.000000   0.000000   0.000000
      4       0.000000   0.000000   0.000000   0.000000   0.000000   0.000000
      5       0.000000   0.000000   0.000000   0.000000   0.000000   0.000000
      6       0.000000   0.000000   0.000000   0.000000   0.000000   0.000000
      7       0.000000   0.000000   0.000000   0.000000   0.000000   0.000000
      8       0.000000   0.000000   0.000000   0.000000   0.000000   0.000000
      9       0.000000   0.000000   0.000000   0.000000   0.000000   0.000000
     10       0.000000   0.000000   0.000000   0.000000   0.000000   0.000000
     11       0.000000   0.000000   0.000000   0.000000   0.000000   0.000000
     12       0.000000   0.000000   0.000000   0.000000   0.000000   0.000000
     13       0.000000   0.000000   0.000000   0.000000   0.000000   0.000000
     14       0.000000   0.000000   0.000000   0.000000   0.000000   0.000000
     15       0.000000   0.000000   0.000000   0.000000   0.000000   0.000000
     16       0.000000   0.000000   0.000000   0.000000   0.000000   0.000000
     17       0.000000   0.000000   0.000000   0.000000   0.000000   0.000000
                  6          7          8          9         10         11    
      0      -0.000073   0.327823  -0.000159   0.000006   0.000132  -0.130045
      1       0.052228   0.000161   0.327436   0.002250   0.130190   0.000131
      2      -0.440686  -0.000022   0.022152   0.646075  -0.000235   0.000001
      3      -0.000095   0.475670  -0.000192  -0.000001  -0.000255   0.249083
      4       0.072032   0.000229   0.465962  -0.072395  -0.124245  -0.000130
      5      -0.380722   0.000182   0.410500   0.342670  -0.759276  -0.000742
      6      -0.001829   0.448134  -0.006451  -0.063726  -0.055777   0.153242
      7       0.071590  -0.027327   0.452814   0.038543  -0.216103   0.057244
      8      -0.468808   0.336627  -0.172724   0.339386   0.379378   0.657905
      9       0.001632   0.448136   0.005978   0.063734   0.055470   0.153334
     10       0.071588   0.027774   0.452845   0.038538  -0.215994  -0.057675
     11      -0.468675  -0.336879  -0.172373   0.339392   0.380657  -0.657167
     12       0.000026  -0.190039   0.000093  -0.000004  -0.000053   0.052341
     13      -0.025165  -0.000093  -0.190121  -0.001554  -0.052378  -0.000053
     14      -0.434570  -0.000016   0.023825  -0.467387   0.000047  -0.000001
     15       0.000005  -0.013476   0.000006   0.000000  -0.000000   0.000059
     16      -0.002885  -0.000007  -0.013424  -0.000017  -0.000062  -0.000000
     17       0.117240   0.000005  -0.006183   0.000708   0.000009   0.000000
                 12         13         14         15         16         17    
      0       0.000002   0.064631   0.000051  -0.000001   0.096160  -0.000143
      1      -0.000411  -0.000051   0.064535   0.001270  -0.000143  -0.096192
      2       0.095286  -0.000003   0.000736   0.040657   0.000001   0.000908
      3      -0.000025  -0.743547  -0.000552   0.000018   0.023344  -0.000008
      4      -0.201656  -0.000074   0.137897   0.540725   0.001132   0.779473
      5      -0.541211  -0.000208   0.297904  -0.172041  -0.000368  -0.253080
      6      -0.167162  -0.081611  -0.383868   0.480459  -0.574868  -0.338168
      7       0.103029  -0.380277  -0.522264  -0.277887   0.346214   0.172674
      8      -0.538311   0.264399  -0.155506  -0.173569   0.213466   0.120722
      9       0.167157  -0.082172   0.383705  -0.480471  -0.573926   0.339845
     10       0.103031   0.381066  -0.521719  -0.277845  -0.345678   0.173651
     11      -0.538322  -0.264146  -0.155912  -0.173557  -0.213110   0.121333
     12       0.000000   0.006762   0.000005   0.000000  -0.000969   0.000001
     13       0.000039  -0.000005   0.006776   0.000003   0.000001   0.000975
     14       0.025716  -0.000001   0.000259   0.001642  -0.000000  -0.000007
     15       0.000000   0.000078   0.000000   0.000000  -0.000017   0.000000
     16      -0.000002  -0.000000   0.000075  -0.000001   0.000000   0.000016
     17      -0.000018  -0.000000  -0.000001   0.000030   0.000000   0.000003


-----------
IR SPECTRUM
-----------

 Mode   freq       eps      Int      T**2         TX        TY        TZ
       cm**-1   L/(mol*cm) km/mol    a.u.
----------------------------------------------------------------------------
  6:     74.73   0.000541    2.74  0.002261  (-0.000009  0.006503 -0.047103)
  7:     85.28   0.001155    5.84  0.004226  ( 0.065009  0.000032 -0.000003)
  8:     85.33   0.001141    5.77  0.004174  (-0.000031  0.064517  0.003335)
  9:    951.41   0.048017  242.66  0.015750  ( 0.000002 -0.000015  0.125498)
 10:   1148.54   0.000252    1.27  0.000068  ( 0.000008  0.008254 -0.000517)
 11:   1149.31   0.000254    1.29  0.000069  (-0.008310  0.000008 -0.000001)
 12:   1433.36   0.000330    1.67  0.000072  (-0.000001  0.000410 -0.008467)
 13:   1472.21   0.001365    6.90  0.000289  (-0.017012  0.000014 -0.000001)
 14:   1472.43   0.001403    7.09  0.000297  (-0.000013 -0.017241  0.000439)
 15:   3038.47   0.005249   26.53  0.000539  (-0.000000  0.000500  0.023213)
 16:   3149.52   0.002245   11.35  0.000222  ( 0.014915 -0.000022  0.000000)
 17:   3150.20   0.002200   11.12  0.000218  (-0.000022 -0.014761  0.000195)

* The epsilon (eps) is given for a Dirac delta lineshape.
** The dipole moment derivative (T) already includes vibrational overlap.

The first frequency considered to be a vibration is 6
The total number of vibrations considered is 12


--------------------------
THERMOCHEMISTRY AT 298.15K
--------------------------

Temperature         ...   298.15 K
Pressure            ...     1.00 atm
Total Mass          ...   160.93 AMU
Quasi RRHO          ...     True
Cut-Off Frequency   ...     1.00 cm^-1

Throughout the following assumptions are being made:
  (1) The electronic state is orbitally nondegenerate
  (2) There are no thermally accessible electronically excited states
  (3) Hindered rotations indicated by low frequency modes are not
      treated as such but are treated as vibrations and this may
      cause some error
  (4) All equations used are the standard statistical mechanics
      equations for an ideal gas
  (5) All vibrations are strictly harmonic

freq.      74.73  E(vib)   ...       0.49 
freq.      85.28  E(vib)   ...       0.48 
freq.      85.33  E(vib)   ...       0.48 
freq.     951.41  E(vib)   ...       0.03 
freq.    1148.54  E(vib)   ...       0.01 
freq.    1149.31  E(vib)   ...       0.01 
freq.    1433.36  E(vib)   ...       0.00 
freq.    1472.21  E(vib)   ...       0.00 
freq.    1472.43  E(vib)   ...       0.00 
freq.    3038.47  E(vib)   ...       0.00 
freq.    3149.52  E(vib)   ...       0.00 
freq.    3150.20  E(vib)   ...       0.00 

------------
INNER ENERGY
------------

The inner energy is: U= E(el) + E(ZPE) + E(vib) + E(rot) + E(trans)
    E(el)   - is the total energy from the electronic structure calculation
              = E(kin-el) + E(nuc-el) + E(el-el) + E(nuc-nuc)
    E(ZPE)  - the the zero temperature vibrational energy from the frequency calculation
    E(vib)  - the the finite temperature correction to E(ZPE) due to population
              of excited vibrational states
    E(rot)  - is the rotational thermal energy
    E(trans)- is the translational thermal energy

Summary of contributions to the inner energy U:
Electronic energy                ...   -437.56531477 Eh
Zero point energy                ...      0.03920906 Eh      24.60 kcal/mol
Thermal vibrational correction   ...      0.00241353 Eh       1.51 kcal/mol
Thermal rotational correction    ...      0.00141627 Eh       0.89 kcal/mol
Thermal translational correction ...      0.00141627 Eh       0.89 kcal/mol
-----------------------------------------------------------------------
Total thermal energy                   -437.52085964 Eh


Summary of corrections to the electronic energy:
(perhaps to be used in another calculation)
Total thermal correction                  0.00524607 Eh       3.29 kcal/mol
Non-thermal (ZPE) correction              0.03920906 Eh      24.60 kcal/mol
-----------------------------------------------------------------------
Total correction                          0.04445513 Eh      27.90 kcal/mol


--------
ENTHALPY
--------

The enthalpy is H = U + kB*T
                kB is Boltzmann's constant
Total thermal energy              ...   -437.52085964 Eh 
Thermal Enthalpy correction       ...      0.00094421 Eh       0.59 kcal/mol
-----------------------------------------------------------------------
Total Enthalpy                    ...   -437.51991543 Eh


Note: Rotational entropy computed according to Herzberg 
Infrared and Raman Spectra, Chapter V,1, Van Nostrand Reinhold, 1945 
Point Group:  Cs, Symmetry Number:   1  
Rotational constants in cm-1:     5.235031     0.031172     0.031172 

Vibrational entropy computed according to the QRRHO of S. Grimme
Chem.Eur.J. 2012 18 9955 using a reference frequency of 100.0 cm-1


-------
ENTROPY
-------

The entropy contributions are T*S = T*(S(el)+S(vib)+S(rot)+S(trans))
     S(el)   - electronic entropy
     S(vib)  - vibrational entropy
     S(rot)  - rotational entropy
     S(trans)- translational entropy
The entropies will be listed as multiplied by the temperature to get
units of energy

Electronic entropy                ...      0.00000000 Eh      0.00 kcal/mol
Vibrational entropy               ...      0.00482616 Eh      3.03 kcal/mol
Rotational entropy                ...      0.01200396 Eh      7.53 kcal/mol
Translational entropy             ...      0.01954513 Eh     12.26 kcal/mol
-----------------------------------------------------------------------
Final entropy term                ...      0.03637525 Eh     22.83 kcal/mol

In case the symmetry of your molecule has not been determined correctly
or in case you have a reason to use a different symmetry number we print 
out the resulting rotational entropy values for sn=1,12:

 non-linear molecules -----------------------------------
|  sn= 1 | S(rot)=       0.01200396 Eh      7.53 kcal/mol|
|  sn= 2 | S(rot)=       0.01134950 Eh      7.12 kcal/mol|
|  sn= 3 | S(rot)=       0.01096667 Eh      6.88 kcal/mol|
|  sn= 4 | S(rot)=       0.01069505 Eh      6.71 kcal/mol|
|  sn= 5 | S(rot)=       0.01048436 Eh      6.58 kcal/mol|
|  sn= 6 | S(rot)=       0.01031221 Eh      6.47 kcal/mol|
|  sn= 7 | S(rot)=       0.01016667 Eh      6.38 kcal/mol|
|  sn= 8 | S(rot)=       0.01004059 Eh      6.30 kcal/mol|
|  sn= 9 | S(rot)=       0.00992938 Eh      6.23 kcal/mol|
|  sn=10 | S(rot)=       0.00982990 Eh      6.17 kcal/mol|
|  sn=11 | S(rot)=       0.00973991 Eh      6.11 kcal/mol|
|  sn=12 | S(rot)=       0.00965776 Eh      6.06 kcal/mol|
 linear molecules ---------------------------------------
|  Dinfh | S(rot)=       0.00860044 Eh      5.40 kcal/mol|
|  Cinfv | S(rot)=       0.00925490 Eh      5.81 kcal/mol|
 --------------------------------------------------------


-------------------
GIBBS FREE ENERGY
-------------------

The Gibbs free energy is G = H - T*S

Total enthalpy                    ...   -437.51991543 Eh 
Total entropy correction          ...     -0.03637525 Eh    -22.83 kcal/mol
-----------------------------------------------------------------------
Final Gibbs free energy         ...   -437.55629068 Eh

For completeness - the Gibbs free energy minus the electronic energy
G-E(el)                           ...      0.00902409 Eh      5.66 kcal/mol


Maximum memory used throughout the entire PROP-calculation: 27.7 MB

--------------------------------
SUGGESTED CITATIONS FOR THIS RUN
--------------------------------

Below you find a list of papers that are relevant to this ORCA run
We neither can nor want to force you to cite these papers, but we appreciate if you do
You receive ORCA, which is the product of decades of hard work by many enthusiastic individuals, for free
The only thing we kindly ask in return is that you cite our papers,
We deeply appreciate it, if you show your appreciation for ORCA by not just citing the generic ORCA reference.

Please note that relegating all ORCA citations to the supporting information does *not* help us.
SI sections are not indexed - citations you put there will not count into any citation statistics
But we need these citations in order to attract the funding resources that allow us to do what we are doing

Therefore, if you are a happy ORCA user, please consider citing a few of the papers listed below in the main body of your paper

In addition to the list printed below, the program has created the file product_optfreq.bibtex that contains the list in bibtex format
You can import this file easily into all common literature databanks and citation aid programs


List of essential papers. We consider these as the minimum necessary citations

  1. Grimme, S.; Hansen, A.; Ehlert, S.; Mewes, J.
     r2SCAN-3c: A 'Swiss army knife' composite electronic-structure method
     J. Chem. Phys. 2021 154 , 064103
     doi.org/10.1063/5.0040021
  2. Neese, F.
     Software update: the ORCA program system, version 6.0
     WIRES Comput. Molec. Sci. 2025 15(1), e70019
     doi.org/10.1002/wcms.7019

List of papers to cite with high priority. The work reported in these papers was absolutely
necessary for this run to complete.
Our perspective: the developers of density functionals and basis sets usually get cited in chemistry papers
Good! But without the algorithms to do something with them, the functionals or basis sets would not do anything.
Hence, in our opinion, the algorithm design and method developments papers are equally worthy of getting cited

  1. Neese, F.
     An improvement of the resolution of the identity approximation for the formation of the Coulomb matrix
     J. Comp. Chem. 2003 24(14), 1740-1747
     doi.org/10.1002/jcc.10318
  2. Bykov, D.; Petrenko, T.; Izsak, R.; Kossmann, S.; Becker, U.; Valeev, E.; Neese, F.
     Efficient implementation of the analytic second derivatives of Hartree-Fock and hybrid DFT energies: a detailed analysis of different approximations
     Molec. Phys. 2015 113 , 1961-1977
     doi.org/10.1080/00268976.2015.1025114
  3. Caldeweyher, E.; Bannwarth, C.; Grimme, S.
     Extension of the D3 dispersion coefficient model
     J. Chem. Phys. 2017 147 , 034112
     doi.org/10.1063/1.4993215
  4. Lehtola, S.; Steigemann, C.; Oliveira, M.; Marques, M.
     Recent developments in Libxc - A comprehensive library of functionals for density functional theory
     Software X 2018 7 , 
     doi.org/10.1016/j.softx.2017.11.002
  5. Caldeweyher, E.; Ehlert, S.; Hansen, A.; Neugebauer, H.; Spicher, S.; Bannwarth, C.; Grimme, S.
     A generally applicable atomic-charge dependent London dispersion correction
     J. Chem. Phys. 2019 150 , 154122
     doi.org/10.1063/1.5090222
  6. Caldeweyher, E.; Mewes, J.; Ehlert, S.; Grimme, S.
     Extension and evaluation of the D4 London-dispersion model for periodic systems
     Phys. Chem. Chem. Phys. 2020 22(16), 8499-8512
     doi.org/10.1039/D0CP00502A
  7. Neese, F.
     The SHARK Integral Generation and Digestion System
     J. Comp. Chem. 2022 44(3), 381
     doi.org/10.1002/jcc.26942
  8. Wittmann, L.; Gordiy, I.; Friede, M.; Helmich-Paris, B.; Grimme, S.; Hansen, A.; Bursch, M.
     Extension of the D3 and D4 London Dispersion Corrections to the full Actinides Series
     Phys. Chem. Chem. Phys. 2024 26(32), 21379-21394
     doi.org/10.1039/D4CP01514B

List of suggested additional citations. These are papers that are important in the 'surrounding' of 
of this run, or papers that preceded the highly important papers. If you like your results we are grateful for a citation.

  1. Neese, F.
     The ORCA program system
     WIRES Comput. Molec. Sci. 2012 2(1), 73-78
     doi.org/10.1002/wcms.81
  2. Neese, F.
     Software update: the ORCA program system, version 4.0
     WIRES Comput. Molec. Sci. 2018 8(1), 1-6
     doi.org/10.1002/wcms.1327
  3. Neese, F.; Wennmohs, F.; Becker, U.; Riplinger, C.
     The ORCA quantum chemistry program package
     J. Chem. Phys. 2020 152(22), 224108
     doi.org/10.1063/5.0004608
  4. Neese, F.
     Software update: The ORCA program system—Version 5.0
     WIRES Comput. Molec. Sci. 2022 12(1), e1606
     doi.org/10.1002/wcms.1606

List of optional additional citations

  1. Neese, F.
     Approximate second-order SCF convergence for spin unrestricted wavefunctions
     Chem. Phys. Lett. 2000 325(1-3), 93-98
     doi.org/10.1016/s0009-2614(00)00662-x

Timings for individual modules:

Sum of individual times          ...      148.427 sec (=   2.474 min)
Startup calculation              ...       22.225 sec (=   0.370 min)  15.0 %
SCF iterations                   ...       62.545 sec (=   1.042 min)  42.1 %
Property integrals               ...       19.929 sec (=   0.332 min)  13.4 %
SCF Response                     ...        4.174 sec (=   0.070 min)   2.8 %
Property calculations            ...        7.308 sec (=   0.122 min)   4.9 %
SCF Gradient evaluation          ...       32.216 sec (=   0.537 min)  21.7 %
Geometry relaxation              ...        0.030 sec (=   0.000 min)   0.0 %
                             ****ORCA TERMINATED NORMALLY****
TOTAL RUN TIME: 0 days 0 hours 2 minutes 38 seconds 395 msec
