
                                 *****************
                                 * O   R   C   A *
                                 *****************

                                            #,                                       
                                            ###                                      
                                            ####                                     
                                            #####                                    
                                            ######                                   
                                           ########,                                 
                                     ,,################,,,,,                         
                               ,,#################################,,                 
                          ,,##########################################,,             
                       ,#########################################, ''#####,          
                    ,#############################################,,   '####,        
                  ,##################################################,,,,####,       
                ,###########''''           ''''###############################       
              ,#####''   ,,,,##########,,,,          '''####'''          '####       
            ,##' ,,,,###########################,,,                        '##       
           ' ,,###''''                  '''############,,,                           
         ,,##''                                '''############,,,,        ,,,,,,###''
      ,#''                                            '''#######################'''  
     '                                                          ''''####''''         
             ,#######,   #######,   ,#######,      ##                                
            ,#'     '#,  ##    ##  ,#'     '#,    #''#        ,####,    ,#,          
            ##       ##  ##   ,#'  ##            #'  '#       #'       ,# #          
            ##       ##  #######   ##           ,######,      #####,      #          
            '#,     ,#'  ##    ##  '#,     ,#' ,#      #,     #,   #      #          
             '#######'   ##     ##  '#######'  #'      '#     '####' #    #          



                #########################################################
                #                        -***-                          #
                #          Department of theory and spectroscopy        #
                #                                                       #
                #                      Frank Neese                      #
                #                                                       #
                #     Directorship, Architecture, Infrastructure        #
                #                    SHARK, DRIVERS                     #
                #        Core code/Algorithms in most modules           #
                #                                                       #
                #        Max Planck Institute fuer Kohlenforschung      #
                #                Kaiser Wilhelm Platz 1                 #
                #                 D-45470 Muelheim/Ruhr                 #
                #                      Germany                          #
                #                                                       #
                #                  All rights reserved                  #
                #                        -***-                          #
                #########################################################


                         Program Version 6.1.0  -  RELEASE   -
                                (GIT: $679e74b$)
                          ($2025-06-10 18:02:51 +0200$)


 With contributions from (in alphabetic order):
[Max-Planck-Institut fuer Kohlenforschung]                               
  Daniel Aravena         : Magnetic Suceptibility                        
  Michael Atanasov       : Ab Initio Ligand Field Theory (pilot matlab implementation)
  Alexander A. Auer      : GIAO ZORA, VPT2 properties, NMR spectrum      
  Ute Becker             : All parallelization in ORCA, NUMFREQ, NUMCALC 
  Giovanni Bistoni       : ED, misc. LED, open-shell LED, HFLD           
  Dmytro Bykov           : pre 5.0 version of the SCF Hessian            
  Marcos Casanova-Páez   : Triplet and SCS-CIS(D). UHF-(DLPNO)-IP/EA/STEOM-CCSD. UHF-CVS-IP/STEOM-CCSD   
  Vijay G. Chilkuri      : MRCI spin determinant printing, contributions to CSF-ICE 
  Pauline Colinet        : FMM embedding                                 
  Dipayan Datta          : RHF DLPNO-CCSD density                        
  Achintya Kumar Dutta   : EOM-CC, STEOM-CC                              
  Nicolas Foglia         : Exact transition moments, OPA infrastructure, MCD improvements    
  Dmitry Ganyushin       : Spin-Orbit,Spin-Spin,Magnetic field MRCI      
  Miquel Garcia-Rates    : C-PCM and meta-GGA Hessian, CCSD/C-PCM, Gaussian charge scheme 
  Tiago L. C. Gouveia    : GS-ROHF, GS-ROCIS                             
  Yang Guo               : DLPNO-NEVPT2, F12-NEVPT2, CIM, IAO-localization        
  Andreas Hansen         : Spin unrestricted coupled pair/coupled cluster methods 
  Ingolf Harden          : AUTO-CI MPn and infrastructure                
  Benjamin Helmich-Paris : MC-RPA, TRAH-(SCF,CASSCF), AVAS, COSX integrals, SCF dyn. polar., MC-PDFT, srDFT 
  Lee Huntington         : MR-EOM, pCC                                   
  Robert Izsak           : Overlap fitted RIJCOSX, COSX-SCS-MP3, EOM     
  Riya Kayal             : Wick's Theorem for AUTO-CI, AUTO-CI UHF-CCSDT 
  Emily Kempfer          : AUTO-CI RHF CISDT and CCSDT, approximate NEVPT4
  Christian Kollmar      : KDIIS, OOCD, Brueckner-CCSD(T), CCSD density, CASPT2, CASPT2-K, improved NEVPT2 
  Axel Koslowski         : Symmetry handling                             
  Simone Kossmann        : meta-GGA functionals, TD-DFT gradient, OOMP2, (MP2 Hessian; deprecated post 5.0) 
  Lucas Lang             : DCDCAS, Hyperfine gauge corrections, ICE-SOC+SSC
  Marvin Lechner         : AUTO-CI (C++ implementation), FIC-MRCC        
  Spencer Leger          : CASSCF response                               
  Dagmar Lenk            : GEPOL surface, SMD, ORCA-2-JSON               
  Dimitrios Liakos       : Extrapolation schemes; Compound Job, Property file
  Dimitrios Manganas     : Further ROCIS development; embedding schemes. LFT, Crystal Embedding 
  Dimitrios Pantazis     : SARC Basis sets                               
  Anastasios Papadopoulos: AUTO-CI, single reference methods and gradients 
  Taras Petrenko         : pre 6.0 DFT Hessian and TD-DFT gradient,  ECA, NRVS 
  Petra Pikulova         : Analytic Raman intensities                    
  Peter Pinski           : DLPNO-MP2, DLPNO-MP2 Gradient                 
  Shashank Vittal Rao    : ES-AILFT, MagRelax                            
  Christoph Reimann      : Effective Core Potentials                     
  Marius Retegan         : Local ZFS, SOC                                
  Christoph Riplinger    : Optimizer, TS searches, QM/MM, DLPNO-CCSD(T), (RO)-DLPNO pert. Triples 
  Michael Roemelt        : Original ROCIS implementation, recursive CI coupling coefficients
  Masaaki Saitow         : Open-shell DLPNO-CCSD energy and density      
  Barbara Sandhoefer     : DKH picture change effects                    
  Yorick L. A. Schmerwitz: GMF and freeze-and-release deltaSCF, NEB S-IDPP initial path                    
  Kantharuban Sivalingam : CASSCF convergence/infrastructure, NEVPT2, NEVPT3, NEVPT4(SD), FIC-MRCI and CEPA variants
  Bernardo de Souza      : ESD, SOC TD-DFT                               
  Georgi L. Stoychev     : AutoAux, RI-MP2 NMR, DLPNO-MP2 response, X2C  
  Van Anh Tran           : RI-MP2 g-tensors                              
  Willem Van den Heuvel  : Paramagnetic NMR                              
  Zikuan Wang            : NOTCH, Electric field optimization            
  Frank Wennmohs         : Technical directorship and infrastructure     
  Hang Xu                : AUTO-CI-Response properties                   
                                                                         
[FACCTs GmbH]                                                            
  Markus Bursch, Nicolas Foglia, Miquel Garcia-Rates, Ingolf Harden, Hagen Neugebauer, Anastasios Papadopoulos, 
  Christoph Riplinger, Bernardo de Souza, Georgi L. Stoychev                                                    
                                                                 
  APM, various basis sets, CI-OPT, improved COSX, DLPNO-Multilevel,           
  DOCKER, DRACO, updates on ESD, Fragmentator, GOAT, IRC, LR-CPCM, L-BFGS, MBIS, meta-GGA TD-DFT gradient, ML-optimized integration grids, 
  MM, NACMEs, nearIR, NEB, NEB-TS, NL-DFT gradient (VV10), 2- and 3-layer-ONIOM, interface openCOSMO-RS, QMMM,   
  Crystal-QMMM, RESP, rigid body optimization, SF, symmetry and pop. for TD-DFT, various functionals, SOLVATOR                                   
                                                                         
[Other institutions]                                                     
  V. Asgeirsson          : NEB                                           
  Christoph Bannwarth    : sTDA-DFT, sTD-DFT, PBEh-3c, B97-3c, D3        
  Giovanni Bistoni       : ETS/NOCV, ADLD/ADEX, COVALED                  
  Martin Brehm           : Molecular dynamics                            
  Ronald Cardenas        : ETS/NOCV                                      
  Martina Colucci        : COVALED                                       
  Sebastian Ehlert       : rSCAN, r2SCAN, r2SCAN-3c, D4, dhf basis sets  
  Marvin Friede          : D4 for Fr, Ra, Ac-Lr                          
  Lars Goerigk           : TD-DFT with DH, B97 family of functionals     
  Stefan Grimme          : VdW corrections, initial TS optimization, DFT functionals, gCP, sTDA/sTD-DF 
  Waldemar Hujo          : DFT-NL                                        
  H. Jonsson             : NEB                                           
  Holger Kruse           : gCP                                           
  Marcel Mueller         : wB97X-3c, vDZP basis set                      
  Hagen Neugebauer       : wr2SCAN, Native XTB                           
  Gianluca Regni         : ADLD/ADEX                                     
  Tobias Risthaus        : pre 6.0 range-separated hybrid DFT and stability analysis
  Lukas Wittmann         : regularized MP2, r2SCAN double-hybrids, wr2SCAN        
                                                                         
We gratefully acknowledge several colleagues who have allowed us to      
interface, adapt or use parts of their codes:                            
  Ed Valeev, F. Pavosevic, A. Kumar             : LibInt (2-el integral package), F12 methods 
  Garnet Chan, S. Sharma, J. Yang, R. Olivares  : DMRG                   
  Ulf Ekstrom                                   : XCFun DFT Library      
  Mihaly Kallay                                 : mrcc  (arbitrary order and MRCC methods)
  Frank Weinhold                                : gennbo (NPA and NBO analysis)           
  Simon Mueller                                 : openCOSMO-RS                            
  Christopher J. Cramer and Donald G. Truhlar   : smd solvation model                     
  S Lehtola, MJT Oliveira, MAL Marques          : LibXC Library                           
  Liviu Ungur et al                             : ANISO software                          


 Your calculation uses the libint2 library for the computation of 2-el integrals
 For citations please refer to: http://libint.valeyev.net

 Your ORCA version has been built with support for libXC version: 7.0.0
 For citations please refer to: https://libxc.gitlab.io

 This ORCA versions uses:
   CBLAS   interface :  Fast vector & matrix operations
   LAPACKE interface :  Fast linear algebra routines
   SCALAPACK package :  Parallel linear algebra routines
   Shared memory     :  Shared parallel matrices
   BLAS/LAPACK       :  OpenBLAS 0.3.29  USE64BITINT DYNAMIC_ARCH NO_AFFINITY SkylakeX SINGLE_THREADED
        Core in use  :  SkylakeX
   Copyright (c) 2011-2014, The OpenBLAS Project


  ***********************************
  * Starting time: Thu Mar 12 13:11:40 2026
  * Host name:     midway3-login4.rcc.local
  * Process ID:    2959221
  * Working dir.:  /home/rzhu16/orca_TS_search/sn2_f_i/DFT_test
  ***********************************

Your calculation utilizes the geometrical counterpoise correction gCP
Please cite in your paper:
H.Kruse, S. Grimme J.Chem.Phys., 136, (2012), 154101 
   

Your calculation utilizes the atom-pairwise dispersion correction
based on EEQ partial charges (D4)


================================================================================

cite the ECPs for I  [Def2-ECP] as follows:
Ce-Yb(ecp-28): M. Dolg, H. Stoll, H.Preuss, J. Chem. Phys., 1989, 90, 1730-1734.
Y-Cd(ecp-28), Hf-Hg(ecp-46): D. Andrae,U. Haeussermann, M. Dolg, H. Stoll, H. Preuss, Theor. Chim. Acta, 1990, 77, 123-141.
In-Sb(ecp-28), Tl-Bi(ecp-46): B. Metz, H. Stoll, M. Dolg, J. Chem. Phys., 2000, 113, 2563-2569.
Te-Xe(ecp-28), Po-Rn(ecp-46): K. A. Peterson, D. Figgen, E. Goll, H. Stoll, M. Dolg, J. Chem. Phys., 2003, 119, 11113-11123.
Rb(ecp-28), Cs(ecp-46): T. Leininger, A. Nicklass, W. Kuechle, H. Stoll, M. Dolg, A. Bergner, Chem. Phys. Lett., 1996, 255, 274-280.
Sr(ecp-28), Ba(ecp-46): M. Kaupp, P. V. Schleyer, H. Stoll and H. Preuss, J. Chem. Phys., 1991, 94, 1360-1366.
La(ecp-46): M. Dolg, H. Stoll, A. Savin, H. Preuss, Theor. Chim. Acta, 1989, 75, 173-194.
Lu(ecp-28): X. Cao, M. Dolg, J. Chem. Phys., 2001, 115, 7348-7355.
Fr-Ra(ecp-78) K. Eichkorn, F. Weigend, O. Treutler, R. Ahlrichs, Theor. Chem. Acc. 1997, 97, 119.
Ac-Lr(ecp-60) K. Eichkorn, F. Weigend, O. Treutler, R. Ahlrichs, Theor. Chem. Acc. 1997, 97, 119.

ECP parameters for I  [Def2-ECP] have been obtained from:
TURBOMOLE (7.0.2)

----- Orbital basis set information -----
Your calculation utilizes the basis: def2-mTZVPP
   Stefan Grimme, Andreas Hansen, Sebastian Ehlert, and Jan-Michael Mewes 
   J. Chem. Phys. 154, 064103 (2021). DOI: 10.1063/5.0040021

----- AuxJ basis set information -----
Your calculation utilizes the basis: def2-mTZVPP/J
   Stefan Grimme, Andreas Hansen, Sebastian Ehlert, and Jan-Michael Mewes 
   J. Chem. Phys. 154, 000000 (2021). DOI: 10.1063/5.0040021

================================================================================
                                        WARNINGS
                       Please study these warnings very carefully!
================================================================================



WARNING: SCAN, rSCAN, or r2SCAN functional requested.
  ===> : libXC variant has now been activated.



WARNING: Geometry Optimization
  ===> : Switching off AutoStart
         For restart on a previous wavefunction, please use MOREAD

================================================================================
                                       INPUT FILE
================================================================================
NAME = reactant_optfreq.inp
|  1> ! r2SCAN-3c Opt Freq PAL8 TightSCF
|  2> 
|  3> %pal
|  4>    nprocs 8
|  5> end
|  6> 
|  7> %scf
|  8>    MaxIter 150
|  9> end
| 10> 
| 11> * xyz -1 1
| 12>   C       0.000094     -0.500025     -0.273526
| 13>   H      -0.000442      0.212173      0.583045
| 14>   H       0.887355     -1.124279     -0.246189
| 15>   H      -0.886340     -1.125473     -0.246439
| 16>   F      -0.000313      0.785459      2.150238
| 17>   I      -0.000242      0.430394     -2.242854
| 18> *
| 19> 
| 20>                          ****END OF INPUT****
================================================================================

                       *****************************
                       * Geometry Optimization Run *
                       *****************************

Geometry optimization settings:
Update method            Update   .... BFGS
Choice of coordinates    CoordSys .... (2022) Redundant Internals
Initial Hessian          InHess   .... Almloef's Model
Max. no of cycles        MaxIter  .... 50

Convergence Tolerances:
Energy Change            TolE     ....  5.0000e-06 Eh
Max. Gradient            TolMAXG  ....  3.0000e-04 Eh/bohr
RMS Gradient             TolRMSG  ....  1.0000e-04 Eh/bohr
Max. Displacement        TolMAXD  ....  4.0000e-03 bohr
RMS Displacement         TolRMSD  ....  2.0000e-03 bohr
Strict Convergence                .... False

------------------------------------------------------------------------------
                        ORCA OPTIMIZATION COORDINATE SETUP
------------------------------------------------------------------------------

The optimization will be done in redundant internal coordinates (2022)
Making redundant internal coordinates   ...  (2022 redundants) done
Evaluating the initial hessian          ...  (Almloef) done
Evaluating the coordinates              ...  done
Calculating the B-matrix                .... done
Calculating the G-matrix                .... done
The number of degrees of freedom        ....   15

    -----------------------------------------------------------------
                    Redundant Internal Coordinates


    -----------------------------------------------------------------
         Definition                    Initial Value    Approx d2E/dq
    -----------------------------------------------------------------
      1. B(H   1,C   0)                  1.1140         0.329741   
      2. B(H   2,C   0)                  1.0852         0.366498   
      3. B(H   3,C   0)                  1.0852         0.366491   
      4. B(F   4,H   1)                  1.6688         0.035750   
      5. B(I   5,C   0)                  2.1781         0.116128   
      6. A(H   1,C   0,H   3)          110.4191         0.287645   
      7. A(H   1,C   0,H   2)          110.4134         0.287646   
      8. A(H   1,C   0,I   5)          114.9695         0.281115   
      9. A(H   2,C   0,I   5)          105.5829         0.285766   
     10. A(H   3,C   0,I   5)          105.5834         0.285765   
     11. A(H   2,C   0,H   3)          109.6137         0.292454   
     12. A(C   0,H   1,F   4)          160.3508         0.204010   
     13. D(F   4,H   1,C   0,H   3)     60.7561         0.098149   
     14. D(F   4,H   1,C   0,I   5)   -179.9322         0.098149   
     15. D(F   4,H   1,C   0,H   2)    -60.6253         0.098149   
    -----------------------------------------------------------------

Number of atoms                         .... 6
Number of degrees of freedom            .... 15


         *************************************************************
         *                GEOMETRY OPTIMIZATION CYCLE   1            *
         *************************************************************
---------------------------------
CARTESIAN COORDINATES (ANGSTROEM)
---------------------------------
  C      0.000094   -0.500025   -0.273526
  H     -0.000442    0.212173    0.583045
  H      0.887355   -1.124279   -0.246189
  H     -0.886340   -1.125473   -0.246439
  F     -0.000313    0.785459    2.150238
  I     -0.000242    0.430394   -2.242854

----------------------------
CARTESIAN COORDINATES (A.U.)
----------------------------
  NO LB      ZA    FRAG     MASS         X           Y           Z
   0 C     6.0000    0    12.011    0.000178   -0.944910   -0.516889
   1 H     1.0000    0     1.008   -0.000835    0.400949    1.101795
   2 H     1.0000    0     1.008    1.676858   -2.124579   -0.465230
   3 H     1.0000    0     1.008   -1.674940   -2.126836   -0.465702
   4 F     9.0000    0    18.998   -0.000591    1.484302    4.063361
   5 I    25.0000*   0   126.900   -0.000457    0.813327   -4.238380
* core charge reduced due to ECP

--------------------------------
INTERNAL COORDINATES (ANGSTROEM)
--------------------------------
 C      0   0   0     0.000000000000     0.00000000     0.00000000
 H      1   0   0     1.113974935329     0.00000000     0.00000000
 H      1   2   0     1.085206178662   110.41344188     0.00000000
 H      1   2   3     1.085211565838   110.41909143   121.38135179
 F      2   1   3     1.668757248280   160.35080357   299.37470225
 I      1   2   3     2.178057024056   114.96945198   240.69309326

---------------------------
INTERNAL COORDINATES (A.U.)
---------------------------
 C      0   0   0     0.000000000000     0.00000000     0.00000000
 H      1   0   0     2.105107547824     0.00000000     0.00000000
 H      1   2   0     2.050742476510   110.41344188     0.00000000
 H      1   2   3     2.050752656798   110.41909143   121.38135179
 F      2   1   3     3.153494183245   160.35080357   299.37470225
 I      1   2   3     4.115931279530   114.96945198   240.69309326

---------------------
BASIS SET INFORMATION
---------------------
There are 4 groups of distinct atoms

 Group   1 Type C   : 11s6p1d contracted to 5s3p1d pattern {62111/411/1}
 Group   2 Type H   : 4s1p contracted to 2s1p pattern {31/1}
 Group   3 Type F   : 11s6p2d contracted to 5s3p2d pattern {62111/411/11}
 Group   4 Type I   : 11s10p8d contracted to 6s5p3d pattern {521111/34111/611}

Atom   0C    basis set group =>   1
Atom   1H    basis set group =>   2
Atom   2H    basis set group =>   2
Atom   3H    basis set group =>   2
Atom   4F    basis set group =>   3
Atom   5I    basis set group =>   4
---------------------------------
AUXILIARY/J BASIS SET INFORMATION
---------------------------------
There are 4 groups of distinct atoms

 Group   1 Type C   : 8s3p3d contracted to 6s3p3d pattern {311111/111/111}
 Group   2 Type H   : 5s2p1d contracted to 3s1p1d pattern {311/2/1}
 Group   3 Type F   : 8s3p4d contracted to 6s3p4d pattern {311111/111/1111}
 Group   4 Type I   : 11s5p5d3f1g contracted to 8s4p3d2f1g pattern {41111111/2111/311/21/1}

Atom   0C    basis set group =>   1
Atom   1H    basis set group =>   2
Atom   2H    basis set group =>   2
Atom   3H    basis set group =>   2
Atom   4F    basis set group =>   3
Atom   5I    basis set group =>   4
-------------------------
ECP PARAMETER INFORMATION
-------------------------

 Group 1, Type I  ECP Def2-ECP (replacing 28 core electrons, lmax=3)

Atom   5I    ECP group =>   1



           ************************************************************
           *        Program running with 8 parallel MPI-processes     *
           *              working on a common directory               *
           ************************************************************
------------------------------------------------------------------------------
                             ORCA STARTUP CALCULATIONS
                           -- RI-GTO INTEGRALS CHOSEN --
------------------------------------------------------------------------------
------------------------------------------------------------------------------
                   ___                                                        
                  /   \      - P O W E R E D   B Y -                         
                 /     \                                                     
                 |  |  |   _    _      __       _____    __    __             
                 |  |  |  | |  | |    /  \     |  _  \  |  |  /  |          
                  \  \/   | |  | |   /    \    | | | |  |  | /  /          
                 / \  \   | |__| |  /  /\  \   | |_| |  |  |/  /          
                |  |  |   |  __  | /  /__\  \  |    /   |      \           
                |  |  |   | |  | | |   __   |  |    \   |  |\   \          
                \     /   | |  | | |  |  |  |  | |\  \  |  | \   \       
                 \___/    |_|  |_| |__|  |__|  |_| \__\ |__|  \__/        
                                                                              
                      - O R C A' S   B I G   F R I E N D -                    
                                      &                                       
                       - I N T E G R A L  F E E D E R -                       
                                                                              
 v1 FN, 2020, v2 2021, v3 2022-2024                                           
------------------------------------------------------------------------------


----------------------
SHARK INTEGRAL PACKAGE
----------------------

Number of atoms                             ...      6
Number of basis functions                   ...     94
Number of shells                            ...     42
Maximum angular momentum                    ...      2
Integral batch strategy                     ... SHARK/LIBINT Hybrid
RI-J (if used) integral strategy            ... SPLIT-RIJ (Revised 2003 algorithm where possible)
Printlevel                                  ...      1
Contraction scheme used                     ... SEGMENTED contraction
Prescreening option                         ... SCHWARTZ
   Thresh                                   ... 2.500e-11
   Tcut                                     ... 2.500e-12
   Tpresel                                  ... 2.500e-12 
Coulomb Range Separation                    ... NOT USED
Exchange Range Separation                   ... NOT USED
Multipole approximations                    ... NOT USED
Finite Nucleus Model                        ... NOT USED
CABS basis                                  ... NOT available
Auxiliary Coulomb fitting basis             ... AVAILABLE
   # of basis functions in Aux-J            ...    156
   # of shells in Aux-J                     ...     58
   Maximum angular momentum in Aux-J        ...      4
Auxiliary J/K fitting basis                 ... NOT available
Auxiliary Correlation fitting basis         ... NOT available
Auxiliary 'external' fitting basis          ... NOT available

Checking pre-screening integrals            ... done (  0.0 sec) Dimension = 42
   => SHARK Basis and OBASIS are compatible. Storing Pre-screening
Shell pair information
Shell pair cut-off parameter TPreSel        ...   2.5e-12
Total number of shell pairs                 ...       903
Shell pairs after pre-screening             ...       834
Total number of primitive shell pairs       ...      3409
Primitive shell pairs kept                  ...      2458
          la=0 lb=0:    226 shell pairs
          la=1 lb=0:    283 shell pairs
          la=1 lb=1:    102 shell pairs
          la=2 lb=0:    122 shell pairs
          la=2 lb=1:     81 shell pairs
          la=2 lb=2:     20 shell pairs

Checking whether 4 symmetric matrices of dimension 94 fit in memory
:Max Core in MB      =   4096.00
 MB in use           =      4.34
 MB left             =   4091.66
 MB needed           =      0.14
 Data fit in memory  = YES
Calculating RI/J V-Matrix + Cholesky decomp.... done (  0.0 sec)
Calculating Nuclear repulsion               ... done (  0.0 sec) ENN=    103.833492439704 Eh

Diagonalization of the overlap matrix:
Smallest eigenvalue                        ... 3.462e-03
Time for diagonalization                   ...    0.001 sec
Threshold for overlap eigenvalues          ... 1.000e-07
Number of eigenvalues below threshold      ... 0
Time for construction of square roots      ...    0.001 sec
Total time needed                          ...    0.002 sec

-------------------
DFT GRID GENERATION
-------------------

General Integration Accuracy     IntAcc      ... 4.388
Radial Grid Type                 RadialGrid  ... OptM3 with GC (2021)
Angular Grid (max. ang.)         AngularGrid ... 4 (Lebedev-302)
Angular grid pruning method      GridPruning ... 4 (adaptive)
Weight generation scheme         WeightScheme... mBecke (2022)
Basis function cutoff            BFCut       ... 1.0000e-11
Integration weight cutoff        WCut        ... 1.0000e-14
Partially contracted basis set               ... off
Rotationally invariant grid construction     ... off
Angular grids for H and He will be reduced by one unit

Total number of grid points                  ...    33635
Total number of batches                      ...      529
Average number of points per batch           ...       63
Average number of grid points per atom       ...     5606
Grids setup in   1.1 sec
Initializing property integral containers    ... done (  0.0 sec)

SHARK setup successfully completed in   1.7 seconds

Maximum memory used throughout the entire STARTUP-calculation: 12.8 MB


           ************************************************************
           *        Program running with 8 parallel MPI-processes     *
           *              working on a common directory               *
           ************************************************************
-------------------------------------------------------------------------------
                                 ORCA GUESS
                   Start orbitals & Density for SCF / CASSCF
-------------------------------------------------------------------------------

------------
SCF SETTINGS
------------
Hamiltonian:
 Density Functional     Method          .... DFT(GTOs)
  Functional kind                       .... Exchange
  Functional name                       .... Re-regularized SCAN exchange by Furness et al
  Functional family                     .... MGGA
  Functional refs                              
    [ 0] J. W. Furness, A. D. Kaplan, J. Ning, J. P. Perdew, and J. Sun.,  J. Phys. Chem. Lett. 11, 8208-8215 (2020), doi: 10.1021/acs.jpclett.0c02405
    [ 1] J. W. Furness, A. D. Kaplan, J. Ning, J. P. Perdew, and J. Sun.,  J. Phys. Chem. Lett. 11, 9248-9248 (2020), doi: 10.1021/acs.jpclett.0c03077
  Functional external parameters        .... 6
    Parameter  0 _c1        =  6.670000e-01 : c1 parameter        
    Parameter  1 _c2        =  8.000000e-01 : c2 parameter        
    Parameter  2 _d         =  1.240000e+00 : d parameter         
    Parameter  3 _k1        =  6.500000e-02 : k1 parameter        
    Parameter  4 _eta       =  1.000000e-03 : eta parameter       
    Parameter  5 _dp2       =  3.610000e-01 : dp2 parameter       
  Functional kind                       .... Correlation
  Functional name                       .... Re-regularized SCAN correlation by Furness et al
  Functional family                     .... MGGA
  Functional refs                              
    [ 0] J. W. Furness, A. D. Kaplan, J. Ning, J. P. Perdew, and J. Sun.,  J. Phys. Chem. Lett. 11, 8208-8215 (2020), doi: 10.1021/acs.jpclett.0c02405
    [ 1] J. W. Furness, A. D. Kaplan, J. Ning, J. P. Perdew, and J. Sun.,  J. Phys. Chem. Lett. 11, 9248-9248 (2020), doi: 10.1021/acs.jpclett.0c03077
  Functional external parameters        .... 1
    Parameter  0 _eta       =  1.000000e-03 : Regularization parameter
 Gradients option       PostSCFGGA      .... off
 RI-approximation to the Coulomb term is turned on
   Number of AuxJ basis functions       .... 156


General Settings:
 Integral files         IntName         .... reactant_optfreq
 Hartree-Fock type      HFTyp           .... RHF
 Total Charge           Charge          ....   -1
 Multiplicity           Mult            ....    1
 Number of Electrons    NEL             ....   44
 Basis Dimension        Dim             ....   94
 Nuclear Repulsion      ENuc            ....    103.8334924397 Eh

Convergence Acceleration:
 AO-DIIS                CNVDIIS         .... on
   Start iteration      DIISMaxIt       ....    12
   Startup error        DIISStart       ....  0.200000
   # of expansion vecs  DIISMaxEq       ....     5
   Bias factor          DIISBfac        ....   1.050
   Max. coefficient     DIISMaxC        ....  10.000
 MO-DIIS                CNVKDIIS        .... off
 Trust-Rad. Augm. Hess. CNVTRAH         .... auto
   Auto Start mean grad. ratio tolernc. ....  1.125000
   Auto Start start iteration           ....    50
   Auto Start num. interpolation iter.  ....    10
   Max. Number of Micro iterations      ....    24
   Max. Number of Macro iterations      .... Maxiter - #DIIS iter
   Number of Davidson start vectors     ....     2
   Converg. threshold    (grad. norm)   ....   1.000e-05
   Grad. Scal. Fac. for Micro threshold ....   0.100
   Minimum threshold for Micro iter.    ....   1.000e-02
   NR start threshold (gradient norm)   ....   1.000e-04
   Initial trust radius                 ....   0.400
   Minimum AH scaling param. (alpha)    ....   1.000
   Maximum AH scaling param. (alpha)    .... 1000.000
   Quad. conv. algorithm                .... NR
   White noise on init. David. guess    .... on
   Maximum white noise                  ....   0.010
   Pseudo random numbers                .... off
   Inactive MOs                         .... canonical
   Orbital update algorithm             .... Taylor
   Preconditioner                       .... Diag
   Full preconditioner red. dimension   ....   250
   COSX micro iterations for RIJONX calc.... off
 SOSCF                 CNVSOSCF           .... on
   Start iteration     SOSCFMaxIt         ....   150
   Startup grad/error  SOSCFStart         ....  0.003300
   Hessian update      SOSCFHessUp        .... L-BFGS
   Autom. constraints  SOSCFAutoConstrain .... off
 Level Shifting         CNVShift        .... on
   Level shift para.    LevelShift      ....    0.2500
   Turn off err/grad.   ShiftErr        ....    0.0010
 Zerner damping         CNVZerner       .... off
 Static damping         CNVDamp         .... on
   Fraction old density DampFac         ....    0.7000
   Max. Damping (<1)    DampMax         ....    0.9800
   Min. Damping (>=0)   DampMin         ....    0.0000
   Turn off err/grad.   DampErr         ....    0.1000

SCF Procedure:
 Maximum # iterations   MaxIter         ....   150
 SCF integral mode      SCFMode         .... Direct
   Integral package                     .... SHARK and LIBINT hybrid scheme
 Reset frequency        DirectResetFreq ....    20
 Integral Threshold     Thresh          ....  2.500e-11 Eh
 Primitive CutOff       TCut            ....  2.500e-12 Eh

Convergence Tolerance:
 Convergence Check Mode ConvCheckMode   .... Total+1el-Energy
 Convergence forced     ConvForced      .... 0
 Energy Change          TolE            ....  1.000e-08 Eh
 1-El. energy change                    ....  1.000e-05 Eh
 Orbital Gradient       TolG            ....  1.000e-05
 Orbital Rotation angle TolX            ....  1.000e-05
 DIIS Error             TolErr          ....  5.000e-07

------------------------------
INITIAL GUESS: MODEL POTENTIAL
------------------------------
Loading Hartree-Fock densities                     ... done
Atomic calculation to generate a density for atom 5 (I  with ECP)
  Multiplicity assumed   :    2
  Atomic configuration   : 1s2 2s2 2p6 3s2 3p6 4s2 3d10 4p6 5s2 4d10 5p5 
  Number of open shells  : 1
  Command: /software/orca-6.1.0-el8-x86_64/bin/orca reactant_optfreq_atom53.inp "" > reactant_optfreq_atom53.out
Returned from the atomic calculation with res=0
Calculating cut-offs                               ... done
Initializing the effective Hamiltonian             ... done
Setting up the integral package (SHARK)            ... done
Starting the Coulomb interaction                   ... done (   0.0 sec)
Making the grid                                    ... done (   0.3 sec)
Mapping shells                                     ... done
Starting the XC term evaluation                    ... done (   0.0 sec)
  promolecular density results
     # of electrons  =     70.998705296
     EX              =   -189.030255814
     EC              =     -3.441152785
     EX+EC           =   -192.471408599
Transforming the Hamiltonian                       ... done (   0.0 sec)
Diagonalizing the Hamiltonian                      ... done (   0.0 sec)
Back transforming the eigenvectors                 ... done (   0.0 sec)
Now organizing SCF variables                       ... done
                      ------------------
                      INITIAL GUESS DONE (   6.5 sec)
                      ------------------
             **** ENERGY FILE WAS UPDATED (reactant_optfreq.en.tmp) ****
Finished Guess after   6.9 sec
Maximum memory used throughout the entire GUESS-calculation: 7.4 MB


           ************************************************************
           *        Program running with 8 parallel MPI-processes     *
           *              working on a common directory               *
           ************************************************************

-------------------------------------------------------------------------------------------
                                      ORCA LEAN-SCF
                              memory conserving SCF solver
-------------------------------------------------------------------------------------------

----------------------------------------D-I-I-S--------------------------------------------
Iteration    Energy (Eh)           Delta-E    RMSDP     MaxDP     DIISErr   Damp  Time(sec)
-------------------------------------------------------------------------------------------
               ***  Starting incremental Fock matrix formation  ***
    1    -437.2722998275294231     0.00e+00  1.56e-02  8.17e-02  6.00e-01  0.700   0.6
Warning: op=0 Small HOMO/LUMO gap (   0.020) - skipping pre-diagonalization
         Will do a full diagonalization
    2    -437.3825075041390846    -1.10e-01  1.17e-02  5.85e-02  4.08e-01  0.700   0.5
    3    -437.4210479576785247    -3.85e-02  6.07e-03  4.03e-02  2.77e-01  0.700   0.5
                               ***Turning on AO-DIIS***
    4    -437.4438027538296865    -2.28e-02  3.04e-03  2.14e-02  1.89e-01  0.700   0.5
    5    -437.4613866694019180    -1.76e-02  1.84e-03  1.08e-02  1.32e-01  0.700   0.4
    6    -437.4736931942754836    -1.23e-02  1.24e-03  7.27e-03  9.35e-02  0.700   0.5
    7    -437.4824468612109740    -8.75e-03  3.10e-03  1.52e-02  6.60e-02  0.000   0.4
    8    -437.5029202357953864    -2.05e-02  7.37e-04  4.24e-03  1.18e-02  0.000   0.6
    9    -437.5030267631289007    -1.07e-04  3.18e-04  1.27e-03  4.72e-03  0.000   0.5
                              *** Initializing SOSCF ***
---------------------------------------S-O-S-C-F--------------------------------------
Iteration    Energy (Eh)           Delta-E    RMSDP     MaxDP     MaxGrad    Time(sec)
--------------------------------------------------------------------------------------
   10    -437.5030442198427636    -1.75e-05  1.53e-04  7.31e-04  1.17e-03     0.3
               *** Restarting incremental Fock matrix formation ***
   11    -437.5030488097094121    -4.59e-06  2.45e-04  1.16e-03  2.21e-04     0.3
   12    -437.5030495220696594    -7.12e-07  1.03e-04  5.55e-04  2.34e-04     0.3
   13    -437.5030498345485057    -3.12e-07  7.43e-05  4.12e-04  1.81e-04     0.2
   14    -437.5030500658119763    -2.31e-07  2.67e-05  1.02e-04  7.39e-05     0.4
   15    -437.5030500559430493     9.87e-09  2.65e-05  1.10e-04  6.76e-05     0.3
                 **** Energy Check signals convergence ****

               *****************************************************
               *                     SUCCESS                       *
               *           SCF CONVERGED AFTER  15 CYCLES          *
               *****************************************************

             **** ENERGY FILE WAS UPDATED (reactant_optfreq.en.tmp) ****

----------------
TOTAL SCF ENERGY
----------------

Total Energy       :       -437.50305010177738 Eh          -11905.06323 eV

Components:
Nuclear Repulsion  :        103.83349243970407 Eh            2825.45297 eV
Electronic Energy  :       -541.33654254148155 Eh          -14730.51621 eV
One Electron Energy:       -926.23143665341775 Eh          -25204.03874 eV
Two Electron Energy:        384.89489411193625 Eh           10473.52253 eV

Virial components:
Potential Energy   :       -688.91695425042030 Eh          -18746.38337 eV
Kinetic Energy     :        251.41390414864298 Eh            6841.32014 eV
Virial Ratio       :          2.74017046345660

DFT components:
N(Alpha)           :       21.999985042754 electrons
N(Beta)            :       21.999985042754 electrons
N(Total)           :       43.999970085507 electrons
E(X)               :      -37.827706954198 Eh       
E(C)               :       -1.663012365841 Eh       
E(XC)              :      -39.490719320039 Eh       

---------------
SCF CONVERGENCE
---------------

  Last Energy change         ...   -9.8689e-09  Tolerance :   1.0000e-08
  Last MAX-Density change    ...    1.1016e-04  Tolerance :   1.0000e-07
  Last RMS-Density change    ...    2.6537e-05  Tolerance :   5.0000e-09
  Last DIIS Error            ...    1.1655e-03  Tolerance :   5.0000e-07
  Last Orbital Gradient      ...    6.7553e-05  Tolerance :   1.0000e-05
  Last Orbital Rotation      ...    2.4765e-04  Tolerance :   1.0000e-05


----------------
ORBITAL ENERGIES
----------------

  NO   OCC          E(Eh)            E(eV) 
   0   2.0000     -24.074399      -655.0977 
   1   2.0000      -9.897662      -269.3291 
   2   2.0000      -6.661876      -181.2789 
   3   2.0000      -4.677847      -127.2907 
   4   2.0000      -4.665600      -126.9574 
   5   2.0000      -4.665295      -126.9491 
   6   2.0000      -1.713574       -46.6287 
   7   2.0000      -1.710812       -46.5536 
   8   2.0000      -1.710484       -46.5446 
   9   2.0000      -1.700121       -46.2626 
  10   2.0000      -1.700119       -46.2626 
  11   2.0000      -0.706962       -19.2374 
  12   2.0000      -0.550741       -14.9864 
  13   2.0000      -0.450575       -12.2608 
  14   2.0000      -0.236625        -6.4389 
  15   2.0000      -0.212014        -5.7692 
  16   2.0000      -0.179174        -4.8756 
  17   2.0000      -0.093321        -2.5394 
  18   2.0000      -0.091943        -2.5019 
  19   2.0000       0.009503         0.2586 
  20   2.0000       0.010405         0.2831 
  21   2.0000       0.011025         0.3000 
  22   0.0000       0.095019         2.5856 
  23   0.0000       0.253489         6.8978 
  24   0.0000       0.289211         7.8698 
  25   0.0000       0.291542         7.9333 
  26   0.0000       0.306602         8.3431 
  27   0.0000       0.324045         8.8177 
  28   0.0000       0.328034         8.9263 
  29   0.0000       0.343372         9.3436 
  30   0.0000       0.353422         9.6171 
  31   0.0000       0.360005         9.7962 
  32   0.0000       0.377607        10.2752 
*Only the first 10 virtual orbitals were printed.

                    ********************************
                    * MULLIKEN POPULATION ANALYSIS *
                    ********************************

-----------------------
MULLIKEN ATOMIC CHARGES
-----------------------
   0 C :   -0.450839
   1 H :    0.356360
   2 H :    0.133449
   3 H :    0.133421
   4 F :   -0.842371
   5 I :   -0.330020
Sum of atomic charges:   -1.0000000

--------------------------------
MULLIKEN REDUCED ORBITAL CHARGES
--------------------------------
  0 C s       :     3.346620  s :     3.346620
      pz      :     0.890306  p :     3.083792
      px      :     1.039531
      py      :     1.153955
      dz2     :     0.006467  d :     0.020428
      dxz     :     0.001124
      dyz     :     0.004268
      dx2y2   :     0.000970
      dxy     :     0.007599

  1 H s       :     0.617889  s :     0.617889
      pz      :     0.015608  p :     0.025750
      px      :     0.002995
      py      :     0.007147

  2 H s       :     0.847724  s :     0.847724
      pz      :     0.003468  p :     0.018828
      px      :     0.008834
      py      :     0.006526

  3 H s       :     0.847751  s :     0.847751
      pz      :     0.003468  p :     0.018828
      px      :     0.008825
      py      :     0.006535

  4 F s       :     3.992760  s :     3.992760
      pz      :     1.908693  p :     5.846760
      px      :     1.984580
      py      :     1.953488
      dz2     :     0.001770  d :     0.002851
      dxz     :     0.000167
      dyz     :     0.000819
      dx2y2   :     0.000060
      dxy     :     0.000035

  5 I s       :     3.977152  s :     3.977152
      pz      :     3.424299  p :    11.295741
      px      :     4.005537
      py      :     3.865905
      dz2     :     2.023697  d :    10.057127
      dxz     :     2.012618
      dyz     :     2.013682
      dx2y2   :     2.002027
      dxy     :     2.005104



                     *******************************
                     * LOEWDIN POPULATION ANALYSIS *
                     *******************************

----------------------
LOEWDIN ATOMIC CHARGES
----------------------
   0 C :   -0.550646
   1 H :    0.230506
   2 H :    0.141656
   3 H :    0.141641
   4 F :   -0.851514
   5 I :   -0.111643

-------------------------------
LOEWDIN REDUCED ORBITAL CHARGES
-------------------------------
  0 C s       :     3.112209  s :     3.112209
      pz      :     1.025411  p :     3.391214
      px      :     1.164321
      py      :     1.201483
      dz2     :     0.014301  d :     0.047223
      dxz     :     0.001968
      dyz     :     0.009679
      dx2y2   :     0.002625
      dxy     :     0.018649

  1 H s       :     0.683954  s :     0.683954
      pz      :     0.054309  p :     0.085540
      px      :     0.007162
      py      :     0.024069

  2 H s       :     0.812229  s :     0.812229
      pz      :     0.007911  p :     0.046116
      px      :     0.021835
      py      :     0.016369

  3 H s       :     0.812244  s :     0.812244
      pz      :     0.007910  p :     0.046115
      px      :     0.021810
      py      :     0.016394

  4 F s       :     3.975697  s :     3.975697
      pz      :     1.909870  p :     5.855066
      px      :     1.989374
      py      :     1.955822
      dz2     :     0.012668  d :     0.020750
      dxz     :     0.000344
      dyz     :     0.007260
      dx2y2   :     0.000360
      dxy     :     0.000119

  5 I s       :     3.777972  s :     3.777972
      pz      :     3.394335  p :    11.212614
      px      :     3.974163
      py      :     3.844116
      dz2     :     2.054158  d :    10.121056
      dxz     :     2.019204
      dyz     :     2.035043
      dx2y2   :     2.004849
      dxy     :     2.007802



                      *****************************
                      * MAYER POPULATION ANALYSIS *
                      *****************************

  NA   - Mulliken gross atomic population
  ZA   - Total nuclear charge
  QA   - Mulliken gross atomic charge
  VA   - Mayer's total valence
  BVA  - Mayer's bonded valence
  FA   - Mayer's free valence

  ATOM       NA         ZA         QA         VA         BVA        FA
  0 C      6.4508     6.0000    -0.4508     3.6852     3.6852     0.0000
  1 H      0.6436     1.0000     0.3564     0.8966     0.8966     0.0000
  2 H      0.8666     1.0000     0.1334     0.9606     0.9606     0.0000
  3 H      0.8666     1.0000     0.1334     0.9606     0.9606     0.0000
  4 F      9.8424     9.0000    -0.8424     0.2769     0.2769     0.0000
  5 I     25.3300    25.0000    -0.3300     0.9160     0.9160     0.0000

  Mayer bond orders larger than 0.100000
B(  0-C ,  1-H ) :   0.7910 B(  0-C ,  2-H ) :   0.9623 B(  0-C ,  3-H ) :   0.9623 
B(  0-C ,  4-F ) :   0.1269 B(  0-C ,  5-I ) :   0.8427 B(  1-H ,  4-F ) :   0.1023 


-------
TIMINGS
-------

Total SCF time: 0 days 0 hours 0 min 7 sec 

Total time                  ....       7.402 sec
Sum of individual times     ....       6.926 sec  ( 93.6%)

SCF preparation             ....       0.687 sec  (  9.3%)
Fock matrix formation       ....       5.037 sec  ( 68.0%)
  Startup                   ....       0.101 sec  (  2.0% of F)
  Split-RI-J                ....       0.899 sec  ( 17.8% of F)
  XC integration            ....       3.648 sec  ( 72.4% of F)
    XC Preparation          ....       0.000 sec  (  0.0% of XC)
    Basis function eval.    ....       0.274 sec  (  7.5% of XC)
    Density eval.           ....       0.458 sec  ( 12.5% of XC)
    XC-Functional eval.     ....       0.844 sec  ( 23.1% of XC)
    XC-Potential eval.      ....       0.769 sec  ( 21.1% of XC)
Diagonalization             ....       0.000 sec  (  0.0%)
Density matrix formation    ....       0.392 sec  (  5.3%)
Total Energy calculation    ....       0.039 sec  (  0.5%)
Population analysis         ....       0.010 sec  (  0.1%)
Orbital Transformation      ....       0.100 sec  (  1.3%)
Orbital Orthonormalization  ....       0.000 sec  (  0.0%)
DIIS solution               ....       0.539 sec  (  7.3%)
SOSCF solution              ....       0.122 sec  (  1.7%)
Finished LeanSCF after   7.5 sec

Maximum memory used throughout the entire LEANSCF-calculation: 6.5 MB


           ************************************************************
           *        Program running with 8 parallel MPI-processes     *
           *              working on a common directory               *
           ************************************************************

------------------------------------------------------------------------------
                         ORCA PROPERTY INTEGRAL CALCULATIONS
------------------------------------------------------------------------------

GBWName                                   ... reactant_optfreq.gbw
Number of atoms                           ...      6
Number of basis functions                 ...     94
Max core memory                           ...   4096 MB

Dipole integrals                          ... YES
Quadrupole integrals                      ...  NO
Linear momentum integrals                 ...  NO
Angular momentum integrals                ...  NO
Higher moments length integrals           ...  NO
Higher moments velocity integrals         ...  NO
Kinetic energy integrals                  ...  NO
GIAO right hand sides                     ...  NO
GIAO dipole derivative integrals          ...  NO
SOC integrals                             ...  NO
EPR diamagnetic integrals (GIAO)          ...  NO
EPR gauge integrals                       ...  NO
Field gradient integrals                  ...  NO (   0 nuclei)
Spin-dipole/Fermi contact integrals       ...  NO (   0 nuclei)
Contact density integrals                 ...  NO (   0 nuclei)
Nucleus-orbit integrals                   ...  NO (   0 nuclei)
Geometric perturbations                   ...  NO (   6 nuclei)

Choice of electric origin   ... Center of mass
Position of electric origin ... ( -0.0004,  0.7219, -2.8999) 
Choice of magnetic origin   ... GIAO
Position of magnetic origin ... (  0.0000,  0.0000,  0.0000) 

Calculating integrals                     ... Electric Dipole (Length)     done (  0.0 sec)

Property integrals calculated in   0.0 sec

Maximum memory used throughout the entire PROPINT-calculation: 6.9 MB


-------------------------------------------------------------------------------
                          DFT DISPERSION CORRECTION                            
                                                                               
                                DFTD4 V3.4.0                                   
-------------------------------------------------------------------------------
The R2SCAN3C composite method is recognized
Using three-body term ABC
Active option DFTDOPT                   ...         5   

-------------------------   ----------------
Dispersion correction           -0.000949855
-------------------------   ----------------

------------------   -----------------
gCP correction             0.003936244
------------------   -----------------

-------------------------   --------------------
FINAL SINGLE POINT ENERGY      -437.500063713314
-------------------------   --------------------



           ************************************************************
           *        Program running with 8 parallel MPI-processes     *
           *              working on a common directory               *
           ************************************************************
------------------------------------------------------------------------------
                         ORCA SCF GRADIENT CALCULATION
------------------------------------------------------------------------------

Nuc. rep. gradient        (SHARK) ... done (  0.0 sec)
HCore & Overlap gradient  (SHARK) ... done (  0.1 sec)
ECP gradient              (SHARK) ... done (  0.1 sec)
Split-RIJ-J gradient      (SHARK) ... done (  1.3 sec)
XC gradient                       ... done (  0.6 sec)
Dispersion correction             ... done (  0.1 sec)

-------------------
DISPERSION GRADIENT
-------------------

   1   C   :    0.000000004   -0.000010380    0.000003275
   2   H   :    0.000000000    0.000001445    0.000007224
   3   H   :    0.000001874   -0.000003853   -0.000002014
   4   H   :   -0.000001871   -0.000003857   -0.000002016
   5   F   :   -0.000000004    0.000011448    0.000047586
   6   I   :   -0.000000002    0.000005198   -0.000054056

Difference to translation invariance:
           :   -0.0000000000    0.0000000000   -0.0000000000

Difference to rotation invariance:
           :   -0.0000000000   -0.0000000000   -0.0000000000

Norm of the Dispersion gradient    ...    0.0000745800
RMS gradient                       ...    0.0000175787
MAX gradient                       ...    0.0000540559
gCP correction                   ... done

------------------
CARTESIAN GRADIENT
------------------

   1   C   :   -0.000001826    0.009683899   -0.005550931
   2   H   :    0.000002031   -0.013731042   -0.009968575
   3   H   :   -0.003768045    0.001881059    0.002354713
   4   H   :    0.003763424    0.001885312    0.002355590
   5   F   :    0.000002438    0.003223120    0.005423507
   6   I   :    0.000001978   -0.002942347    0.005385696

Difference to translation invariance:
           :   -0.0000000000   -0.0000000000    0.0000000000

Difference to rotation invariance:
           :   -0.0000140959    0.0000003608    0.0000000197

Norm of the Cartesian gradient     ...    0.0231628710
RMS gradient                       ...    0.0054595411
MAX gradient                       ...    0.0137310420

-------
TIMINGS
-------

Total SCF gradient time     ....        2.264 sec

Densities                   ....       0.000 sec  (  0.0%)
One electron gradient       ....       0.063 sec  (  2.8%)
RI-J Coulomb gradient       ....       1.287 sec  ( 56.8%)
XC gradient                 ....       0.598 sec  ( 26.4%)

Maximum memory used throughout the entire SCFGRAD-calculation: 26.8 MB
------------------------------------------------------------------------------
                         ORCA GEOMETRY RELAXATION STEP
------------------------------------------------------------------------------

Reading the OPT-File                    .... done
Getting information on internals        .... done
Copying old internal coords+grads       .... done
Making the new internal coordinates     .... (2022 redundants) done
Validating the new internal coordinates .... (2022 redundants) done
Calculating the B-matrix                .... done
Calculating the G,G- and P matrices     .... done
Transforming gradient to internals      .... done
Projecting the internal gradient        .... done
Number of atoms                         ....   6
Number of internal coordinates          ....  15
Current Energy                          ....  -437.500063713 Eh
Current gradient norm                   ....     0.023162871 Eh/bohr
Maximum allowed component of the step   ....  0.300
Current trust radius                    ....  0.300
Evaluating the initial hessian          ....  (Almloef) done
Projecting the Hessian                  .... done
Forming the augmented Hessian           .... done
Diagonalizing the augmented Hessian     .... done
Last element of RFO vector              ....  0.984410259
Lowest eigenvalues of augmented Hessian:
 -0.001972318  0.036763018  0.098149260  0.116448769  0.204074450
Length of the computed step             ....  0.178673048
The final length of the internal step   ....  0.178673048
Converting the step to Cartesian space:
 Initial RMS(Int)=    0.0461331827
Transforming coordinates:
 Iter   0:  RMS(Cart)=    0.0321458985 RMS(Int)=    0.0461172071
done
Storing new coordinates                 .... done

                                .--------------------.
          ----------------------|Geometry convergence|-------------------------
          Item                value                   Tolerance       Converged
          ---------------------------------------------------------------------
          RMS gradient        0.0042166470            0.0001000000      NO
          MAX gradient        0.0102132699            0.0003000000      NO
          RMS step            0.0461331827            0.0020000000      NO
          MAX step            0.1643783168            0.0040000000      NO
          -------------------------------------------------------------------------
          ........................................................
          Max(Bonds)      0.0870      Max(Angles)    1.02
          Max(Dihed)        0.57      Max(Improp)    0.00
          ---------------------------------------------------------------------

The optimization has not yet converged - more geometry cycles are needed


    ---------------------------------------------------------------------------
                         Redundant Internal Coordinates
                            (Angstroem and degrees)

        Definition                    Value    dE/dq     Step     New-Value
    ----------------------------------------------------------------------------
     1. B(H   1,C   0)                1.1140 -0.010213  0.0163    1.1303   
     2. B(H   2,C   0)                1.0852 -0.004104  0.0059    1.0911   
     3. B(H   3,C   0)                1.0852 -0.004102  0.0059    1.0911   
     4. B(F   4,H   1)                1.6688  0.006201 -0.0870    1.5818   
     5. B(I   5,C   0)                2.1781 -0.006126  0.0275    2.2055   
     6. A(H   1,C   0,H   3)          110.42 -0.002790    0.60    111.02   
     7. A(H   1,C   0,H   2)          110.41 -0.002791    0.60    111.02   
     8. A(H   1,C   0,I   5)          114.97  0.003128   -0.73    114.24   
     9. A(H   2,C   0,I   5)          105.58  0.001561   -0.40    105.18   
    10. A(H   3,C   0,I   5)          105.58  0.001562   -0.40    105.18   
    11. A(H   2,C   0,H   3)          109.61 -0.000413    0.27    109.88   
    12. A(C   0,H   1,F   4)          160.35  0.003666   -1.02    159.33   
    13. D(F   4,H   1,C   0,H   3)     60.76 -0.002109    0.57     61.33   
    14. D(F   4,H   1,C   0,I   5)   -179.93  0.000002   -0.00   -179.93   
    15. D(F   4,H   1,C   0,H   2)    -60.63  0.002110   -0.57    -61.20   
    ----------------------------------------------------------------------------

Geometry step timings:
Preparation and reading OPT file:      0.000 s ( 3.589 %)
Internal coordinates            :      0.000 s ( 3.374 %)
B/P matrices and projection     :      0.000 s (11.127 %)
Hessian update/contruction      :      0.001 s (37.904 %)
Making the step                 :      0.000 s ( 9.548 %)
Converting the step to Cartesian:      0.000 s ( 4.020 %)
Storing new data                :      0.000 s ( 6.676 %)
Checking convergence            :      0.000 s ( 4.451 %)
Final printing                  :      0.000 s (19.024 %)
Total time                      :      0.001 s

Time for energy+gradient        :     21.603 s
Time for complete geometry iter :     22.016 s

         *************************************************************
         *                GEOMETRY OPTIMIZATION CYCLE   2            *
         *************************************************************
---------------------------------
CARTESIAN COORDINATES (ANGSTROEM)
---------------------------------
  C      0.000097   -0.501841   -0.255611
  H     -0.000454    0.229759    0.605939
  H      0.893614   -1.127759   -0.236825
  H     -0.892589   -1.128955   -0.237080
  F     -0.000306    0.762136    2.095427
  I     -0.000250    0.444911   -2.247575

----------------------------
CARTESIAN COORDINATES (A.U.)
----------------------------
  NO LB      ZA    FRAG     MASS         X           Y           Z
   0 C     6.0000    0    12.011    0.000184   -0.948343   -0.483034
   1 H     1.0000    0     1.008   -0.000858    0.434181    1.145058
   2 H     1.0000    0     1.008    1.688686   -2.131156   -0.447535
   3 H     1.0000    0     1.008   -1.686750   -2.133417   -0.448016
   4 F     9.0000    0    18.998   -0.000579    1.440228    3.959784
   5 I    25.0000*   0   126.900   -0.000472    0.840760   -4.247301
* core charge reduced due to ECP

--------------------------------
INTERNAL COORDINATES (ANGSTROEM)
--------------------------------
 C      0   0   0     0.000000000000     0.00000000     0.00000000
 H      1   0   0     1.130268020932     0.00000000     0.00000000
 H      1   2   0     1.091099492747   111.01382552     0.00000000
 H      1   2   3     1.091102666610   111.01922317   122.53280259
 F      2   1   3     1.581771989629   159.33115588   298.79833277
 I      1   2   3     2.205507278801   114.24206379   241.26841862

---------------------------
INTERNAL COORDINATES (A.U.)
---------------------------
 C      0   0   0     0.000000000000     0.00000000     0.00000000
 H      1   0   0     2.135897017492     0.00000000     0.00000000
 H      1   2   0     2.061879226151   111.01382552     0.00000000
 H      1   2   3     2.061885223884   111.01922317   122.53280259
 F      2   1   3     2.989115866706   159.33115588   298.79833277
 I      1   2   3     4.167804743304   114.24206379   241.26841862



           ************************************************************
           *        Program running with 8 parallel MPI-processes     *
           *              working on a common directory               *
           ************************************************************
------------------------------------------------------------------------------
                   ___                                                        
                  /   \      - P O W E R E D   B Y -                         
                 /     \                                                     
                 |  |  |   _    _      __       _____    __    __             
                 |  |  |  | |  | |    /  \     |  _  \  |  |  /  |          
                  \  \/   | |  | |   /    \    | | | |  |  | /  /          
                 / \  \   | |__| |  /  /\  \   | |_| |  |  |/  /          
                |  |  |   |  __  | /  /__\  \  |    /   |      \           
                |  |  |   | |  | | |   __   |  |    \   |  |\   \          
                \     /   | |  | | |  |  |  |  | |\  \  |  | \   \       
                 \___/    |_|  |_| |__|  |__|  |_| \__\ |__|  \__/        
                                                                              
                      - O R C A' S   B I G   F R I E N D -                    
                                      &                                       
                       - I N T E G R A L  F E E D E R -                       
                                                                              
 v1 FN, 2020, v2 2021, v3 2022-2024                                           
------------------------------------------------------------------------------


----------------------
SHARK INTEGRAL PACKAGE
----------------------

Number of atoms                             ...      6
Number of basis functions                   ...     94
Number of shells                            ...     42
Maximum angular momentum                    ...      2
Integral batch strategy                     ... SHARK/LIBINT Hybrid
RI-J (if used) integral strategy            ... SPLIT-RIJ (Revised 2003 algorithm where possible)
Printlevel                                  ...      1
Contraction scheme used                     ... SEGMENTED contraction
Prescreening option                         ... SCHWARTZ
   Thresh                                   ... 2.500e-11
   Tcut                                     ... 2.500e-12
   Tpresel                                  ... 2.500e-12 
Coulomb Range Separation                    ... NOT USED
Exchange Range Separation                   ... NOT USED
Multipole approximations                    ... NOT USED
Finite Nucleus Model                        ... NOT USED
CABS basis                                  ... NOT available
Auxiliary Coulomb fitting basis             ... AVAILABLE
   # of basis functions in Aux-J            ...    156
   # of shells in Aux-J                     ...     58
   Maximum angular momentum in Aux-J        ...      4
Auxiliary J/K fitting basis                 ... NOT available
Auxiliary Correlation fitting basis         ... NOT available
Auxiliary 'external' fitting basis          ... NOT available

Checking pre-screening integrals            ... done (  0.0 sec) Dimension = 42
   => SHARK Basis and OBASIS are compatible. Storing Pre-screening
Shell pair information
Shell pair cut-off parameter TPreSel        ...   2.5e-12
Total number of shell pairs                 ...       903
Shell pairs after pre-screening             ...       835
Total number of primitive shell pairs       ...      3409
Primitive shell pairs kept                  ...      2457
          la=0 lb=0:    227 shell pairs
          la=1 lb=0:    283 shell pairs
          la=1 lb=1:    102 shell pairs
          la=2 lb=0:    122 shell pairs
          la=2 lb=1:     81 shell pairs
          la=2 lb=2:     20 shell pairs

Checking whether 4 symmetric matrices of dimension 94 fit in memory
:Max Core in MB      =   4096.00
 MB in use           =      4.41
 MB left             =   4091.59
 MB needed           =      0.14
 Data fit in memory  = YES
Calculating RI/J V-Matrix + Cholesky decomp.... done (  0.0 sec)
Calculating Nuclear repulsion               ... done (  0.0 sec) ENN=    103.998813555417 Eh

Diagonalization of the overlap matrix:
Smallest eigenvalue                        ... 3.424e-03
Time for diagonalization                   ...    0.001 sec
Threshold for overlap eigenvalues          ... 1.000e-07
Number of eigenvalues below threshold      ... 0
Time for construction of square roots      ...    0.001 sec
Total time needed                          ...    0.002 sec

-------------------
DFT GRID GENERATION
-------------------

General Integration Accuracy     IntAcc      ... 4.388
Radial Grid Type                 RadialGrid  ... OptM3 with GC (2021)
Angular Grid (max. ang.)         AngularGrid ... 4 (Lebedev-302)
Angular grid pruning method      GridPruning ... 4 (adaptive)
Weight generation scheme         WeightScheme... mBecke (2022)
Basis function cutoff            BFCut       ... 1.0000e-11
Integration weight cutoff        WCut        ... 1.0000e-14
Partially contracted basis set               ... off
Rotationally invariant grid construction     ... off
Angular grids for H and He will be reduced by one unit

Total number of grid points                  ...    33636
Total number of batches                      ...      528
Average number of points per batch           ...       63
Average number of grid points per atom       ...     5606
Grids setup in   1.5 sec
Initializing property integral containers    ... done (  0.0 sec)

SHARK setup successfully completed in   2.0 seconds

Maximum memory used throughout the entire STARTUP-calculation: 12.8 MB


           ************************************************************
           *        Program running with 8 parallel MPI-processes     *
           *              working on a common directory               *
           ************************************************************
Occupation numbers will be reassigned to an Aufbau configuration
             **** ENERGY FILE WAS UPDATED (reactant_optfreq.en.tmp) ****
Finished Guess after   0.7 sec
Maximum memory used throughout the entire GUESS-calculation: 6.8 MB


           ************************************************************
           *        Program running with 8 parallel MPI-processes     *
           *              working on a common directory               *
           ************************************************************
----------------------------------------D-I-I-S--------------------------------------------
Iteration    Energy (Eh)           Delta-E    RMSDP     MaxDP     DIISErr   Damp  Time(sec)
-------------------------------------------------------------------------------------------
               ***  Starting incremental Fock matrix formation  ***
    1    -437.5040890596912391     0.00e+00  5.08e-04  2.88e-03  1.18e-02  0.700   0.6
Warning: op=0 Small HOMO/LUMO gap (   0.091) - skipping pre-diagonalization
         Will do a full diagonalization
    2    -437.5042836328855742    -1.95e-04  5.30e-04  2.78e-03  8.25e-03  0.700   0.4
                               ***Turning on AO-DIIS***
    3    -437.5044125496692118    -1.29e-04  3.71e-04  2.13e-03  5.78e-03  0.700   0.2
    4    -437.5044983784936790    -8.58e-05  8.77e-04  4.88e-03  4.04e-03  0.000   0.2
                              *** Initializing SOSCF ***
---------------------------------------S-O-S-C-F--------------------------------------
Iteration    Energy (Eh)           Delta-E    RMSDP     MaxDP     MaxGrad    Time(sec)
--------------------------------------------------------------------------------------
    5    -437.5047006984049744    -2.02e-04  1.17e-04  8.89e-04  1.16e-03     0.4
               *** Restarting incremental Fock matrix formation ***
    6    -437.5047040286835340    -3.33e-06  9.22e-05  4.11e-04  2.17e-04     0.5
    7    -437.5047032553382564     7.73e-07  6.74e-05  2.68e-04  4.57e-04     0.4
    8    -437.5047042837840650    -1.03e-06  1.56e-05  6.06e-05  2.11e-05     0.4
    9    -437.5047042813664007     2.42e-09  6.80e-06  3.03e-05  2.91e-05     0.4
                 **** Energy Check signals convergence ****

               *****************************************************
               *                     SUCCESS                       *
               *           SCF CONVERGED AFTER   9 CYCLES          *
               *****************************************************

             **** ENERGY FILE WAS UPDATED (reactant_optfreq.en.tmp) ****

----------------
TOTAL SCF ENERGY
----------------

Total Energy       :       -437.50470429302078 Eh          -11905.10825 eV

Components:
Nuclear Repulsion  :        103.99881355541747 Eh            2829.95159 eV
Electronic Energy  :       -541.50351784843826 Eh          -14735.05984 eV
One Electron Energy:       -926.64234106869151 Eh          -25215.22002 eV
Two Electron Energy:        385.13882322025324 Eh           10480.16018 eV

Virial components:
Potential Energy   :       -688.89016864754160 Eh          -18745.65450 eV
Kinetic Energy     :        251.38546435452082 Eh            6840.54625 eV
Virial Ratio       :          2.74037391309158

DFT components:
N(Alpha)           :       21.999983996603 electrons
N(Beta)            :       21.999983996603 electrons
N(Total)           :       43.999967993206 electrons
E(X)               :      -37.816718548972 Eh       
E(C)               :       -1.663173123263 Eh       
E(XC)              :      -39.479891672235 Eh       

---------------
SCF CONVERGENCE
---------------

  Last Energy change         ...   -2.4177e-09  Tolerance :   1.0000e-08
  Last MAX-Density change    ...    3.0250e-05  Tolerance :   1.0000e-07
  Last RMS-Density change    ...    6.8043e-06  Tolerance :   5.0000e-09
  Last DIIS Error            ...    1.1624e-03  Tolerance :   5.0000e-07
  Last Orbital Gradient      ...    2.9099e-05  Tolerance :   1.0000e-05
  Last Orbital Rotation      ...    3.7760e-05  Tolerance :   1.0000e-05


Total SCF time: 0 days 0 hours 0 min 4 sec 
Finished LeanSCF after   4.9 sec

Maximum memory used throughout the entire LEANSCF-calculation: 6.6 MB


           ************************************************************
           *        Program running with 8 parallel MPI-processes     *
           *              working on a common directory               *
           ************************************************************

------------------------------------------------------------------------------
                         ORCA PROPERTY INTEGRAL CALCULATIONS
------------------------------------------------------------------------------

GBWName                                   ... reactant_optfreq.gbw
Number of atoms                           ...      6
Number of basis functions                 ...     94
Max core memory                           ...   4096 MB

Dipole integrals                          ... YES
Quadrupole integrals                      ...  NO
Linear momentum integrals                 ...  NO
Angular momentum integrals                ...  NO
Higher moments length integrals           ...  NO
Higher moments velocity integrals         ...  NO
Kinetic energy integrals                  ...  NO
GIAO right hand sides                     ...  NO
GIAO dipole derivative integrals          ...  NO
SOC integrals                             ...  NO
EPR diamagnetic integrals (GIAO)          ...  NO
EPR gauge integrals                       ...  NO
Field gradient integrals                  ...  NO (   0 nuclei)
Spin-dipole/Fermi contact integrals       ...  NO (   0 nuclei)
Contact density integrals                 ...  NO (   0 nuclei)
Nucleus-orbit integrals                   ...  NO (   0 nuclei)
Geometric perturbations                   ...  NO (   6 nuclei)

Choice of electric origin   ... Center of mass
Position of electric origin ... ( -0.0004,  0.7382, -2.9162) 
Choice of magnetic origin   ... GIAO
Position of magnetic origin ... (  0.0000,  0.0000,  0.0000) 

Calculating integrals                     ... Electric Dipole (Length)     done (  0.0 sec)

Property integrals calculated in   0.0 sec

Maximum memory used throughout the entire PROPINT-calculation: 6.9 MB


-------------------------------------------------------------------------------
                          DFT DISPERSION CORRECTION                            
                                                                               
                                DFTD4 V3.4.0                                   
-------------------------------------------------------------------------------
-------------------------   ----------------
Dispersion correction           -0.000954138
-------------------------   ----------------

------------------   -----------------
gCP correction             0.004014338
------------------   -----------------

-------------------------   --------------------
FINAL SINGLE POINT ENERGY      -437.501644093019
-------------------------   --------------------



           ************************************************************
           *        Program running with 8 parallel MPI-processes     *
           *              working on a common directory               *
           ************************************************************
------------------------------------------------------------------------------
                         ORCA SCF GRADIENT CALCULATION
------------------------------------------------------------------------------

Nuc. rep. gradient        (SHARK) ... done (  0.0 sec)
HCore & Overlap gradient  (SHARK) ... done (  0.1 sec)
ECP gradient              (SHARK) ... done (  0.2 sec)
Split-RIJ-J gradient      (SHARK) ... done (  2.5 sec)
XC gradient                       ... done (  0.6 sec)
Dispersion correction             ... done (  0.2 sec)

-------------------
DISPERSION GRADIENT
-------------------

   1   C   :    0.000000003   -0.000009618    0.000004524
   2   H   :    0.000000001    0.000000242    0.000005838
   3   H   :    0.000001562   -0.000003647   -0.000001485
   4   H   :   -0.000001559   -0.000003651   -0.000001486
   5   F   :   -0.000000004    0.000010917    0.000047717
   6   I   :   -0.000000003    0.000005756   -0.000055107

Difference to translation invariance:
           :    0.0000000000    0.0000000000   -0.0000000000

Difference to rotation invariance:
           :   -0.0000000000   -0.0000000000    0.0000000000

Norm of the Dispersion gradient    ...    0.0000751599
RMS gradient                       ...    0.0000177154
MAX gradient                       ...    0.0000551072
gCP correction                   ... done

------------------
CARTESIAN GRADIENT
------------------

   1   C   :   -0.000000351    0.007900553   -0.003245744
   2   H   :   -0.000002924   -0.009370119   -0.007497322
   3   H   :   -0.000616830   -0.000145171    0.002681558
   4   H   :    0.000616037   -0.000143280    0.002681645
   5   F   :    0.000003483    0.002072324    0.003612200
   6   I   :    0.000000585   -0.000314307    0.001767663

Difference to translation invariance:
           :   -0.0000000000   -0.0000000000    0.0000000000

Difference to rotation invariance:
           :   -0.0000489354    0.0000002337    0.0000000978

Norm of the Cartesian gradient     ...    0.0158969206
RMS gradient                       ...    0.0037469401
MAX gradient                       ...    0.0093701189

-------
TIMINGS
-------

Total SCF gradient time     ....        3.686 sec

Densities                   ....       0.000 sec  (  0.0%)
One electron gradient       ....       0.090 sec  (  2.4%)
RI-J Coulomb gradient       ....       2.480 sec  ( 67.3%)
XC gradient                 ....       0.602 sec  ( 16.3%)

Maximum memory used throughout the entire SCFGRAD-calculation: 26.8 MB
------------------------------------------------------------------------------
                         ORCA GEOMETRY RELAXATION STEP
------------------------------------------------------------------------------

Reading the OPT-File                    .... done
Getting information on internals        .... done
Copying old internal coords+grads       .... done
Making the new internal coordinates     .... (2022 redundants) done
Validating the new internal coordinates .... (2022 redundants) done
Calculating the B-matrix                .... done
Calculating the G,G- and P matrices     .... done
Transforming gradient to internals      .... done
Projecting the internal gradient        .... done
Number of atoms                         ....   6
Number of internal coordinates          ....  15
Current Energy                          ....  -437.501644093 Eh
Current gradient norm                   ....     0.015896921 Eh/bohr
Maximum allowed component of the step   ....  0.300
Current trust radius                    ....  0.300
Updating the Hessian (BFGS)             .... done
Forming the augmented Hessian           .... done
Diagonalizing the augmented Hessian     .... done
Last element of RFO vector              ....  0.956580728
Lowest eigenvalues of augmented Hessian:
 -0.002151979  0.018964342  0.098149252  0.116625033  0.188048898
Length of the computed step             ....  0.304697243
Warning: the length of the step is outside the trust region - taking restricted step instead
The input lambda is                     ....     0.016211
   iter:   5  x=    0.009903  g=  551.614277 f(x)=     1.285459
   iter:  10  x=   -0.002454  g=    9.401539 f(x)=     0.002862
The output lambda is                    ....    -0.002461 (13 iterations)
The final length of the internal step   ....  0.300000000
Converting the step to Cartesian space:
 Initial RMS(Int)=    0.0774596669
Transforming coordinates:
 Iter   0:  RMS(Cart)=    0.0514773133 RMS(Int)=    0.0773913995
 Iter   5:  RMS(Cart)=    0.0000000156 RMS(Int)=    0.0000000096
done
[...]

Dipole components along the rotational axes: 
x,y,z [a.u.] :    -3.678666    -0.621677    -0.000007 
x,y,z [Debye]:    -9.350427    -1.580176    -0.000018 

 

Dipole moment calculation done in   0.0 sec 

-----------
SCF HESSIAN
-----------

Occupied/Occupied contributions to the Hessian:
   => Occupied/Occupied contributions              ... done (  0.0 sec)
Perturbed density contributions to the Hessian:
   => Perturbed density contributions              ... done (  0.0 sec)
Explicit contributions to the Hessian:
   => Nuclear repulsion Hessian                    ... done (  0.0 sec)
   => HCore and overlap Hessian                    ... done (  0.3 sec)
   => ECP Hessian                                  ... done (  2.0 sec)
   => RI-J Hessian                                 ... done (  1.7 sec)
   => XC-Hessian                                   ... done (  3.9 sec)
   => Van der Waals-Hessian                        ... done (  1.1 sec)
   => GCP-Hessian                                  ... done (  0.1 sec)
   => Explicit contributions done
Dipole derivatives                                 ... done (  0.0 sec)
Mass weighting the Hessian           ... done
Calculating normal modes             ... done
Scaling frequencies                  ... done

-----------------------
VIBRATIONAL FREQUENCIES
-----------------------

Scaling factor for frequencies =  1.000000000  (already applied!)

     0:       0.00 cm**-1
     1:       0.00 cm**-1
     2:       0.00 cm**-1
     3:       0.00 cm**-1
     4:       0.00 cm**-1
     5:       0.00 cm**-1
     6:      74.96 cm**-1
     7:     339.46 cm**-1
     8:     339.54 cm**-1
     9:     445.89 cm**-1
    10:     854.38 cm**-1
    11:     946.60 cm**-1
    12:    1281.90 cm**-1
    13:    1431.96 cm**-1
    14:    1495.85 cm**-1
    15:    1761.53 cm**-1
    16:    3053.46 cm**-1
    17:    3136.70 cm**-1


------------
NORMAL MODES
------------

These modes are the Cartesian displacements weighted by the diagonal matrix
M(i,i)=1/sqrt(m[i]) where m[i] is the mass of the displaced atom
Thus, these vectors are normalized but *not* orthogonal

                  0          1          2          3          4          5    
      0       0.000000   0.000000   0.000000   0.000000   0.000000   0.000000
      1       0.000000   0.000000   0.000000   0.000000   0.000000   0.000000
      2       0.000000   0.000000   0.000000   0.000000   0.000000   0.000000
      3       0.000000   0.000000   0.000000   0.000000   0.000000   0.000000
      4       0.000000   0.000000   0.000000   0.000000   0.000000   0.000000
      5       0.000000   0.000000   0.000000   0.000000   0.000000   0.000000
      6       0.000000   0.000000   0.000000   0.000000   0.000000   0.000000
      7       0.000000   0.000000   0.000000   0.000000   0.000000   0.000000
      8       0.000000   0.000000   0.000000   0.000000   0.000000   0.000000
      9       0.000000   0.000000   0.000000   0.000000   0.000000   0.000000
     10       0.000000   0.000000   0.000000   0.000000   0.000000   0.000000
     11       0.000000   0.000000   0.000000   0.000000   0.000000   0.000000
     12       0.000000   0.000000   0.000000   0.000000   0.000000   0.000000
     13       0.000000   0.000000   0.000000   0.000000   0.000000   0.000000
     14       0.000000   0.000000   0.000000   0.000000   0.000000   0.000000
     15       0.000000   0.000000   0.000000   0.000000   0.000000   0.000000
     16       0.000000   0.000000   0.000000   0.000000   0.000000   0.000000
     17       0.000000   0.000000   0.000000   0.000000   0.000000   0.000000
                  6          7          8          9         10         11    
      0       0.000172   0.005211  -0.115722  -0.000033  -0.000062   0.066989
      1      -0.384818  -0.455470  -0.003867   0.155019   0.047976   0.000047
      2      -0.160734  -0.023319  -0.000221  -0.532525   0.004979   0.000017
      3       0.000159   0.019305  -0.442552   0.000059   0.000206  -0.199833
      4      -0.346122  -0.490098  -0.004364  -0.041942  -0.203972  -0.000156
      5      -0.113422  -0.188913  -0.001720  -0.663871   0.641389   0.000066
      6       0.000807   0.009624   0.261498   0.002043  -0.072354  -0.073949
      7      -0.377955  -0.423631   0.509382   0.155443  -0.029919  -0.270453
      8      -0.268069  -0.161613   0.250140  -0.303022  -0.515818   0.631689
      9      -0.000450  -0.031890   0.261802  -0.002343   0.072546  -0.074163
     10      -0.377949  -0.379311  -0.515744   0.155705  -0.030023   0.270391
     11      -0.268137  -0.139935  -0.252574  -0.302940  -0.515728  -0.631884
     12      -0.000063  -0.002002   0.044135  -0.000032  -0.000006   0.005206
     13       0.146145   0.209746   0.001778   0.052159   0.014171   0.000004
     14      -0.483181   0.315277   0.002647   0.112516   0.011403  -0.000001
     15      -0.000011  -0.000170   0.003704   0.000010   0.000004  -0.004356
     16       0.023297   0.021980   0.000185  -0.024619  -0.004566  -0.000003
     17       0.092710  -0.041097  -0.000342   0.043645   0.000921  -0.000000
                 12         13         14         15         16         17    
      0      -0.000035   0.000028  -0.066730  -0.000076  -0.000032   0.095129
      1       0.035695  -0.058539  -0.000084   0.079533   0.066350   0.000051
      2      -0.104624  -0.040685  -0.000005   0.059884   0.009054   0.000007
      3       0.000344   0.000271   0.900742   0.000960   0.000023   0.023820
      4      -0.208525  -0.313413   0.001015  -0.914906  -0.026188   0.000014
      5       0.560683   0.328558  -0.000106  -0.363847  -0.035774   0.000003
      6      -0.163283   0.367480   0.077066  -0.098811   0.592492  -0.572813
      7      -0.299707   0.486017   0.143723  -0.015827  -0.379450   0.405751
      8       0.445541   0.152121   0.255776   0.014498  -0.040752   0.050324
      9       0.163613  -0.368065   0.077180   0.098885  -0.592127  -0.572211
     10      -0.299600   0.485530  -0.143555  -0.015803  -0.380233  -0.406367
     11       0.445341   0.152008  -0.255927   0.014340  -0.040863  -0.050414
     12      -0.000006  -0.000003  -0.011356  -0.000007  -0.000000  -0.000298
     13       0.007648   0.004037  -0.000008   0.001149   0.000076  -0.000000
     14       0.003719  -0.003147   0.000009  -0.013802   0.000206  -0.000000
     15      -0.000001   0.000000  -0.000364   0.000000   0.000000  -0.000053
     16       0.001893  -0.000291  -0.000000  -0.000181  -0.000049  -0.000000
     17      -0.002184  -0.000704   0.000001  -0.000941   0.000045  -0.000000


-----------
IR SPECTRUM
-----------

 Mode   freq       eps      Int      T**2         TX        TY        TZ
       cm**-1   L/(mol*cm) km/mol    a.u.
----------------------------------------------------------------------------
  6:     74.96   0.002435   12.31  0.010137  ( 0.000008 -0.018294  0.099007)
  7:    339.46   0.039217  198.19  0.036052  ( 0.000025 -0.074640 -0.174588)
  8:    339.54   0.000015    0.08  0.000014  ( 0.000395 -0.001447 -0.003407)
  9:    445.89   0.064110  323.99  0.044869  ( 0.000014 -0.035871 -0.208764)
 10:    854.38   0.059383  300.10  0.021690  (-0.000002  0.029956  0.144196)
 11:    946.60   0.000933    4.72  0.000308  (-0.017542 -0.000015  0.000003)
 12:   1281.90   0.037958  191.83  0.009240  (-0.000019  0.059306  0.075652)
 13:   1431.96   0.008063   40.75  0.001757  (-0.000010  0.022608  0.035300)
 14:   1495.85   0.002550   12.89  0.000532  ( 0.023065  0.000039  0.000076)
 15:   1761.53   0.294165  1486.59  0.052113  ( 0.000048 -0.080084 -0.213774)
 16:   3053.46   0.003694   18.67  0.000378  (-0.000007  0.017034 -0.009346)
 17:   3136.70   0.003019   15.26  0.000300  ( 0.017332  0.000011  0.000004)

* The epsilon (eps) is given for a Dirac delta lineshape.
** The dipole moment derivative (T) already includes vibrational overlap.

The first frequency considered to be a vibration is 6
The total number of vibrations considered is 12


--------------------------
THERMOCHEMISTRY AT 298.15K
--------------------------

Temperature         ...   298.15 K
Pressure            ...     1.00 atm
Total Mass          ...   160.93 AMU
Quasi RRHO          ...     True
Cut-Off Frequency   ...     1.00 cm^-1

Throughout the following assumptions are being made:
  (1) The electronic state is orbitally nondegenerate
  (2) There are no thermally accessible electronically excited states
  (3) Hindered rotations indicated by low frequency modes are not
      treated as such but are treated as vibrations and this may
      cause some error
  (4) All equations used are the standard statistical mechanics
      equations for an ideal gas
  (5) All vibrations are strictly harmonic

freq.      74.96  E(vib)   ...       0.49 
freq.     339.46  E(vib)   ...       0.23 
freq.     339.54  E(vib)   ...       0.23 
freq.     445.89  E(vib)   ...       0.17 
freq.     854.38  E(vib)   ...       0.04 
freq.     946.60  E(vib)   ...       0.03 
freq.    1281.90  E(vib)   ...       0.01 
freq.    1431.96  E(vib)   ...       0.00 
freq.    1495.85  E(vib)   ...       0.00 
freq.    1761.53  E(vib)   ...       0.00 
freq.    3053.46  E(vib)   ...       0.00 
freq.    3136.70  E(vib)   ...       0.00 

------------
INNER ENERGY
------------

The inner energy is: U= E(el) + E(ZPE) + E(vib) + E(rot) + E(trans)
    E(el)   - is the total energy from the electronic structure calculation
              = E(kin-el) + E(nuc-el) + E(el-el) + E(nuc-nuc)
    E(ZPE)  - the the zero temperature vibrational energy from the frequency calculation
    E(vib)  - the the finite temperature correction to E(ZPE) due to population
              of excited vibrational states
    E(rot)  - is the rotational thermal energy
    E(trans)- is the translational thermal energy

Summary of contributions to the inner energy U:
Electronic energy                ...   -437.50311019 Eh
Zero point energy                ...      0.03454206 Eh      21.68 kcal/mol
Thermal vibrational correction   ...      0.00193176 Eh       1.21 kcal/mol
Thermal rotational correction    ...      0.00141627 Eh       0.89 kcal/mol
Thermal translational correction ...      0.00141627 Eh       0.89 kcal/mol
-----------------------------------------------------------------------
Total thermal energy                   -437.46380382 Eh


Summary of corrections to the electronic energy:
(perhaps to be used in another calculation)
Total thermal correction                  0.00476430 Eh       2.99 kcal/mol
Non-thermal (ZPE) correction              0.03454206 Eh      21.68 kcal/mol
-----------------------------------------------------------------------
Total correction                          0.03930636 Eh      24.67 kcal/mol


--------
ENTHALPY
--------

The enthalpy is H = U + kB*T
                kB is Boltzmann's constant
Total thermal energy              ...   -437.46380382 Eh 
Thermal Enthalpy correction       ...      0.00094421 Eh       0.59 kcal/mol
-----------------------------------------------------------------------
Total Enthalpy                    ...   -437.46285961 Eh


Note: Only C1 symmetry has been detected, increase convergence thresholds 
      if your molecule has a higher symmetry. Symmetry factor of 1.0 is   
      used for the rotational entropy correction. 
 

Note: Rotational entropy computed according to Herzberg 
Infrared and Raman Spectra, Chapter V,1, Van Nostrand Reinhold, 1945 
Point Group:  C1, Symmetry Number:   1  
Rotational constants in cm-1:     0.811000     0.052386     0.049673 

Vibrational entropy computed according to the QRRHO of S. Grimme
Chem.Eur.J. 2012 18 9955 using a reference frequency of 100.0 cm-1


-------
ENTROPY
-------

The entropy contributions are T*S = T*(S(el)+S(vib)+S(rot)+S(trans))
     S(el)   - electronic entropy
     S(vib)  - vibrational entropy
     S(rot)  - rotational entropy
     S(trans)- translational entropy
The entropies will be listed as multiplied by the temperature to get
units of energy

Electronic entropy                ...      0.00000000 Eh      0.00 kcal/mol
Vibrational entropy               ...      0.00329789 Eh      2.07 kcal/mol
Rotational entropy                ...      0.01241931 Eh      7.79 kcal/mol
Translational entropy             ...      0.01954513 Eh     12.26 kcal/mol
-----------------------------------------------------------------------
Final entropy term                ...      0.03526233 Eh     22.13 kcal/mol

In case the symmetry of your molecule has not been determined correctly
or in case you have a reason to use a different symmetry number we print 
out the resulting rotational entropy values for sn=1,12:

 non-linear molecules -----------------------------------
|  sn= 1 | S(rot)=       0.01241931 Eh      7.79 kcal/mol|
|  sn= 2 | S(rot)=       0.01176485 Eh      7.38 kcal/mol|
|  sn= 3 | S(rot)=       0.01138202 Eh      7.14 kcal/mol|
|  sn= 4 | S(rot)=       0.01111040 Eh      6.97 kcal/mol|
|  sn= 5 | S(rot)=       0.01089971 Eh      6.84 kcal/mol|
|  sn= 6 | S(rot)=       0.01072757 Eh      6.73 kcal/mol|
|  sn= 7 | S(rot)=       0.01058202 Eh      6.64 kcal/mol|
|  sn= 8 | S(rot)=       0.01045594 Eh      6.56 kcal/mol|
|  sn= 9 | S(rot)=       0.01034473 Eh      6.49 kcal/mol|
|  sn=10 | S(rot)=       0.01024525 Eh      6.43 kcal/mol|
|  sn=11 | S(rot)=       0.01015526 Eh      6.37 kcal/mol|
|  sn=12 | S(rot)=       0.01007311 Eh      6.32 kcal/mol|
 linear molecules ---------------------------------------
|  Dinfh | S(rot)=       0.00816051 Eh      5.12 kcal/mol|
|  Cinfv | S(rot)=       0.00881497 Eh      5.53 kcal/mol|
 --------------------------------------------------------


-------------------
GIBBS FREE ENERGY
-------------------

The Gibbs free energy is G = H - T*S

Total enthalpy                    ...   -437.46285961 Eh 
Total entropy correction          ...     -0.03526233 Eh    -22.13 kcal/mol
-----------------------------------------------------------------------
Final Gibbs free energy         ...   -437.49812195 Eh

For completeness - the Gibbs free energy minus the electronic energy
G-E(el)                           ...      0.00498824 Eh      3.13 kcal/mol


Maximum memory used throughout the entire PROP-calculation: 27.8 MB

--------------------------------
SUGGESTED CITATIONS FOR THIS RUN
--------------------------------

Below you find a list of papers that are relevant to this ORCA run
We neither can nor want to force you to cite these papers, but we appreciate if you do
You receive ORCA, which is the product of decades of hard work by many enthusiastic individuals, for free
The only thing we kindly ask in return is that you cite our papers,
We deeply appreciate it, if you show your appreciation for ORCA by not just citing the generic ORCA reference.

Please note that relegating all ORCA citations to the supporting information does *not* help us.
SI sections are not indexed - citations you put there will not count into any citation statistics
But we need these citations in order to attract the funding resources that allow us to do what we are doing

Therefore, if you are a happy ORCA user, please consider citing a few of the papers listed below in the main body of your paper

In addition to the list printed below, the program has created the file reactant_optfreq.bibtex that contains the list in bibtex format
You can import this file easily into all common literature databanks and citation aid programs


List of essential papers. We consider these as the minimum necessary citations

  1. Grimme, S.; Hansen, A.; Ehlert, S.; Mewes, J.
     r2SCAN-3c: A 'Swiss army knife' composite electronic-structure method
     J. Chem. Phys. 2021 154 , 064103
     doi.org/10.1063/5.0040021
  2. Neese, F.
     Software update: the ORCA program system, version 6.0
     WIRES Comput. Molec. Sci. 2025 15(1), e70019
     doi.org/10.1002/wcms.7019

List of papers to cite with high priority. The work reported in these papers was absolutely
necessary for this run to complete.
Our perspective: the developers of density functionals and basis sets usually get cited in chemistry papers
Good! But without the algorithms to do something with them, the functionals or basis sets would not do anything.
Hence, in our opinion, the algorithm design and method developments papers are equally worthy of getting cited

  1. Neese, F.
     An improvement of the resolution of the identity approximation for the formation of the Coulomb matrix
     J. Comp. Chem. 2003 24(14), 1740-1747
     doi.org/10.1002/jcc.10318
  2. Bykov, D.; Petrenko, T.; Izsak, R.; Kossmann, S.; Becker, U.; Valeev, E.; Neese, F.
     Efficient implementation of the analytic second derivatives of Hartree-Fock and hybrid DFT energies: a detailed analysis of different approximations
     Molec. Phys. 2015 113 , 1961-1977
     doi.org/10.1080/00268976.2015.1025114
  3. Caldeweyher, E.; Bannwarth, C.; Grimme, S.
     Extension of the D3 dispersion coefficient model
     J. Chem. Phys. 2017 147 , 034112
     doi.org/10.1063/1.4993215
  4. Lehtola, S.; Steigemann, C.; Oliveira, M.; Marques, M.
     Recent developments in Libxc - A comprehensive library of functionals for density functional theory
     Software X 2018 7 , 
     doi.org/10.1016/j.softx.2017.11.002
  5. Caldeweyher, E.; Ehlert, S.; Hansen, A.; Neugebauer, H.; Spicher, S.; Bannwarth, C.; Grimme, S.
     A generally applicable atomic-charge dependent London dispersion correction
     J. Chem. Phys. 2019 150 , 154122
     doi.org/10.1063/1.5090222
  6. Caldeweyher, E.; Mewes, J.; Ehlert, S.; Grimme, S.
     Extension and evaluation of the D4 London-dispersion model for periodic systems
     Phys. Chem. Chem. Phys. 2020 22(16), 8499-8512
     doi.org/10.1039/D0CP00502A
  7. Neese, F.
     The SHARK Integral Generation and Digestion System
     J. Comp. Chem. 2022 44(3), 381
     doi.org/10.1002/jcc.26942
  8. Wittmann, L.; Gordiy, I.; Friede, M.; Helmich-Paris, B.; Grimme, S.; Hansen, A.; Bursch, M.
     Extension of the D3 and D4 London Dispersion Corrections to the full Actinides Series
     Phys. Chem. Chem. Phys. 2024 26(32), 21379-21394
     doi.org/10.1039/D4CP01514B

List of suggested additional citations. These are papers that are important in the 'surrounding' of 
of this run, or papers that preceded the highly important papers. If you like your results we are grateful for a citation.

  1. Neese, F.
     The ORCA program system
     WIRES Comput. Molec. Sci. 2012 2(1), 73-78
     doi.org/10.1002/wcms.81
  2. Neese, F.
     Software update: the ORCA program system, version 4.0
     WIRES Comput. Molec. Sci. 2018 8(1), 1-6
     doi.org/10.1002/wcms.1327
  3. Neese, F.; Wennmohs, F.; Becker, U.; Riplinger, C.
     The ORCA quantum chemistry program package
     J. Chem. Phys. 2020 152(22), 224108
     doi.org/10.1063/5.0004608
  4. Neese, F.
     Software update: The ORCA program system—Version 5.0
     WIRES Comput. Molec. Sci. 2022 12(1), e1606
     doi.org/10.1002/wcms.1606

List of optional additional citations

  1. Neese, F.
     Approximate second-order SCF convergence for spin unrestricted wavefunctions
     Chem. Phys. Lett. 2000 325(1-3), 93-98
     doi.org/10.1016/s0009-2614(00)00662-x

Timings for individual modules:

Sum of individual times          ...      164.188 sec (=   2.736 min)
Startup calculation              ...       23.091 sec (=   0.385 min)  14.1 %
SCF iterations                   ...       68.839 sec (=   1.147 min)  41.9 %
Property integrals               ...       20.571 sec (=   0.343 min)  12.5 %
SCF Response                     ...        6.420 sec (=   0.107 min)   3.9 %
Property calculations            ...       10.197 sec (=   0.170 min)   6.2 %
SCF Gradient evaluation          ...       35.044 sec (=   0.584 min)  21.3 %
Geometry relaxation              ...        0.027 sec (=   0.000 min)   0.0 %
                             ****ORCA TERMINATED NORMALLY****
TOTAL RUN TIME: 0 days 0 hours 2 minutes 53 seconds 667 msec
