
                                 *****************
                                 * O   R   C   A *
                                 *****************

                                            #,                                       
                                            ###                                      
                                            ####                                     
                                            #####                                    
                                            ######                                   
                                           ########,                                 
                                     ,,################,,,,,                         
                               ,,#################################,,                 
                          ,,##########################################,,             
                       ,#########################################, ''#####,          
                    ,#############################################,,   '####,        
                  ,##################################################,,,,####,       
                ,###########''''           ''''###############################       
              ,#####''   ,,,,##########,,,,          '''####'''          '####       
            ,##' ,,,,###########################,,,                        '##       
           ' ,,###''''                  '''############,,,                           
         ,,##''                                '''############,,,,        ,,,,,,###''
      ,#''                                            '''#######################'''  
     '                                                          ''''####''''         
             ,#######,   #######,   ,#######,      ##                                
            ,#'     '#,  ##    ##  ,#'     '#,    #''#        ,####,    ,#,          
            ##       ##  ##   ,#'  ##            #'  '#       #'       ,# #          
            ##       ##  #######   ##           ,######,      #####,      #          
            '#,     ,#'  ##    ##  '#,     ,#' ,#      #,     #,   #      #          
             '#######'   ##     ##  '#######'  #'      '#     '####' #    #          



                #########################################################
                #                        -***-                          #
                #          Department of theory and spectroscopy        #
                #                                                       #
                #                      Frank Neese                      #
                #                                                       #
                #     Directorship, Architecture, Infrastructure        #
                #                    SHARK, DRIVERS                     #
                #        Core code/Algorithms in most modules           #
                #                                                       #
                #        Max Planck Institute fuer Kohlenforschung      #
                #                Kaiser Wilhelm Platz 1                 #
                #                 D-45470 Muelheim/Ruhr                 #
                #                      Germany                          #
                #                                                       #
                #                  All rights reserved                  #
                #                        -***-                          #
                #########################################################


                         Program Version 6.1.0  -  RELEASE   -
                                (GIT: $679e74b$)
                          ($2025-06-10 18:02:51 +0200$)


 With contributions from (in alphabetic order):
[Max-Planck-Institut fuer Kohlenforschung]                               
  Daniel Aravena         : Magnetic Suceptibility                        
  Michael Atanasov       : Ab Initio Ligand Field Theory (pilot matlab implementation)
  Alexander A. Auer      : GIAO ZORA, VPT2 properties, NMR spectrum      
  Ute Becker             : All parallelization in ORCA, NUMFREQ, NUMCALC 
  Giovanni Bistoni       : ED, misc. LED, open-shell LED, HFLD           
  Dmytro Bykov           : pre 5.0 version of the SCF Hessian            
  Marcos Casanova-Páez   : Triplet and SCS-CIS(D). UHF-(DLPNO)-IP/EA/STEOM-CCSD. UHF-CVS-IP/STEOM-CCSD   
  Vijay G. Chilkuri      : MRCI spin determinant printing, contributions to CSF-ICE 
  Pauline Colinet        : FMM embedding                                 
  Dipayan Datta          : RHF DLPNO-CCSD density                        
  Achintya Kumar Dutta   : EOM-CC, STEOM-CC                              
  Nicolas Foglia         : Exact transition moments, OPA infrastructure, MCD improvements    
  Dmitry Ganyushin       : Spin-Orbit,Spin-Spin,Magnetic field MRCI      
  Miquel Garcia-Rates    : C-PCM and meta-GGA Hessian, CCSD/C-PCM, Gaussian charge scheme 
  Tiago L. C. Gouveia    : GS-ROHF, GS-ROCIS                             
  Yang Guo               : DLPNO-NEVPT2, F12-NEVPT2, CIM, IAO-localization        
  Andreas Hansen         : Spin unrestricted coupled pair/coupled cluster methods 
  Ingolf Harden          : AUTO-CI MPn and infrastructure                
  Benjamin Helmich-Paris : MC-RPA, TRAH-(SCF,CASSCF), AVAS, COSX integrals, SCF dyn. polar., MC-PDFT, srDFT 
  Lee Huntington         : MR-EOM, pCC                                   
  Robert Izsak           : Overlap fitted RIJCOSX, COSX-SCS-MP3, EOM     
  Riya Kayal             : Wick's Theorem for AUTO-CI, AUTO-CI UHF-CCSDT 
  Emily Kempfer          : AUTO-CI RHF CISDT and CCSDT, approximate NEVPT4
  Christian Kollmar      : KDIIS, OOCD, Brueckner-CCSD(T), CCSD density, CASPT2, CASPT2-K, improved NEVPT2 
  Axel Koslowski         : Symmetry handling                             
  Simone Kossmann        : meta-GGA functionals, TD-DFT gradient, OOMP2, (MP2 Hessian; deprecated post 5.0) 
  Lucas Lang             : DCDCAS, Hyperfine gauge corrections, ICE-SOC+SSC
  Marvin Lechner         : AUTO-CI (C++ implementation), FIC-MRCC        
  Spencer Leger          : CASSCF response                               
  Dagmar Lenk            : GEPOL surface, SMD, ORCA-2-JSON               
  Dimitrios Liakos       : Extrapolation schemes; Compound Job, Property file
  Dimitrios Manganas     : Further ROCIS development; embedding schemes. LFT, Crystal Embedding 
  Dimitrios Pantazis     : SARC Basis sets                               
  Anastasios Papadopoulos: AUTO-CI, single reference methods and gradients 
  Taras Petrenko         : pre 6.0 DFT Hessian and TD-DFT gradient,  ECA, NRVS 
  Petra Pikulova         : Analytic Raman intensities                    
  Peter Pinski           : DLPNO-MP2, DLPNO-MP2 Gradient                 
  Shashank Vittal Rao    : ES-AILFT, MagRelax                            
  Christoph Reimann      : Effective Core Potentials                     
  Marius Retegan         : Local ZFS, SOC                                
  Christoph Riplinger    : Optimizer, TS searches, QM/MM, DLPNO-CCSD(T), (RO)-DLPNO pert. Triples 
  Michael Roemelt        : Original ROCIS implementation, recursive CI coupling coefficients
  Masaaki Saitow         : Open-shell DLPNO-CCSD energy and density      
  Barbara Sandhoefer     : DKH picture change effects                    
  Yorick L. A. Schmerwitz: GMF and freeze-and-release deltaSCF, NEB S-IDPP initial path                    
  Kantharuban Sivalingam : CASSCF convergence/infrastructure, NEVPT2, NEVPT3, NEVPT4(SD), FIC-MRCI and CEPA variants
  Bernardo de Souza      : ESD, SOC TD-DFT                               
  Georgi L. Stoychev     : AutoAux, RI-MP2 NMR, DLPNO-MP2 response, X2C  
  Van Anh Tran           : RI-MP2 g-tensors                              
  Willem Van den Heuvel  : Paramagnetic NMR                              
  Zikuan Wang            : NOTCH, Electric field optimization            
  Frank Wennmohs         : Technical directorship and infrastructure     
  Hang Xu                : AUTO-CI-Response properties                   
                                                                         
[FACCTs GmbH]                                                            
  Markus Bursch, Nicolas Foglia, Miquel Garcia-Rates, Ingolf Harden, Hagen Neugebauer, Anastasios Papadopoulos, 
  Christoph Riplinger, Bernardo de Souza, Georgi L. Stoychev                                                    
                                                                 
  APM, various basis sets, CI-OPT, improved COSX, DLPNO-Multilevel,           
  DOCKER, DRACO, updates on ESD, Fragmentator, GOAT, IRC, LR-CPCM, L-BFGS, MBIS, meta-GGA TD-DFT gradient, ML-optimized integration grids, 
  MM, NACMEs, nearIR, NEB, NEB-TS, NL-DFT gradient (VV10), 2- and 3-layer-ONIOM, interface openCOSMO-RS, QMMM,   
  Crystal-QMMM, RESP, rigid body optimization, SF, symmetry and pop. for TD-DFT, various functionals, SOLVATOR                                   
                                                                         
[Other institutions]                                                     
  V. Asgeirsson          : NEB                                           
  Christoph Bannwarth    : sTDA-DFT, sTD-DFT, PBEh-3c, B97-3c, D3        
  Giovanni Bistoni       : ETS/NOCV, ADLD/ADEX, COVALED                  
  Martin Brehm           : Molecular dynamics                            
  Ronald Cardenas        : ETS/NOCV                                      
  Martina Colucci        : COVALED                                       
  Sebastian Ehlert       : rSCAN, r2SCAN, r2SCAN-3c, D4, dhf basis sets  
  Marvin Friede          : D4 for Fr, Ra, Ac-Lr                          
  Lars Goerigk           : TD-DFT with DH, B97 family of functionals     
  Stefan Grimme          : VdW corrections, initial TS optimization, DFT functionals, gCP, sTDA/sTD-DF 
  Waldemar Hujo          : DFT-NL                                        
  H. Jonsson             : NEB                                           
  Holger Kruse           : gCP                                           
  Marcel Mueller         : wB97X-3c, vDZP basis set                      
  Hagen Neugebauer       : wr2SCAN, Native XTB                           
  Gianluca Regni         : ADLD/ADEX                                     
  Tobias Risthaus        : pre 6.0 range-separated hybrid DFT and stability analysis
  Lukas Wittmann         : regularized MP2, r2SCAN double-hybrids, wr2SCAN        
                                                                         
We gratefully acknowledge several colleagues who have allowed us to      
interface, adapt or use parts of their codes:                            
  Ed Valeev, F. Pavosevic, A. Kumar             : LibInt (2-el integral package), F12 methods 
  Garnet Chan, S. Sharma, J. Yang, R. Olivares  : DMRG                   
  Ulf Ekstrom                                   : XCFun DFT Library      
  Mihaly Kallay                                 : mrcc  (arbitrary order and MRCC methods)
  Frank Weinhold                                : gennbo (NPA and NBO analysis)           
  Simon Mueller                                 : openCOSMO-RS                            
  Christopher J. Cramer and Donald G. Truhlar   : smd solvation model                     
  S Lehtola, MJT Oliveira, MAL Marques          : LibXC Library                           
  Liviu Ungur et al                             : ANISO software                          


 Your calculation uses the libint2 library for the computation of 2-el integrals
 For citations please refer to: http://libint.valeyev.net

 Your ORCA version has been built with support for libXC version: 7.0.0
 For citations please refer to: https://libxc.gitlab.io

 This ORCA versions uses:
   CBLAS   interface :  Fast vector & matrix operations
   LAPACKE interface :  Fast linear algebra routines
   SCALAPACK package :  Parallel linear algebra routines
   Shared memory     :  Shared parallel matrices
   BLAS/LAPACK       :  OpenBLAS 0.3.29  USE64BITINT DYNAMIC_ARCH NO_AFFINITY SkylakeX SINGLE_THREADED
        Core in use  :  SkylakeX
   Copyright (c) 2011-2014, The OpenBLAS Project


  ***********************************
  * Starting time: Thu Mar 12 13:37:25 2026
  * Host name:     midway3-login4.rcc.local
  * Process ID:    3155198
  * Working dir.:  /home/rzhu16/orca_TS_search/sn2_i_f/DFT_test
  ***********************************

Your calculation utilizes the geometrical counterpoise correction gCP
Please cite in your paper:
H.Kruse, S. Grimme J.Chem.Phys., 136, (2012), 154101 
   

Your calculation utilizes the atom-pairwise dispersion correction
based on EEQ partial charges (D4)


================================================================================

cite the ECPs for I  [Def2-ECP] as follows:
Ce-Yb(ecp-28): M. Dolg, H. Stoll, H.Preuss, J. Chem. Phys., 1989, 90, 1730-1734.
Y-Cd(ecp-28), Hf-Hg(ecp-46): D. Andrae,U. Haeussermann, M. Dolg, H. Stoll, H. Preuss, Theor. Chim. Acta, 1990, 77, 123-141.
In-Sb(ecp-28), Tl-Bi(ecp-46): B. Metz, H. Stoll, M. Dolg, J. Chem. Phys., 2000, 113, 2563-2569.
Te-Xe(ecp-28), Po-Rn(ecp-46): K. A. Peterson, D. Figgen, E. Goll, H. Stoll, M. Dolg, J. Chem. Phys., 2003, 119, 11113-11123.
Rb(ecp-28), Cs(ecp-46): T. Leininger, A. Nicklass, W. Kuechle, H. Stoll, M. Dolg, A. Bergner, Chem. Phys. Lett., 1996, 255, 274-280.
Sr(ecp-28), Ba(ecp-46): M. Kaupp, P. V. Schleyer, H. Stoll and H. Preuss, J. Chem. Phys., 1991, 94, 1360-1366.
La(ecp-46): M. Dolg, H. Stoll, A. Savin, H. Preuss, Theor. Chim. Acta, 1989, 75, 173-194.
Lu(ecp-28): X. Cao, M. Dolg, J. Chem. Phys., 2001, 115, 7348-7355.
Fr-Ra(ecp-78) K. Eichkorn, F. Weigend, O. Treutler, R. Ahlrichs, Theor. Chem. Acc. 1997, 97, 119.
Ac-Lr(ecp-60) K. Eichkorn, F. Weigend, O. Treutler, R. Ahlrichs, Theor. Chem. Acc. 1997, 97, 119.

ECP parameters for I  [Def2-ECP] have been obtained from:
TURBOMOLE (7.0.2)

----- Orbital basis set information -----
Your calculation utilizes the basis: def2-mTZVPP
   Stefan Grimme, Andreas Hansen, Sebastian Ehlert, and Jan-Michael Mewes 
   J. Chem. Phys. 154, 064103 (2021). DOI: 10.1063/5.0040021

----- AuxJ basis set information -----
Your calculation utilizes the basis: def2-mTZVPP/J
   Stefan Grimme, Andreas Hansen, Sebastian Ehlert, and Jan-Michael Mewes 
   J. Chem. Phys. 154, 000000 (2021). DOI: 10.1063/5.0040021

================================================================================
                                        WARNINGS
                       Please study these warnings very carefully!
================================================================================



WARNING: SCAN, rSCAN, or r2SCAN functional requested.
  ===> : libXC variant has now been activated.



WARNING: Geometry Optimization
  ===> : Switching off AutoStart
         For restart on a previous wavefunction, please use MOREAD

================================================================================
                                       INPUT FILE
================================================================================
NAME = product_optfreq.inp
|  1> ! r2SCAN-3c Opt Freq PAL8 TightSCF
|  2> 
|  3> %pal
|  4>    nprocs 8
|  5> end
|  6> 
|  7> %scf
|  8>    MaxIter 150
|  9> end
| 10> 
| 11> * xyz -1 1
| 12>   C       0.000118      0.186883     -0.375260
| 13>   H       0.000809      1.255702     -0.222199
| 14>   H       0.912224     -0.354130     -0.227897
| 15>   H      -0.912668     -0.352968     -0.227885
| 16>   I       0.000181      0.294125      2.423011
| 17>   F       0.000154      0.308406     -2.001143
| 18> *
| 19> 
| 20>                          ****END OF INPUT****
================================================================================

                       *****************************
                       * Geometry Optimization Run *
                       *****************************

Geometry optimization settings:
Update method            Update   .... BFGS
Choice of coordinates    CoordSys .... (2022) Redundant Internals
Initial Hessian          InHess   .... Almloef's Model
Max. no of cycles        MaxIter  .... 50

Convergence Tolerances:
Energy Change            TolE     ....  5.0000e-06 Eh
Max. Gradient            TolMAXG  ....  3.0000e-04 Eh/bohr
RMS Gradient             TolRMSG  ....  1.0000e-04 Eh/bohr
Max. Displacement        TolMAXD  ....  4.0000e-03 bohr
RMS Displacement         TolRMSD  ....  2.0000e-03 bohr
Strict Convergence                .... False

------------------------------------------------------------------------------
                        ORCA OPTIMIZATION COORDINATE SETUP
------------------------------------------------------------------------------

The optimization will be done in redundant internal coordinates (2022)
Making redundant internal coordinates   ...  (2022 redundants) done
Evaluating the initial hessian          ...  (Almloef) done
Evaluating the coordinates              ...  done
Calculating the B-matrix                .... done
Calculating the G-matrix                .... done
The number of degrees of freedom        ....   18

    -----------------------------------------------------------------
                    Redundant Internal Coordinates


    -----------------------------------------------------------------
         Definition                    Initial Value    Approx d2E/dq
    -----------------------------------------------------------------
      1. B(H   1,C   0)                  1.0797         0.373955   
      2. B(H   2,C   0)                  1.0707         0.386592   
      3. B(H   3,C   0)                  1.0707         0.386599   
      4. B(I   4,H   1)                  2.8146         0.010000   
      5. B(I   4,C   0)                  2.8003         0.011807   
      6. B(I   4,H   3)                  2.8774         0.010000   
      7. B(I   4,H   2)                  2.8774         0.010000   
      8. B(F   5,C   0)                  1.6304         0.214978   
      9. A(H   1,C   0,H   3)          118.6957         0.295870   
     10. A(H   2,C   0,H   3)          116.9072         0.297432   
     11. A(H   1,C   0,F   5)           93.8752         0.295552   
     12. A(H   2,C   0,F   5)          100.0726         0.297112   
     13. A(H   3,C   0,F   5)          100.0708         0.297113   
     14. A(H   1,C   0,I   4)           79.6556         0.206821   
     15. A(H   2,C   0,I   4)           83.2116         0.207711   
     16. A(H   3,C   0,I   4)           83.2108         0.207712   
     17. A(I   4,C   0,F   5)          173.5308         0.207530   
     18. A(H   1,C   0,H   2)          118.6946         0.295869   
    -----------------------------------------------------------------

Number of atoms                         .... 6
Number of degrees of freedom            .... 18


         *************************************************************
         *                GEOMETRY OPTIMIZATION CYCLE   1            *
         *************************************************************
---------------------------------
CARTESIAN COORDINATES (ANGSTROEM)
---------------------------------
  C      0.000118    0.186883   -0.375260
  H      0.000809    1.255702   -0.222199
  H      0.912224   -0.354130   -0.227897
  H     -0.912668   -0.352968   -0.227885
  I      0.000181    0.294125    2.423011
  F      0.000154    0.308406   -2.001143

----------------------------
CARTESIAN COORDINATES (A.U.)
----------------------------
  NO LB      ZA    FRAG     MASS         X           Y           Z
   0 C     6.0000    0    12.011    0.000223    0.353158   -0.709139
   1 H     1.0000    0     1.008    0.001529    2.372933   -0.419895
   2 H     1.0000    0     1.008    1.723854   -0.669209   -0.430663
   3 H     1.0000    0     1.008   -1.724693   -0.667013   -0.430640
   4 I    25.0000*   0   126.900    0.000342    0.555816    4.578827
   5 F     9.0000    0    18.998    0.000291    0.582803   -3.781612
* core charge reduced due to ECP

--------------------------------
INTERNAL COORDINATES (ANGSTROEM)
--------------------------------
 C      0   0   0     0.000000000000     0.00000000     0.00000000
 H      1   0   0     1.079723206180     0.00000000     0.00000000
 H      1   2   0     1.070676550212   118.69459479     0.00000000
 H      1   2   3     1.070671179505   118.69572371   152.59268476
 I      1   2   3     2.800325238249    79.65557595    76.29703669
 F      1   2   3     1.630418158177    93.87517532   256.29540572

---------------------------
INTERNAL COORDINATES (A.U.)
---------------------------
 C      0   0   0     0.000000000000     0.00000000     0.00000000
 H      1   0   0     2.040381160119     0.00000000     0.00000000
 H      1   2   0     2.023285457912   118.69459479     0.00000000
 H      1   2   3     2.023275308746   118.69572371   152.59268476
 I      1   2   3     5.291847786198    79.65557595    76.29703669
 F      1   2   3     3.081043802727    93.87517532   256.29540572

---------------------
BASIS SET INFORMATION
---------------------
There are 4 groups of distinct atoms

 Group   1 Type C   : 11s6p1d contracted to 5s3p1d pattern {62111/411/1}
 Group   2 Type H   : 4s1p contracted to 2s1p pattern {31/1}
 Group   3 Type I   : 11s10p8d contracted to 6s5p3d pattern {521111/34111/611}
 Group   4 Type F   : 11s6p2d contracted to 5s3p2d pattern {62111/411/11}

Atom   0C    basis set group =>   1
Atom   1H    basis set group =>   2
Atom   2H    basis set group =>   2
Atom   3H    basis set group =>   2
Atom   4I    basis set group =>   3
Atom   5F    basis set group =>   4
---------------------------------
AUXILIARY/J BASIS SET INFORMATION
---------------------------------
There are 4 groups of distinct atoms

 Group   1 Type C   : 8s3p3d contracted to 6s3p3d pattern {311111/111/111}
 Group   2 Type H   : 5s2p1d contracted to 3s1p1d pattern {311/2/1}
 Group   3 Type I   : 11s5p5d3f1g contracted to 8s4p3d2f1g pattern {41111111/2111/311/21/1}
 Group   4 Type F   : 8s3p4d contracted to 6s3p4d pattern {311111/111/1111}

Atom   0C    basis set group =>   1
Atom   1H    basis set group =>   2
Atom   2H    basis set group =>   2
Atom   3H    basis set group =>   2
Atom   4I    basis set group =>   3
Atom   5F    basis set group =>   4
-------------------------
ECP PARAMETER INFORMATION
-------------------------

 Group 1, Type I  ECP Def2-ECP (replacing 28 core electrons, lmax=3)

Atom   4I    ECP group =>   1



           ************************************************************
           *        Program running with 8 parallel MPI-processes     *
           *              working on a common directory               *
           ************************************************************
------------------------------------------------------------------------------
                             ORCA STARTUP CALCULATIONS
                           -- RI-GTO INTEGRALS CHOSEN --
------------------------------------------------------------------------------
------------------------------------------------------------------------------
                   ___                                                        
                  /   \      - P O W E R E D   B Y -                         
                 /     \                                                     
                 |  |  |   _    _      __       _____    __    __             
                 |  |  |  | |  | |    /  \     |  _  \  |  |  /  |          
                  \  \/   | |  | |   /    \    | | | |  |  | /  /          
                 / \  \   | |__| |  /  /\  \   | |_| |  |  |/  /          
                |  |  |   |  __  | /  /__\  \  |    /   |      \           
                |  |  |   | |  | | |   __   |  |    \   |  |\   \          
                \     /   | |  | | |  |  |  |  | |\  \  |  | \   \       
                 \___/    |_|  |_| |__|  |__|  |_| \__\ |__|  \__/        
                                                                              
                      - O R C A' S   B I G   F R I E N D -                    
                                      &                                       
                       - I N T E G R A L  F E E D E R -                       
                                                                              
 v1 FN, 2020, v2 2021, v3 2022-2024                                           
------------------------------------------------------------------------------


----------------------
SHARK INTEGRAL PACKAGE
----------------------

Number of atoms                             ...      6
Number of basis functions                   ...     94
Number of shells                            ...     42
Maximum angular momentum                    ...      2
Integral batch strategy                     ... SHARK/LIBINT Hybrid
RI-J (if used) integral strategy            ... SPLIT-RIJ (Revised 2003 algorithm where possible)
Printlevel                                  ...      1
Contraction scheme used                     ... SEGMENTED contraction
Prescreening option                         ... SCHWARTZ
   Thresh                                   ... 2.500e-11
   Tcut                                     ... 2.500e-12
   Tpresel                                  ... 2.500e-12 
Coulomb Range Separation                    ... NOT USED
Exchange Range Separation                   ... NOT USED
Multipole approximations                    ... NOT USED
Finite Nucleus Model                        ... NOT USED
CABS basis                                  ... NOT available
Auxiliary Coulomb fitting basis             ... AVAILABLE
   # of basis functions in Aux-J            ...    156
   # of shells in Aux-J                     ...     58
   Maximum angular momentum in Aux-J        ...      4
Auxiliary J/K fitting basis                 ... NOT available
Auxiliary Correlation fitting basis         ... NOT available
Auxiliary 'external' fitting basis          ... NOT available

Checking pre-screening integrals            ... done (  0.0 sec) Dimension = 42
   => SHARK Basis and OBASIS are compatible. Storing Pre-screening
Shell pair information
Shell pair cut-off parameter TPreSel        ...   2.5e-12
Total number of shell pairs                 ...       903
Shell pairs after pre-screening             ...       842
Total number of primitive shell pairs       ...      3409
Primitive shell pairs kept                  ...      2485
          la=0 lb=0:    228 shell pairs
          la=1 lb=0:    289 shell pairs
          la=1 lb=1:    102 shell pairs
          la=2 lb=0:    122 shell pairs
          la=2 lb=1:     81 shell pairs
          la=2 lb=2:     20 shell pairs

Checking whether 4 symmetric matrices of dimension 94 fit in memory
:Max Core in MB      =   4096.00
 MB in use           =      4.35
 MB left             =   4091.65
 MB needed           =      0.14
 Data fit in memory  = YES
Calculating RI/J V-Matrix + Cholesky decomp.... done (  0.0 sec)
Calculating Nuclear repulsion               ... done (  0.0 sec) ENN=    103.310020716333 Eh

Diagonalization of the overlap matrix:
Smallest eigenvalue                        ... 4.435e-03
Time for diagonalization                   ...    0.001 sec
Threshold for overlap eigenvalues          ... 1.000e-07
Number of eigenvalues below threshold      ... 0
Time for construction of square roots      ...    0.001 sec
Total time needed                          ...    0.003 sec

-------------------
DFT GRID GENERATION
-------------------

General Integration Accuracy     IntAcc      ... 4.388
Radial Grid Type                 RadialGrid  ... OptM3 with GC (2021)
Angular Grid (max. ang.)         AngularGrid ... 4 (Lebedev-302)
Angular grid pruning method      GridPruning ... 4 (adaptive)
Weight generation scheme         WeightScheme... mBecke (2022)
Basis function cutoff            BFCut       ... 1.0000e-11
Integration weight cutoff        WCut        ... 1.0000e-14
Partially contracted basis set               ... off
Rotationally invariant grid construction     ... off
Angular grids for H and He will be reduced by one unit

Total number of grid points                  ...    33635
Total number of batches                      ...      529
Average number of points per batch           ...       63
Average number of grid points per atom       ...     5606
Grids setup in   1.0 sec
Initializing property integral containers    ... done (  0.0 sec)

SHARK setup successfully completed in   1.5 seconds

Maximum memory used throughout the entire STARTUP-calculation: 12.4 MB


           ************************************************************
           *        Program running with 8 parallel MPI-processes     *
           *              working on a common directory               *
           ************************************************************
-------------------------------------------------------------------------------
                                 ORCA GUESS
                   Start orbitals & Density for SCF / CASSCF
-------------------------------------------------------------------------------

------------
SCF SETTINGS
------------
Hamiltonian:
 Density Functional     Method          .... DFT(GTOs)
  Functional kind                       .... Exchange
  Functional name                       .... Re-regularized SCAN exchange by Furness et al
  Functional family                     .... MGGA
  Functional refs                              
    [ 0] J. W. Furness, A. D. Kaplan, J. Ning, J. P. Perdew, and J. Sun.,  J. Phys. Chem. Lett. 11, 8208-8215 (2020), doi: 10.1021/acs.jpclett.0c02405
    [ 1] J. W. Furness, A. D. Kaplan, J. Ning, J. P. Perdew, and J. Sun.,  J. Phys. Chem. Lett. 11, 9248-9248 (2020), doi: 10.1021/acs.jpclett.0c03077
  Functional external parameters        .... 6
    Parameter  0 _c1        =  6.670000e-01 : c1 parameter        
    Parameter  1 _c2        =  8.000000e-01 : c2 parameter        
    Parameter  2 _d         =  1.240000e+00 : d parameter         
    Parameter  3 _k1        =  6.500000e-02 : k1 parameter        
    Parameter  4 _eta       =  1.000000e-03 : eta parameter       
    Parameter  5 _dp2       =  3.610000e-01 : dp2 parameter       
  Functional kind                       .... Correlation
  Functional name                       .... Re-regularized SCAN correlation by Furness et al
  Functional family                     .... MGGA
  Functional refs                              
    [ 0] J. W. Furness, A. D. Kaplan, J. Ning, J. P. Perdew, and J. Sun.,  J. Phys. Chem. Lett. 11, 8208-8215 (2020), doi: 10.1021/acs.jpclett.0c02405
    [ 1] J. W. Furness, A. D. Kaplan, J. Ning, J. P. Perdew, and J. Sun.,  J. Phys. Chem. Lett. 11, 9248-9248 (2020), doi: 10.1021/acs.jpclett.0c03077
  Functional external parameters        .... 1
    Parameter  0 _eta       =  1.000000e-03 : Regularization parameter
 Gradients option       PostSCFGGA      .... off
 RI-approximation to the Coulomb term is turned on
   Number of AuxJ basis functions       .... 156


General Settings:
 Integral files         IntName         .... product_optfreq
 Hartree-Fock type      HFTyp           .... RHF
 Total Charge           Charge          ....   -1
 Multiplicity           Mult            ....    1
 Number of Electrons    NEL             ....   44
 Basis Dimension        Dim             ....   94
 Nuclear Repulsion      ENuc            ....    103.3100207163 Eh

Convergence Acceleration:
 AO-DIIS                CNVDIIS         .... on
   Start iteration      DIISMaxIt       ....    12
   Startup error        DIISStart       ....  0.200000
   # of expansion vecs  DIISMaxEq       ....     5
   Bias factor          DIISBfac        ....   1.050
   Max. coefficient     DIISMaxC        ....  10.000
 MO-DIIS                CNVKDIIS        .... off
 Trust-Rad. Augm. Hess. CNVTRAH         .... auto
   Auto Start mean grad. ratio tolernc. ....  1.125000
   Auto Start start iteration           ....    50
   Auto Start num. interpolation iter.  ....    10
   Max. Number of Micro iterations      ....    24
   Max. Number of Macro iterations      .... Maxiter - #DIIS iter
   Number of Davidson start vectors     ....     2
   Converg. threshold    (grad. norm)   ....   1.000e-05
   Grad. Scal. Fac. for Micro threshold ....   0.100
   Minimum threshold for Micro iter.    ....   1.000e-02
   NR start threshold (gradient norm)   ....   1.000e-04
   Initial trust radius                 ....   0.400
   Minimum AH scaling param. (alpha)    ....   1.000
   Maximum AH scaling param. (alpha)    .... 1000.000
   Quad. conv. algorithm                .... NR
   White noise on init. David. guess    .... on
   Maximum white noise                  ....   0.010
   Pseudo random numbers                .... off
   Inactive MOs                         .... canonical
   Orbital update algorithm             .... Taylor
   Preconditioner                       .... Diag
   Full preconditioner red. dimension   ....   250
   COSX micro iterations for RIJONX calc.... off
 SOSCF                 CNVSOSCF           .... on
   Start iteration     SOSCFMaxIt         ....   150
   Startup grad/error  SOSCFStart         ....  0.003300
   Hessian update      SOSCFHessUp        .... L-BFGS
   Autom. constraints  SOSCFAutoConstrain .... off
 Level Shifting         CNVShift        .... on
   Level shift para.    LevelShift      ....    0.2500
   Turn off err/grad.   ShiftErr        ....    0.0010
 Zerner damping         CNVZerner       .... off
 Static damping         CNVDamp         .... on
   Fraction old density DampFac         ....    0.7000
   Max. Damping (<1)    DampMax         ....    0.9800
   Min. Damping (>=0)   DampMin         ....    0.0000
   Turn off err/grad.   DampErr         ....    0.1000

SCF Procedure:
 Maximum # iterations   MaxIter         ....   150
 SCF integral mode      SCFMode         .... Direct
   Integral package                     .... SHARK and LIBINT hybrid scheme
 Reset frequency        DirectResetFreq ....    20
 Integral Threshold     Thresh          ....  2.500e-11 Eh
 Primitive CutOff       TCut            ....  2.500e-12 Eh

Convergence Tolerance:
 Convergence Check Mode ConvCheckMode   .... Total+1el-Energy
 Convergence forced     ConvForced      .... 0
 Energy Change          TolE            ....  1.000e-08 Eh
 1-El. energy change                    ....  1.000e-05 Eh
 Orbital Gradient       TolG            ....  1.000e-05
 Orbital Rotation angle TolX            ....  1.000e-05
 DIIS Error             TolErr          ....  5.000e-07

------------------------------
INITIAL GUESS: MODEL POTENTIAL
------------------------------
Loading Hartree-Fock densities                     ... done
Atomic calculation to generate a density for atom 4 (I  with ECP)
  Multiplicity assumed   :    2
  Atomic configuration   : 1s2 2s2 2p6 3s2 3p6 4s2 3d10 4p6 5s2 4d10 5p5 
  Number of open shells  : 1
  Command: /software/orca-6.1.0-el8-x86_64/bin/orca product_optfreq_atom53.inp "" > product_optfreq_atom53.out
Returned from the atomic calculation with res=0
Calculating cut-offs                               ... done
Initializing the effective Hamiltonian             ... done
Setting up the integral package (SHARK)            ... done
Starting the Coulomb interaction                   ... done (   0.0 sec)
Making the grid                                    ... done (   0.1 sec)
Mapping shells                                     ... done
Starting the XC term evaluation                    ... done (   0.1 sec)
  promolecular density results
     # of electrons  =     70.999045562
     EX              =   -189.034918335
     EC              =     -3.442433312
     EX+EC           =   -192.477351647
Transforming the Hamiltonian                       ... done (   0.0 sec)
Diagonalizing the Hamiltonian                      ... done (   0.0 sec)
Back transforming the eigenvectors                 ... done (   0.0 sec)
Now organizing SCF variables                       ... done
                      ------------------
                      INITIAL GUESS DONE (   5.5 sec)
                      ------------------
             **** ENERGY FILE WAS UPDATED (product_optfreq.en.tmp) ****
Finished Guess after   5.7 sec
Maximum memory used throughout the entire GUESS-calculation: 7.2 MB


           ************************************************************
           *        Program running with 8 parallel MPI-processes     *
           *              working on a common directory               *
           ************************************************************

-------------------------------------------------------------------------------------------
                                      ORCA LEAN-SCF
                              memory conserving SCF solver
-------------------------------------------------------------------------------------------

----------------------------------------D-I-I-S--------------------------------------------
Iteration    Energy (Eh)           Delta-E    RMSDP     MaxDP     DIISErr   Damp  Time(sec)
-------------------------------------------------------------------------------------------
               ***  Starting incremental Fock matrix formation  ***
    1    -437.4105808282695307     0.00e+00  1.44e-02  1.41e-01  6.02e-01  0.700   0.5
    2    -437.4659034413522249    -5.53e-02  1.06e-02  1.00e-01  4.04e-01  0.700   0.5
    3    -437.4920308428062299    -2.61e-02  6.12e-03  4.87e-02  2.72e-01  0.700   0.3
                               ***Turning on AO-DIIS***
    4    -437.5073719416882341    -1.53e-02  2.96e-03  2.13e-02  1.86e-01  0.700   0.2
    5    -437.5174517875732363    -1.01e-02  1.60e-03  1.26e-02  1.33e-01  0.700   0.3
    6    -437.5247823708525630    -7.33e-03  1.05e-03  6.97e-03  9.44e-02  0.700   0.4
    7    -437.5300723382259775    -5.29e-03  3.08e-03  2.09e-02  6.62e-02  0.000   0.2
    8    -437.5423200770046606    -1.22e-02  5.69e-04  4.74e-03  4.93e-03  0.000   0.2
    9    -437.5423463158584809    -2.62e-05  1.34e-04  9.81e-04  3.50e-03  0.000   0.6
                              *** Initializing SOSCF ***
---------------------------------------S-O-S-C-F--------------------------------------
Iteration    Energy (Eh)           Delta-E    RMSDP     MaxDP     MaxGrad    Time(sec)
--------------------------------------------------------------------------------------
   10    -437.5423545817595823    -8.27e-06  5.47e-05  4.66e-04  5.20e-04     0.5
               *** Restarting incremental Fock matrix formation ***
   11    -437.5423553953876308    -8.14e-07  3.73e-05  3.20e-04  4.55e-05     0.4
   12    -437.5423553966982126    -1.31e-09  1.68e-05  1.50e-04  3.97e-05     0.3
                 **** Energy Check signals convergence ****

               *****************************************************
               *                     SUCCESS                       *
               *           SCF CONVERGED AFTER  12 CYCLES          *
               *****************************************************

             **** ENERGY FILE WAS UPDATED (product_optfreq.en.tmp) ****

----------------
TOTAL SCF ENERGY
----------------

Total Energy       :       -437.54235542274546 Eh          -11906.13279 eV

Components:
Nuclear Repulsion  :        103.31002071633267 Eh            2811.20858 eV
Electronic Energy  :       -540.85237613907816 Eh          -14717.34137 eV
One Electron Energy:       -925.67267723264558 Eh          -25188.83412 eV
Two Electron Energy:        384.82030109356737 Eh           10471.49275 eV

Virial components:
Potential Energy   :       -688.95764171380597 Eh          -18747.49054 eV
Kinetic Energy     :        251.41528629106054 Eh            6841.35775 eV
Virial Ratio       :          2.74031723320199

DFT components:
N(Alpha)           :       22.000013576853 electrons
N(Beta)            :       22.000013576853 electrons
N(Total)           :       44.000027153706 electrons
E(X)               :      -37.810430159627 Eh       
E(C)               :       -1.660263930504 Eh       
E(XC)              :      -39.470694090130 Eh       

---------------
SCF CONVERGENCE
---------------

  Last Energy change         ...    1.3106e-09  Tolerance :   1.0000e-08
  Last MAX-Density change    ...    1.5017e-04  Tolerance :   1.0000e-07
  Last RMS-Density change    ...    1.6841e-05  Tolerance :   5.0000e-09
  Last DIIS Error            ...    5.1985e-04  Tolerance :   5.0000e-07
  Last Orbital Gradient      ...    3.9715e-05  Tolerance :   1.0000e-05
  Last Orbital Rotation      ...    4.2476e-05  Tolerance :   1.0000e-05


----------------
ORBITAL ENERGIES
----------------

  NO   OCC          E(Eh)            E(eV) 
   0   2.0000     -24.250944      -659.9017 
   1   2.0000      -9.935263      -270.3523 
   2   2.0000      -6.569749      -178.7720 
   3   2.0000      -4.578113      -124.5768 
   4   2.0000      -4.577139      -124.5503 
   5   2.0000      -4.577070      -124.5484 
   6   2.0000      -1.615511       -43.9603 
   7   2.0000      -1.615261       -43.9535 
   8   2.0000      -1.615239       -43.9529 
   9   2.0000      -1.614084       -43.9214 
  10   2.0000      -1.614072       -43.9211 
  11   2.0000      -0.896391       -24.3920 
  12   2.0000      -0.506856       -13.7923 
  13   2.0000      -0.406046       -11.0491 
  14   2.0000      -0.264358        -7.1935 
  15   2.0000      -0.262258        -7.1364 
  16   2.0000      -0.215348        -5.8599 
  17   2.0000      -0.131886        -3.5888 
  18   2.0000      -0.129974        -3.5368 
  19   2.0000      -0.031680        -0.8621 
  20   2.0000      -0.030357        -0.8260 
  21   2.0000      -0.029163        -0.7936 
  22   0.0000       0.160832         4.3765 
  23   0.0000       0.267050         7.2668 
  24   0.0000       0.322796         8.7837 
  25   0.0000       0.324989         8.8434 
  26   0.0000       0.332354         9.0438 
  27   0.0000       0.336771         9.1640 
  28   0.0000       0.337740         9.1904 
  29   0.0000       0.368064        10.0155 
  30   0.0000       0.368317        10.0224 
  31   0.0000       0.399149        10.8614 
  32   0.0000       0.425737        11.5849 
*Only the first 10 virtual orbitals were printed.

                    ********************************
                    * MULLIKEN POPULATION ANALYSIS *
                    ********************************

-----------------------
MULLIKEN ATOMIC CHARGES
-----------------------
   0 C :   -0.120638
   1 H :    0.175562
   2 H :    0.165365
   3 H :    0.165369
   4 I :   -0.878841
   5 F :   -0.506817
Sum of atomic charges:   -1.0000000

--------------------------------
MULLIKEN REDUCED ORBITAL CHARGES
--------------------------------
  0 C s       :     3.319223  s :     3.319223
      pz      :     0.572713  p :     2.767309
      px      :     1.092510
      py      :     1.102087
      dz2     :     0.016204  d :     0.034105
      dxz     :     0.004119
      dyz     :     0.004269
      dx2y2   :     0.004292
      dxy     :     0.005220

  1 H s       :     0.805369  s :     0.805369
      pz      :     0.003687  p :     0.019070
      px      :     0.003244
      py      :     0.012140

  2 H s       :     0.815528  s :     0.815528
      pz      :     0.003423  p :     0.019106
      px      :     0.009998
      py      :     0.005685

  3 H s       :     0.815525  s :     0.815525
      pz      :     0.003423  p :     0.019107
      px      :     0.010008
      py      :     0.005676

  4 I s       :     3.983721  s :     3.983721
      pz      :     3.884559  p :    11.881653
      px      :     3.998963
      py      :     3.998131
      dz2     :     2.005795  d :    10.013467
      dxz     :     2.003620
      dyz     :     2.003940
      dx2y2   :     2.000026
      dxy     :     2.000085

  5 F s       :     3.956361  s :     3.956361
      pz      :     1.584997  p :     5.542660
      px      :     1.978874
      py      :     1.978790
      dz2     :     0.004605  d :     0.007795
      dxz     :     0.001405
      dyz     :     0.001538
      dx2y2   :     0.000067
      dxy     :     0.000181



                     *******************************
                     * LOEWDIN POPULATION ANALYSIS *
                     *******************************

----------------------
LOEWDIN ATOMIC CHARGES
----------------------
   0 C :   -0.177016
   1 H :    0.168194
   2 H :    0.158388
   3 H :    0.158389
   4 I :   -0.745603
   5 F :   -0.562353

-------------------------------
LOEWDIN REDUCED ORBITAL CHARGES
-------------------------------
  0 C s       :     3.039645  s :     3.039645
      pz      :     0.743026  p :     3.059152
      px      :     1.157711
      py      :     1.158415
      dz2     :     0.034808  d :     0.078218
      dxz     :     0.008291
      dyz     :     0.008712
      dx2y2   :     0.011986
      dxy     :     0.014422

  1 H s       :     0.787153  s :     0.787153
      pz      :     0.007336  p :     0.044653
      px      :     0.006996
      py      :     0.030322

  2 H s       :     0.796611  s :     0.796611
      pz      :     0.006864  p :     0.045002
      px      :     0.024695
      py      :     0.013442

  3 H s       :     0.796608  s :     0.796608
      pz      :     0.006865  p :     0.045002
      px      :     0.024720
      py      :     0.013417

  4 I s       :     3.923491  s :     3.923491
      pz      :     3.808453  p :    11.787500
      px      :     3.990001
      py      :     3.989046
      dz2     :     2.020322  d :    10.034613
      dxz     :     2.006561
      dyz     :     2.007454
      dx2y2   :     2.000065
      dxy     :     2.000211

  5 F s       :     3.868987  s :     3.868987
      pz      :     1.630549  p :     5.587814
      px      :     1.978676
      py      :     1.978590
      dz2     :     0.048652  d :     0.105552
      dxz     :     0.025815
      dyz     :     0.029668
      dx2y2   :     0.000205
      dxy     :     0.001212



                      *****************************
                      * MAYER POPULATION ANALYSIS *
                      *****************************

  NA   - Mulliken gross atomic population
  ZA   - Total nuclear charge
  QA   - Mulliken gross atomic charge
  VA   - Mayer's total valence
  BVA  - Mayer's bonded valence
  FA   - Mayer's free valence

  ATOM       NA         ZA         QA         VA         BVA        FA
  0 C      6.1206     6.0000    -0.1206     3.7176     3.7176    -0.0000
  1 H      0.8244     1.0000     0.1756     0.9466     0.9466    -0.0000
  2 H      0.8346     1.0000     0.1654     0.9480     0.9480     0.0000
  3 H      0.8346     1.0000     0.1654     0.9480     0.9480    -0.0000
  4 I     25.8788    25.0000    -0.8788     0.2385     0.2385     0.0000
  5 F      9.5068     9.0000    -0.5068     0.6229     0.6229     0.0000

  Mayer bond orders larger than 0.100000
B(  0-C ,  1-H ) :   0.9642 B(  0-C ,  2-H ) :   0.9607 B(  0-C ,  3-H ) :   0.9607 
B(  0-C ,  4-I ) :   0.2149 B(  0-C ,  5-F ) :   0.6171 

-------
TIMINGS
-------

Total SCF time: 0 days 0 hours 0 min 5 sec 

Total time                  ....       5.594 sec
Sum of individual times     ....       5.090 sec  ( 91.0%)

SCF preparation             ....       0.609 sec  ( 10.9%)
Fock matrix formation       ....       3.241 sec  ( 57.9%)
  Startup                   ....       0.009 sec  (  0.3% of F)
  Split-RI-J                ....       0.762 sec  ( 23.5% of F)
  XC integration            ....       2.506 sec  ( 77.3% of F)
    Basis function eval.    ....       0.322 sec  ( 12.8% of XC)
    Density eval.           ....       0.426 sec  ( 17.0% of XC)
    XC-Functional eval.     ....       0.664 sec  ( 26.5% of XC)
    XC-Potential eval.      ....       0.648 sec  ( 25.9% of XC)
Diagonalization             ....       0.000 sec  (  0.0%)
Density matrix formation    ....       0.239 sec  (  4.3%)
Total Energy calculation    ....       0.073 sec  (  1.3%)
Population analysis         ....       0.082 sec  (  1.5%)
Orbital Transformation      ....       0.018 sec  (  0.3%)
Orbital Orthonormalization  ....       0.000 sec  (  0.0%)
DIIS solution               ....       0.653 sec  ( 11.7%)
SOSCF solution              ....       0.175 sec  (  3.1%)
Finished LeanSCF after   5.6 sec

Maximum memory used throughout the entire LEANSCF-calculation: 6.5 MB


           ************************************************************
           *        Program running with 8 parallel MPI-processes     *
           *              working on a common directory               *
           ************************************************************

------------------------------------------------------------------------------
                         ORCA PROPERTY INTEGRAL CALCULATIONS
------------------------------------------------------------------------------

GBWName                                   ... product_optfreq.gbw
Number of atoms                           ...      6
Number of basis functions                 ...     94
Max core memory                           ...   4096 MB

Dipole integrals                          ... YES
Quadrupole integrals                      ...  NO
Linear momentum integrals                 ...  NO
Angular momentum integrals                ...  NO
Higher moments length integrals           ...  NO
Higher moments velocity integrals         ...  NO
Kinetic energy integrals                  ...  NO
GIAO right hand sides                     ...  NO
GIAO dipole derivative integrals          ...  NO
SOC integrals                             ...  NO
EPR diamagnetic integrals (GIAO)          ...  NO
EPR gauge integrals                       ...  NO
Field gradient integrals                  ...  NO (   0 nuclei)
Spin-dipole/Fermi contact integrals       ...  NO (   0 nuclei)
Contact density integrals                 ...  NO (   0 nuclei)
Nucleus-orbit integrals                   ...  NO (   0 nuclei)
Geometric perturbations                   ...  NO (   6 nuclei)

Choice of electric origin   ... Center of mass
Position of electric origin ... (  0.0003,  0.5399,  3.1032) 
Choice of magnetic origin   ... GIAO
Position of magnetic origin ... (  0.0000,  0.0000,  0.0000) 

Calculating integrals                     ... Electric Dipole (Length)     done (  0.0 sec)

Property integrals calculated in   0.0 sec

Maximum memory used throughout the entire PROPINT-calculation: 6.9 MB


-------------------------------------------------------------------------------
                          DFT DISPERSION CORRECTION                            
                                                                               
                                DFTD4 V3.4.0                                   
-------------------------------------------------------------------------------
The R2SCAN3C composite method is recognized
Using three-body term ABC
Active option DFTDOPT                   ...         5   

-------------------------   ----------------
Dispersion correction           -0.000922461
-------------------------   ----------------

------------------   -----------------
gCP correction             0.004062776
------------------   -----------------

-------------------------   --------------------
FINAL SINGLE POINT ENERGY      -437.539215108331
-------------------------   --------------------



           ************************************************************
           *        Program running with 8 parallel MPI-processes     *
           *              working on a common directory               *
           ************************************************************
------------------------------------------------------------------------------
                         ORCA SCF GRADIENT CALCULATION
------------------------------------------------------------------------------

Nuc. rep. gradient        (SHARK) ... done (  0.0 sec)
HCore & Overlap gradient  (SHARK) ... done (  0.0 sec)
ECP gradient              (SHARK) ... done (  0.1 sec)
Split-RIJ-J gradient      (SHARK) ... done (  1.0 sec)
XC gradient                       ... done (  0.2 sec)
Dispersion correction             ... done (  0.0 sec)

-------------------
DISPERSION GRADIENT
-------------------

   1   C   :   -0.000000001   -0.000001876   -0.000039728
   2   H   :    0.000000000    0.000000252   -0.000008472
   3   H   :    0.000000902   -0.000000551   -0.000008505
   4   H   :   -0.000000903   -0.000000549   -0.000008505
   5   I   :    0.000000002    0.000002553    0.000092328
   6   F   :   -0.000000000    0.000000171   -0.000027119

Difference to translation invariance:
           :   -0.0000000000   -0.0000000000   -0.0000000000

Difference to rotation invariance:
           :   -0.0000000000    0.0000000000   -0.0000000000

Norm of the Dispersion gradient    ...    0.0001051993
RMS gradient                       ...    0.0000247957
MAX gradient                       ...    0.0000923275
gCP correction                   ... done

------------------
CARTESIAN GRADIENT
------------------

   1   C   :   -0.000011026   -0.015788288    0.058300378
   2   H   :    0.000003005    0.003841385   -0.011465649
   3   H   :   -0.005615128    0.001779725   -0.006030769
   4   H   :    0.005619932    0.001773688   -0.006033356
   5   I   :    0.000000178    0.000648452   -0.022118942
   6   F   :    0.000003039    0.007745038   -0.012651661

Difference to translation invariance:
           :    0.0000000000    0.0000000000    0.0000000000

Difference to rotation invariance:
           :    0.0000414557    0.0000001914   -0.0000004834

Norm of the Cartesian gradient     ...    0.0681640527
RMS gradient                       ...    0.0160664213
MAX gradient                       ...    0.0583003778

-------
TIMINGS
-------

Total SCF gradient time     ....        1.397 sec

Densities                   ....       0.000 sec  (  0.0%)
One electron gradient       ....       0.006 sec  (  0.5%)
RI-J Coulomb gradient       ....       0.973 sec  ( 69.7%)
XC gradient                 ....       0.198 sec  ( 14.2%)

Maximum memory used throughout the entire SCFGRAD-calculation: 26.8 MB
------------------------------------------------------------------------------
                         ORCA GEOMETRY RELAXATION STEP
------------------------------------------------------------------------------

Reading the OPT-File                    .... done
Getting information on internals        .... done
Copying old internal coords+grads       .... done
Making the new internal coordinates     .... (2022 redundants) done
Validating the new internal coordinates .... (2022 redundants) done
Calculating the B-matrix                .... done
Calculating the G,G- and P matrices     .... done
Transforming gradient to internals      .... done
Projecting the internal gradient        .... done
Number of atoms                         ....   6
Number of internal coordinates          ....  18
Current Energy                          ....  -437.539215108 Eh
Current gradient norm                   ....     0.068164053 Eh/bohr
Maximum allowed component of the step   ....  0.300
Current trust radius                    ....  0.300
Evaluating the initial hessian          ....  (Almloef) done
Projecting the Hessian                  .... done
Forming the augmented Hessian           .... done
Diagonalizing the augmented Hessian     .... done
Last element of RFO vector              ....  0.873684548
Lowest eigenvalues of augmented Hessian:
 -0.011177562  0.016531068  0.050731231  0.063172257  0.178581511
Length of the computed step             ....  0.556828971
Warning: the length of the step is outside the trust region - taking restricted step instead
The input lambda is                     ....     0.009503
   iter:   5  x=    0.002961  g= 2090.103116 f(x)=     5.212854
   iter:  10  x=   -0.029054  g=    8.350032 f(x)=     0.062467
   iter:  15  x=   -0.033201  g=    3.395250 f(x)=     0.000000
The output lambda is                    ....    -0.033201 (15 iterations)
The final length of the internal step   ....  0.300000000
Converting the step to Cartesian space:
 Initial RMS(Int)=    0.0707106781
Transforming coordinates:
 Iter   0:  RMS(Cart)=    0.0379722709 RMS(Int)=    0.0709287089
done
Storing new coordinates                 .... done

                                .--------------------.
          ----------------------|Geometry convergence|-------------------------
          Item                value                   Tolerance       Converged
          ---------------------------------------------------------------------
          RMS gradient        0.0081658641            0.0001000000      NO
          MAX gradient        0.0179341900            0.0003000000      NO
          RMS step            0.0707106781            0.0020000000      NO
          MAX step            0.1973459102            0.0040000000      NO
          -------------------------------------------------------------------------
          ........................................................
          Max(Bonds)      0.1044      Max(Angles)    3.77
          Max(Dihed)        0.00      Max(Improp)    0.00
          ---------------------------------------------------------------------

The optimization has not yet converged - more geometry cycles are needed


    ---------------------------------------------------------------------------
                         Redundant Internal Coordinates
                            (Angstroem and degrees)

        Definition                    Value    dE/dq     Step     New-Value
    ----------------------------------------------------------------------------
     1. B(H   1,C   0)                1.0797  0.002365 -0.0041    1.0756   
     2. B(H   2,C   0)                1.0707 -0.006057  0.0067    1.0773   
     3. B(H   3,C   0)                1.0707 -0.006061  0.0067    1.0773   
     4. B(I   4,H   1)                2.8146 -0.000920  0.0576    2.8721   
     5. B(I   4,C   0)                2.8003 -0.017934  0.1044    2.9048   
     6. B(I   4,H   3)                2.8774 -0.001771  0.0583    2.9357   
     7. B(I   4,H   2)                2.8774 -0.001771  0.0583    2.9357   
     8. B(F   5,C   0)                1.6304  0.013194 -0.0281    1.6023   
     9. A(H   1,C   0,H   3)          118.70  0.004765   -1.22    117.48   
    10. A(H   2,C   0,H   3)          116.91  0.001880   -0.63    116.27   
    11. A(H   1,C   0,F   5)           93.88 -0.016241    3.77     97.65   
    12. A(H   2,C   0,F   5)          100.07 -0.003981    1.37    101.44   
    13. A(H   3,C   0,F   5)          100.07 -0.003984    1.37    101.44   
    14. A(H   1,C   0,I   4)           79.66  0.007613   -2.08     77.58   
    15. A(H   2,C   0,I   4)           83.21  0.008414   -2.24     80.97   
    16. A(H   3,C   0,I   4)           83.21  0.008414   -2.24     80.97   
    17. A(I   4,C   0,F   5)          173.53 -0.008628    1.70    175.23   
    18. A(H   1,C   0,H   2)          118.69  0.004764   -1.21    117.48   
    ----------------------------------------------------------------------------

Geometry step timings:
Preparation and reading OPT file:      0.000 s ( 2.823 %)
Internal coordinates            :      0.000 s ( 2.893 %)
B/P matrices and projection     :      0.000 s (13.267 %)
Hessian update/contruction      :      0.000 s (32.181 %)
Making the step                 :      0.000 s (14.608 %)
Converting the step to Cartesian:      0.000 s ( 3.529 %)
Storing new data                :      0.000 s ( 6.422 %)
Checking convergence            :      0.000 s ( 4.869 %)
Final printing                  :      0.000 s (18.843 %)
Total time                      :      0.001 s

Time for energy+gradient        :     17.323 s
Time for complete geometry iter :     18.200 s

         *************************************************************
         *                GEOMETRY OPTIMIZATION CYCLE   2            *
         *************************************************************
---------------------------------
CARTESIAN COORDINATES (ANGSTROEM)
---------------------------------
  C      0.000123    0.197779   -0.417314
  H      0.000806    1.254636   -0.217349
  H      0.914199   -0.341711   -0.232711
  H     -0.914633   -0.340547   -0.232695
  I      0.000178    0.284024    2.485983
  F      0.000145    0.283837   -2.017288

----------------------------
CARTESIAN COORDINATES (A.U.)
----------------------------
  NO LB      ZA    FRAG     MASS         X           Y           Z
   0 C     6.0000    0    12.011    0.000233    0.373749   -0.788609
   1 H     1.0000    0     1.008    0.001523    2.370919   -0.410730
   2 H     1.0000    0     1.008    1.727586   -0.645741   -0.439760
   3 H     1.0000    0     1.008   -1.728407   -0.643541   -0.439730
   4 I    25.0000*   0   126.900    0.000336    0.536727    4.697828
   5 F     9.0000    0    18.998    0.000274    0.536375   -3.812121
* core charge reduced due to ECP

--------------------------------
INTERNAL COORDINATES (ANGSTROEM)
--------------------------------
 C      0   0   0     0.000000000000     0.00000000     0.00000000
 H      1   0   0     1.075608060138     0.00000000     0.00000000
 H      1   2   0     1.077340836064   117.36372254     0.00000000
 H      1   2   3     1.077339403254   117.36458426   145.76914547
 I      2   1   3     2.872297715008    80.96381524   287.11472793
 F      1   2   3     1.602286152063    97.63533151   252.88401834

---------------------------
INTERNAL COORDINATES (A.U.)
---------------------------
 C      0   0   0     0.000000000000     0.00000000     0.00000000
 H      1   0   0     2.032604661099     0.00000000     0.00000000
 H      1   2   0     2.035879133050   117.36372254     0.00000000
 H      1   2   3     2.035876425432   117.36458426   145.76914547
 I      2   1   3     5.427856056453    80.96381524   287.11472793
 F      1   2   3     3.027882015574    97.63533151   252.88401834



           ************************************************************
           *        Program running with 8 parallel MPI-processes     *
           *              working on a common directory               *
           ************************************************************
------------------------------------------------------------------------------
                   ___                                                        
                  /   \      - P O W E R E D   B Y -                         
                 /     \                                                     
                 |  |  |   _    _      __       _____    __    __             
                 |  |  |  | |  | |    /  \     |  _  \  |  |  /  |          
                  \  \/   | |  | |   /    \    | | | |  |  | /  /          
                 / \  \   | |__| |  /  /\  \   | |_| |  |  |/  /          
                |  |  |   |  __  | /  /__\  \  |    /   |      \           
                |  |  |   | |  | | |   __   |  |    \   |  |\   \          
                \     /   | |  | | |  |  |  |  | |\  \  |  | \   \       
                 \___/    |_|  |_| |__|  |__|  |_| \__\ |__|  \__/        
                                                                              
                      - O R C A' S   B I G   F R I E N D -                    
                                      &                                       
                       - I N T E G R A L  F E E D E R -                       
                                                                              
 v1 FN, 2020, v2 2021, v3 2022-2024                                           
------------------------------------------------------------------------------


----------------------
SHARK INTEGRAL PACKAGE
----------------------

Number of atoms                             ...      6
Number of basis functions                   ...     94
Number of shells                            ...     42
Maximum angular momentum                    ...      2
Integral batch strategy                     ... SHARK/LIBINT Hybrid
RI-J (if used) integral strategy            ... SPLIT-RIJ (Revised 2003 algorithm where possible)
Printlevel                                  ...      1
Contraction scheme used                     ... SEGMENTED contraction
Prescreening option                         ... SCHWARTZ
   Thresh                                   ... 2.500e-11
   Tcut                                     ... 2.500e-12
   Tpresel                                  ... 2.500e-12 
Coulomb Range Separation                    ... NOT USED
Exchange Range Separation                   ... NOT USED
Multipole approximations                    ... NOT USED
Finite Nucleus Model                        ... NOT USED
CABS basis                                  ... NOT available
Auxiliary Coulomb fitting basis             ... AVAILABLE
   # of basis functions in Aux-J            ...    156
   # of shells in Aux-J                     ...     58
   Maximum angular momentum in Aux-J        ...      4
Auxiliary J/K fitting basis                 ... NOT available
Auxiliary Correlation fitting basis         ... NOT available
Auxiliary 'external' fitting basis          ... NOT available

Checking pre-screening integrals            ... done (  0.0 sec) Dimension = 42
   => SHARK Basis and OBASIS are compatible. Storing Pre-screening
Shell pair information
Shell pair cut-off parameter TPreSel        ...   2.5e-12
Total number of shell pairs                 ...       903
Shell pairs after pre-screening             ...       837
Total number of primitive shell pairs       ...      3409
Primitive shell pairs kept                  ...      2474
          la=0 lb=0:    228 shell pairs
          la=1 lb=0:    285 shell pairs
          la=1 lb=1:    102 shell pairs
          la=2 lb=0:    121 shell pairs
          la=2 lb=1:     81 shell pairs
          la=2 lb=2:     20 shell pairs

Checking whether 4 symmetric matrices of dimension 94 fit in memory
:Max Core in MB      =   4096.00
 MB in use           =      4.42
 MB left             =   4091.58
 MB needed           =      0.14
 Data fit in memory  = YES
Calculating RI/J V-Matrix + Cholesky decomp.... done (  0.0 sec)
Calculating Nuclear repulsion               ... done (  0.0 sec) ENN=    101.795502241874 Eh

Diagonalization of the overlap matrix:
Smallest eigenvalue                        ... 4.549e-03
Time for diagonalization                   ...    0.001 sec
Threshold for overlap eigenvalues          ... 1.000e-07
Number of eigenvalues below threshold      ... 0
Time for construction of square roots      ...    0.001 sec
Total time needed                          ...    0.002 sec

-------------------
DFT GRID GENERATION
-------------------

General Integration Accuracy     IntAcc      ... 4.388
Radial Grid Type                 RadialGrid  ... OptM3 with GC (2021)
Angular Grid (max. ang.)         AngularGrid ... 4 (Lebedev-302)
Angular grid pruning method      GridPruning ... 4 (adaptive)
Weight generation scheme         WeightScheme... mBecke (2022)
Basis function cutoff            BFCut       ... 1.0000e-11
Integration weight cutoff        WCut        ... 1.0000e-14
Partially contracted basis set               ... off
Rotationally invariant grid construction     ... off
Angular grids for H and He will be reduced by one unit

Total number of grid points                  ...    33652
Total number of batches                      ...      529
Average number of points per batch           ...       63
Average number of grid points per atom       ...     5609
Grids setup in   0.7 sec
Initializing property integral containers    ... done (  0.0 sec)

SHARK setup successfully completed in   1.1 seconds

Maximum memory used throughout the entire STARTUP-calculation: 12.5 MB


           ************************************************************
           *        Program running with 8 parallel MPI-processes     *
           *              working on a common directory               *
           ************************************************************
Occupation numbers will be reassigned to an Aufbau configuration
             **** ENERGY FILE WAS UPDATED (product_optfreq.en.tmp) ****
Finished Guess after   0.3 sec
Maximum memory used throughout the entire GUESS-calculation: 6.8 MB


           ************************************************************
           *        Program running with 8 parallel MPI-processes     *
           *              working on a common directory               *
           ************************************************************
----------------------------------------D-I-I-S--------------------------------------------
Iteration    Energy (Eh)           Delta-E    RMSDP     MaxDP     DIISErr   Damp  Time(sec)
-------------------------------------------------------------------------------------------
               ***  Starting incremental Fock matrix formation  ***
    1    -437.5481353550378572     0.00e+00  6.48e-04  3.38e-03  1.29e-02  0.700   0.4
    2    -437.5484244870690418    -2.89e-04  6.91e-04  3.83e-03  9.50e-03  0.700   0.3
                               ***Turning on AO-DIIS***
    3    -437.5486577749132948    -2.33e-04  6.03e-04  3.51e-03  6.68e-03  0.700   0.3
    4    -437.5488240231629788    -1.66e-04  1.62e-03  9.72e-03  4.73e-03  0.000   0.4
                              *** Initializing SOSCF ***
---------------------------------------S-O-S-C-F--------------------------------------
Iteration    Energy (Eh)           Delta-E    RMSDP     MaxDP     MaxGrad    Time(sec)
--------------------------------------------------------------------------------------
    5    -437.5492162992287604    -3.92e-04  1.52e-04  8.79e-04  4.54e-04     0.3
               *** Restarting incremental Fock matrix formation ***
    6    -437.5492177516748598    -1.45e-06  1.45e-04  8.40e-04  1.97e-04     0.2
    7    -437.5492177110614875     4.06e-08  5.99e-05  3.23e-04  3.43e-04     0.4
    8    -437.5492183998284190    -6.89e-07  4.75e-05  2.68e-04  7.04e-05     0.4
    9    -437.5492184513840357    -5.16e-08  1.31e-05  9.39e-05  2.73e-05     0.5
   10    -437.5492184647486056    -1.34e-08  9.69e-06  5.32e-05  1.75e-05     0.4
   11    -437.5492184675495082    -2.80e-09  3.93e-06  1.94e-05  7.85e-06     0.4
                 **** Energy Check signals convergence ****

               *****************************************************
               *                     SUCCESS                       *
               *           SCF CONVERGED AFTER  11 CYCLES          *
               *****************************************************

             **** ENERGY FILE WAS UPDATED (product_optfreq.en.tmp) ****

----------------
TOTAL SCF ENERGY
----------------

Total Energy       :       -437.54921846847640 Eh          -11906.31954 eV

Components:
Nuclear Repulsion  :        101.79550224187358 Eh            2769.99644 eV
Electronic Energy  :       -539.34472071034997 Eh          -14676.31598 eV
One Electron Energy:       -922.57790717306352 Eh          -25104.62115 eV
Two Electron Energy:        383.23318646271360 Eh           10428.30517 eV

Virial components:
Potential Energy   :       -688.93152023295420 Eh          -18746.77973 eV
Kinetic Energy     :        251.38230176447775 Eh            6840.46019 eV
Virial Ratio       :          2.74057288598789

DFT components:
N(Alpha)           :       22.000018658665 electrons
N(Beta)            :       22.000018658665 electrons
N(Total)           :       44.000037317330 electrons
E(X)               :      -37.804461227430 Eh       
E(C)               :       -1.658795166283 Eh       
E(XC)              :      -39.463256393713 Eh       

---------------
SCF CONVERGENCE
---------------

  Last Energy change         ...    2.8009e-09  Tolerance :   1.0000e-08
  Last MAX-Density change    ...    1.9439e-05  Tolerance :   1.0000e-07
  Last RMS-Density change    ...    3.9279e-06  Tolerance :   5.0000e-09
  Last DIIS Error            ...    4.5373e-04  Tolerance :   5.0000e-07
  Last Orbital Gradient      ...    7.8527e-06  Tolerance :   1.0000e-05
  Last Orbital Rotation      ...    3.0237e-05  Tolerance :   1.0000e-05


Total SCF time: 0 days 0 hours 0 min 5 sec 
Finished LeanSCF after   5.2 sec

Maximum memory used throughout the entire LEANSCF-calculation: 6.6 MB


           ************************************************************
           *        Program running with 8 parallel MPI-processes     *
           *              working on a common directory               *
           ************************************************************

------------------------------------------------------------------------------
                         ORCA PROPERTY INTEGRAL CALCULATIONS
------------------------------------------------------------------------------

GBWName                                   ... product_optfreq.gbw
Number of atoms                           ...      6
Number of basis functions                 ...     94
Max core memory                           ...   4096 MB

Dipole integrals                          ... YES
Quadrupole integrals                      ...  NO
Linear momentum integrals                 ...  NO
Angular momentum integrals                ...  NO
Higher moments length integrals           ...  NO
Higher moments velocity integrals         ...  NO
Kinetic energy integrals                  ...  NO
GIAO right hand sides                     ...  NO
GIAO dipole derivative integrals          ...  NO
SOC integrals                             ...  NO
EPR diamagnetic integrals (GIAO)          ...  NO
EPR gauge integrals                       ...  NO
Field gradient integrals                  ...  NO (   0 nuclei)
Spin-dipole/Fermi contact integrals       ...  NO (   0 nuclei)
Contact density integrals                 ...  NO (   0 nuclei)
Nucleus-orbit integrals                   ...  NO (   0 nuclei)
Geometric perturbations                   ...  NO (   6 nuclei)

Choice of electric origin   ... Center of mass
Position of electric origin ... (  0.0003,  0.5212,  3.1874) 
Choice of magnetic origin   ... GIAO
Position of magnetic origin ... (  0.0000,  0.0000,  0.0000) 

Calculating integrals                     ... Electric Dipole (Length)     done (  0.0 sec)

Property integrals calculated in   0.0 sec

Maximum memory used throughout the entire PROPINT-calculation: 6.9 MB


-------------------------------------------------------------------------------
                          DFT DISPERSION CORRECTION                            
                                                                               
                                DFTD4 V3.4.0                                   
-------------------------------------------------------------------------------
-------------------------   ----------------
Dispersion correction           -0.000909202
-------------------------   ----------------

------------------   -----------------
gCP correction             0.003945281
------------------   -----------------

-------------------------   --------------------
FINAL SINGLE POINT ENERGY      -437.546182389218
-------------------------   --------------------



           ************************************************************
           *        Program running with 8 parallel MPI-processes     *
           *              working on a common directory               *
           ************************************************************
------------------------------------------------------------------------------
                         ORCA SCF GRADIENT CALCULATION
------------------------------------------------------------------------------

Nuc. rep. gradient        (SHARK) ... done (  0.0 sec)
HCore & Overlap gradient  (SHARK) ... done (  0.0 sec)
ECP gradient              (SHARK) ... done (  0.3 sec)
Split-RIJ-J gradient      (SHARK) ... done (  0.7 sec)
XC gradient                       ... done (  0.4 sec)
Dispersion correction             ... done (  0.1 sec)

-------------------
DISPERSION GRADIENT
-------------------

   1   C   :   -0.000000000   -0.000000938   -0.000023503
   2   H   :    0.000000000    0.000000392   -0.000008924
   3   H   :    0.000000866   -0.000000567   -0.000009312
   4   H   :   -0.000000866   -0.000000566   -0.000009312
   5   I   :    0.000000001    0.000001739    0.000075953
   6   F   :   -0.000000000   -0.000000059   -0.000024902

Difference to translation invariance:
           :    0.0000000000    0.0000000000   -0.0000000000

Difference to rotation invariance:
           :   -0.0000000000    0.0000000000   -0.0000000000

Norm of the Dispersion gradient    ...    0.0000848564
RMS gradient                       ...    0.0000200008
MAX gradient                       ...    0.0000759529
gCP correction                   ... done

------------------
CARTESIAN GRADIENT
------------------

   1   C   :   -0.000002620   -0.005538956    0.056859644
   2   H   :    0.000000086   -0.000606872   -0.009640754
   3   H   :   -0.001929641    0.000168734   -0.005416085
   4   H   :    0.001930173    0.000166138   -0.005417756
   5   I   :    0.000000044    0.000421808   -0.017305029
   6   F   :    0.000001959    0.005389148   -0.019080020

Difference to translation invariance:
           :    0.0000000000    0.0000000000    0.0000000000

Difference to rotation invariance:
           :   -0.0000519614   -0.0000002790   -0.0000004492

Norm of the Cartesian gradient     ...    0.0641555522
RMS gradient                       ...    0.0151216087
MAX gradient                       ...    0.0568596442

-------
TIMINGS
-------

Total SCF gradient time     ....        1.595 sec

Densities                   ....       0.000 sec  (  0.0%)
One electron gradient       ....       0.009 sec  (  0.5%)
RI-J Coulomb gradient       ....       0.719 sec  ( 45.1%)
XC gradient                 ....       0.390 sec  ( 24.4%)

Maximum memory used throughout the entire SCFGRAD-calculation: 26.8 MB
------------------------------------------------------------------------------
                         ORCA GEOMETRY RELAXATION STEP
------------------------------------------------------------------------------

Reading the OPT-File                    .... done
Getting information on internals        .... done
Copying old internal coords+grads       .... done
Making the new internal coordinates     .... (2022 redundants) done
Validating the new internal coordinates .... (2022 redundants) done
Calculating the B-matrix                .... done
Calculating the G,G- and P matrices     .... done
Transforming gradient to internals      .... done
Projecting the internal gradient        .... done
Number of atoms                         ....   6
Number of internal coordinates          ....  18
Current Energy                          ....  -437.546182389 Eh
Current gradient norm                   ....     0.064155552 Eh/bohr
Maximum allowed component of the step   ....  0.300
Current trust radius                    ....  0.300
Updating the Hessian (BFGS)             .... done
Forming the augmented Hessian           .... done
Diagonalizing the augmented Hessian     .... done
Last element of RFO vector              ....  0.810643809
Lowest eigenvalues of augmented Hessian:
 -0.020511460  0.017498973  0.050731231  0.055889918  0.063247118
Length of the computed step             ....  0.722314271
Warning: the length of the step is outside the trust region - taking restricted step instead
The input lambda is                     ....     0.008094
   iter:   5  x=    0.001412  g= 5076.160908 f(x)=    13.152156
[...]



--------------------
Rotational spectrum 
--------------------
 
Rotational constants in cm-1:             5.234977             0.031171             0.031171 
Rotational constants in MHz :        156940.661523           934.496807           934.494113 

Dipole components along the rotational axes: 
x,y,z [a.u.] :    -0.551272    -0.007001     0.000000 
x,y,z [Debye]:    -1.401222    -0.017796     0.000001 

 

Dipole moment calculation done in   0.0 sec 

-----------
SCF HESSIAN
-----------

Occupied/Occupied contributions to the Hessian:
   => Occupied/Occupied contributions              ... done (  0.0 sec)
Perturbed density contributions to the Hessian:
   => Perturbed density contributions              ... done (  0.0 sec)
Explicit contributions to the Hessian:
   => Nuclear repulsion Hessian                    ... done (  0.0 sec)
   => HCore and overlap Hessian                    ... done (  0.1 sec)
   => ECP Hessian                                  ... done (  1.3 sec)
   => RI-J Hessian                                 ... done (  1.8 sec)
   => XC-Hessian                                   ... done (  2.2 sec)
   => Van der Waals-Hessian                        ... done (  0.4 sec)
   => GCP-Hessian                                  ... done (  0.1 sec)
   => Explicit contributions done
Dipole derivatives                                 ... done (  0.0 sec)
Mass weighting the Hessian           ... done
Calculating normal modes             ... done
Scaling frequencies                  ... done

-----------------------
VIBRATIONAL FREQUENCIES
-----------------------

Scaling factor for frequencies =  1.000000000  (already applied!)

     0:       0.00 cm**-1
     1:       0.00 cm**-1
     2:       0.00 cm**-1
     3:       0.00 cm**-1
     4:       0.00 cm**-1
     5:       0.00 cm**-1
     6:      74.73 cm**-1
     7:      85.27 cm**-1
     8:      85.34 cm**-1
     9:     951.41 cm**-1
    10:    1148.53 cm**-1
    11:    1149.31 cm**-1
    12:    1433.35 cm**-1
    13:    1472.22 cm**-1
    14:    1472.43 cm**-1
    15:    3038.48 cm**-1
    16:    3149.52 cm**-1
    17:    3150.21 cm**-1


------------
NORMAL MODES
------------

These modes are the Cartesian displacements weighted by the diagonal matrix
M(i,i)=1/sqrt(m[i]) where m[i] is the mass of the displaced atom
Thus, these vectors are normalized but *not* orthogonal

                  0          1          2          3          4          5    
      0       0.000000   0.000000   0.000000   0.000000   0.000000   0.000000
      1       0.000000   0.000000   0.000000   0.000000   0.000000   0.000000
      2       0.000000   0.000000   0.000000   0.000000   0.000000   0.000000
      3       0.000000   0.000000   0.000000   0.000000   0.000000   0.000000
      4       0.000000   0.000000   0.000000   0.000000   0.000000   0.000000
      5       0.000000   0.000000   0.000000   0.000000   0.000000   0.000000
      6       0.000000   0.000000   0.000000   0.000000   0.000000   0.000000
      7       0.000000   0.000000   0.000000   0.000000   0.000000   0.000000
      8       0.000000   0.000000   0.000000   0.000000   0.000000   0.000000
      9       0.000000   0.000000   0.000000   0.000000   0.000000   0.000000
     10       0.000000   0.000000   0.000000   0.000000   0.000000   0.000000
     11       0.000000   0.000000   0.000000   0.000000   0.000000   0.000000
     12       0.000000   0.000000   0.000000   0.000000   0.000000   0.000000
     13       0.000000   0.000000   0.000000   0.000000   0.000000   0.000000
     14       0.000000   0.000000   0.000000   0.000000   0.000000   0.000000
     15       0.000000   0.000000   0.000000   0.000000   0.000000   0.000000
     16       0.000000   0.000000   0.000000   0.000000   0.000000   0.000000
     17       0.000000   0.000000   0.000000   0.000000   0.000000   0.000000
                  6          7          8          9         10         11    
      0       0.000014   0.327776  -0.005074   0.000001  -0.000204   0.130045
      1       0.052097  -0.005037  -0.327401  -0.002495  -0.130192  -0.000204
      2       0.440700   0.000333   0.022029   0.646072  -0.000285  -0.000001
      3       0.000019   0.475869  -0.007367   0.000055   0.000307  -0.249078
      4       0.071924  -0.007176  -0.466065   0.072266   0.124543   0.000273
      5       0.380748   0.006055   0.410276   0.342724  -0.759222  -0.000697
      6      -0.001711   0.448009  -0.000722   0.063710   0.055910  -0.153262
      7       0.071450  -0.034607  -0.452294  -0.038700   0.215924  -0.057415
      8       0.468786  -0.339267  -0.167709   0.339359   0.379497   0.657871
      9       0.001749   0.447867  -0.013148  -0.063751  -0.055343  -0.153306
     10       0.071446   0.020684  -0.453121  -0.038625   0.215884   0.058014
     11       0.468743   0.334184  -0.177704   0.339372   0.380712  -0.657161
     12      -0.000002  -0.013473   0.000209   0.000000   0.000000  -0.000059
     13      -0.002852   0.000207   0.013424   0.000017   0.000062   0.000000
     14      -0.117240  -0.000094  -0.006178   0.000708   0.000009  -0.000000
     15      -0.000002  -0.190012   0.002942  -0.000002   0.000082  -0.052342
     16      -0.025282   0.002924   0.190091   0.001732   0.052379   0.000082
     17       0.434556   0.000364   0.023897  -0.467385   0.000065  -0.000000
                 12         13         14         15         16         17    
      0       0.000003   0.064632   0.000214   0.000001  -0.096159  -0.000473
      1      -0.000376  -0.000214   0.064535  -0.001294   0.000473  -0.096190
      2      -0.095287   0.000007  -0.000713   0.040657   0.000006  -0.000950
      3      -0.000171  -0.743550  -0.001900  -0.000347  -0.023347   0.000398
      4      -0.201879   0.000118   0.138011  -0.540592  -0.003331   0.779413
      5       0.541146   0.000765  -0.297832  -0.172235  -0.001087   0.253404
      6      -0.167077  -0.081100  -0.384341  -0.480326   0.575619  -0.336393
      7       0.102921  -0.379125  -0.522816   0.278259  -0.347130   0.171916
      8       0.538332  -0.264861   0.154828  -0.173462   0.213659  -0.120027
      9       0.167209  -0.082682   0.383241   0.480662   0.573168   0.341531
     10       0.102756   0.382005  -0.521274   0.277636   0.344923   0.174449
     11       0.538367   0.263973   0.156229  -0.173465  -0.212638  -0.121858
     12      -0.000000   0.000078   0.000000   0.000000   0.000017   0.000000
     13      -0.000002  -0.000000   0.000075   0.000001  -0.000000   0.000016
     14       0.000018  -0.000000   0.000001   0.000030   0.000000  -0.000003
     15       0.000000   0.006761   0.000022   0.000000   0.000969   0.000005
     16       0.000049  -0.000022   0.006776  -0.000003  -0.000005   0.000975
     17      -0.025716   0.000002  -0.000258   0.001642  -0.000000   0.000007


-----------
IR SPECTRUM
-----------

 Mode   freq       eps      Int      T**2         TX        TY        TZ
       cm**-1   L/(mol*cm) km/mol    a.u.
----------------------------------------------------------------------------
  6:     74.73   0.000542    2.74  0.002261  ( 0.000002  0.006490  0.047110)
  7:     85.27   0.001155    5.84  0.004227  ( 0.065005 -0.000996  0.000047)
  8:     85.34   0.001141    5.77  0.004173  (-0.001003 -0.064505  0.003308)
  9:    951.41   0.048016  242.65  0.015749  ( 0.000001 -0.000029  0.125496)
 10:   1148.53   0.000252    1.27  0.000068  (-0.000013 -0.008253 -0.000523)
 11:   1149.31   0.000254    1.29  0.000069  ( 0.008311 -0.000013  0.000001)
 12:   1433.35   0.000330    1.67  0.000072  (-0.000001  0.000409  0.008469)
 13:   1472.22   0.001365    6.90  0.000289  (-0.017012  0.000057  0.000003)
 14:   1472.43   0.001404    7.09  0.000297  (-0.000056 -0.017241 -0.000449)
 15:   3038.48   0.005249   26.53  0.000539  ( 0.000000 -0.000511  0.023213)
 16:   3149.52   0.002245   11.35  0.000222  (-0.014916  0.000073  0.000001)
 17:   3150.21   0.002200   11.12  0.000218  (-0.000072 -0.014760 -0.000202)

* The epsilon (eps) is given for a Dirac delta lineshape.
** The dipole moment derivative (T) already includes vibrational overlap.

The first frequency considered to be a vibration is 6
The total number of vibrations considered is 12


--------------------------
THERMOCHEMISTRY AT 298.15K
--------------------------

Temperature         ...   298.15 K
Pressure            ...     1.00 atm
Total Mass          ...   160.93 AMU
Quasi RRHO          ...     True
Cut-Off Frequency   ...     1.00 cm^-1

Throughout the following assumptions are being made:
  (1) The electronic state is orbitally nondegenerate
  (2) There are no thermally accessible electronically excited states
  (3) Hindered rotations indicated by low frequency modes are not
      treated as such but are treated as vibrations and this may
      cause some error
  (4) All equations used are the standard statistical mechanics
      equations for an ideal gas
  (5) All vibrations are strictly harmonic

freq.      74.73  E(vib)   ...       0.49 
freq.      85.27  E(vib)   ...       0.48 
freq.      85.34  E(vib)   ...       0.48 
freq.     951.41  E(vib)   ...       0.03 
freq.    1148.53  E(vib)   ...       0.01 
freq.    1149.31  E(vib)   ...       0.01 
freq.    1433.35  E(vib)   ...       0.00 
freq.    1472.22  E(vib)   ...       0.00 
freq.    1472.43  E(vib)   ...       0.00 
freq.    3038.48  E(vib)   ...       0.00 
freq.    3149.52  E(vib)   ...       0.00 
freq.    3150.21  E(vib)   ...       0.00 

------------
INNER ENERGY
------------

The inner energy is: U= E(el) + E(ZPE) + E(vib) + E(rot) + E(trans)
    E(el)   - is the total energy from the electronic structure calculation
              = E(kin-el) + E(nuc-el) + E(el-el) + E(nuc-nuc)
    E(ZPE)  - the the zero temperature vibrational energy from the frequency calculation
    E(vib)  - the the finite temperature correction to E(ZPE) due to population
              of excited vibrational states
    E(rot)  - is the rotational thermal energy
    E(trans)- is the translational thermal energy

Summary of contributions to the inner energy U:
Electronic energy                ...   -437.56531475 Eh
Zero point energy                ...      0.03920911 Eh      24.60 kcal/mol
Thermal vibrational correction   ...      0.00241353 Eh       1.51 kcal/mol
Thermal rotational correction    ...      0.00141627 Eh       0.89 kcal/mol
Thermal translational correction ...      0.00141627 Eh       0.89 kcal/mol
-----------------------------------------------------------------------
Total thermal energy                   -437.52085957 Eh


Summary of corrections to the electronic energy:
(perhaps to be used in another calculation)
Total thermal correction                  0.00524607 Eh       3.29 kcal/mol
Non-thermal (ZPE) correction              0.03920911 Eh      24.60 kcal/mol
-----------------------------------------------------------------------
Total correction                          0.04445518 Eh      27.90 kcal/mol


--------
ENTHALPY
--------

The enthalpy is H = U + kB*T
                kB is Boltzmann's constant
Total thermal energy              ...   -437.52085957 Eh 
Thermal Enthalpy correction       ...      0.00094421 Eh       0.59 kcal/mol
-----------------------------------------------------------------------
Total Enthalpy                    ...   -437.51991536 Eh


Note: Rotational entropy computed according to Herzberg 
Infrared and Raman Spectra, Chapter V,1, Van Nostrand Reinhold, 1945 
Point Group:  Cs, Symmetry Number:   1  
Rotational constants in cm-1:     5.234982     0.031171     0.031171 

Vibrational entropy computed according to the QRRHO of S. Grimme
Chem.Eur.J. 2012 18 9955 using a reference frequency of 100.0 cm-1


-------
ENTROPY
-------

The entropy contributions are T*S = T*(S(el)+S(vib)+S(rot)+S(trans))
     S(el)   - electronic entropy
     S(vib)  - vibrational entropy
     S(rot)  - rotational entropy
     S(trans)- translational entropy
The entropies will be listed as multiplied by the temperature to get
units of energy

Electronic entropy                ...      0.00000000 Eh      0.00 kcal/mol
Vibrational entropy               ...      0.00482615 Eh      3.03 kcal/mol
Rotational entropy                ...      0.01200399 Eh      7.53 kcal/mol
Translational entropy             ...      0.01954513 Eh     12.26 kcal/mol
-----------------------------------------------------------------------
Final entropy term                ...      0.03637527 Eh     22.83 kcal/mol

In case the symmetry of your molecule has not been determined correctly
or in case you have a reason to use a different symmetry number we print 
out the resulting rotational entropy values for sn=1,12:

 non-linear molecules -----------------------------------
|  sn= 1 | S(rot)=       0.01200399 Eh      7.53 kcal/mol|
|  sn= 2 | S(rot)=       0.01134953 Eh      7.12 kcal/mol|
|  sn= 3 | S(rot)=       0.01096670 Eh      6.88 kcal/mol|
|  sn= 4 | S(rot)=       0.01069507 Eh      6.71 kcal/mol|
|  sn= 5 | S(rot)=       0.01048439 Eh      6.58 kcal/mol|
|  sn= 6 | S(rot)=       0.01031224 Eh      6.47 kcal/mol|
|  sn= 7 | S(rot)=       0.01016670 Eh      6.38 kcal/mol|
|  sn= 8 | S(rot)=       0.01004062 Eh      6.30 kcal/mol|
|  sn= 9 | S(rot)=       0.00992941 Eh      6.23 kcal/mol|
|  sn=10 | S(rot)=       0.00982993 Eh      6.17 kcal/mol|
|  sn=11 | S(rot)=       0.00973994 Eh      6.11 kcal/mol|
|  sn=12 | S(rot)=       0.00965779 Eh      6.06 kcal/mol|
 linear molecules ---------------------------------------
|  Dinfh | S(rot)=       0.00860047 Eh      5.40 kcal/mol|
|  Cinfv | S(rot)=       0.00925492 Eh      5.81 kcal/mol|
 --------------------------------------------------------


-------------------
GIBBS FREE ENERGY
-------------------

The Gibbs free energy is G = H - T*S

Total enthalpy                    ...   -437.51991536 Eh 
Total entropy correction          ...     -0.03637527 Eh    -22.83 kcal/mol
-----------------------------------------------------------------------
Final Gibbs free energy         ...   -437.55629063 Eh

For completeness - the Gibbs free energy minus the electronic energy
G-E(el)                           ...      0.00902411 Eh      5.66 kcal/mol


Maximum memory used throughout the entire PROP-calculation: 27.7 MB

--------------------------------
SUGGESTED CITATIONS FOR THIS RUN
--------------------------------

Below you find a list of papers that are relevant to this ORCA run
We neither can nor want to force you to cite these papers, but we appreciate if you do
You receive ORCA, which is the product of decades of hard work by many enthusiastic individuals, for free
The only thing we kindly ask in return is that you cite our papers,
We deeply appreciate it, if you show your appreciation for ORCA by not just citing the generic ORCA reference.

Please note that relegating all ORCA citations to the supporting information does *not* help us.
SI sections are not indexed - citations you put there will not count into any citation statistics
But we need these citations in order to attract the funding resources that allow us to do what we are doing

Therefore, if you are a happy ORCA user, please consider citing a few of the papers listed below in the main body of your paper

In addition to the list printed below, the program has created the file product_optfreq.bibtex that contains the list in bibtex format
You can import this file easily into all common literature databanks and citation aid programs


List of essential papers. We consider these as the minimum necessary citations

  1. Grimme, S.; Hansen, A.; Ehlert, S.; Mewes, J.
     r2SCAN-3c: A 'Swiss army knife' composite electronic-structure method
     J. Chem. Phys. 2021 154 , 064103
     doi.org/10.1063/5.0040021
  2. Neese, F.
     Software update: the ORCA program system, version 6.0
     WIRES Comput. Molec. Sci. 2025 15(1), e70019
     doi.org/10.1002/wcms.7019

List of papers to cite with high priority. The work reported in these papers was absolutely
necessary for this run to complete.
Our perspective: the developers of density functionals and basis sets usually get cited in chemistry papers
Good! But without the algorithms to do something with them, the functionals or basis sets would not do anything.
Hence, in our opinion, the algorithm design and method developments papers are equally worthy of getting cited

  1. Neese, F.
     An improvement of the resolution of the identity approximation for the formation of the Coulomb matrix
     J. Comp. Chem. 2003 24(14), 1740-1747
     doi.org/10.1002/jcc.10318
  2. Bykov, D.; Petrenko, T.; Izsak, R.; Kossmann, S.; Becker, U.; Valeev, E.; Neese, F.
     Efficient implementation of the analytic second derivatives of Hartree-Fock and hybrid DFT energies: a detailed analysis of different approximations
     Molec. Phys. 2015 113 , 1961-1977
     doi.org/10.1080/00268976.2015.1025114
  3. Caldeweyher, E.; Bannwarth, C.; Grimme, S.
     Extension of the D3 dispersion coefficient model
     J. Chem. Phys. 2017 147 , 034112
     doi.org/10.1063/1.4993215
  4. Lehtola, S.; Steigemann, C.; Oliveira, M.; Marques, M.
     Recent developments in Libxc - A comprehensive library of functionals for density functional theory
     Software X 2018 7 , 
     doi.org/10.1016/j.softx.2017.11.002
  5. Caldeweyher, E.; Ehlert, S.; Hansen, A.; Neugebauer, H.; Spicher, S.; Bannwarth, C.; Grimme, S.
     A generally applicable atomic-charge dependent London dispersion correction
     J. Chem. Phys. 2019 150 , 154122
     doi.org/10.1063/1.5090222
  6. Caldeweyher, E.; Mewes, J.; Ehlert, S.; Grimme, S.
     Extension and evaluation of the D4 London-dispersion model for periodic systems
     Phys. Chem. Chem. Phys. 2020 22(16), 8499-8512
     doi.org/10.1039/D0CP00502A
  7. Neese, F.
     The SHARK Integral Generation and Digestion System
     J. Comp. Chem. 2022 44(3), 381
     doi.org/10.1002/jcc.26942
  8. Wittmann, L.; Gordiy, I.; Friede, M.; Helmich-Paris, B.; Grimme, S.; Hansen, A.; Bursch, M.
     Extension of the D3 and D4 London Dispersion Corrections to the full Actinides Series
     Phys. Chem. Chem. Phys. 2024 26(32), 21379-21394
     doi.org/10.1039/D4CP01514B

List of suggested additional citations. These are papers that are important in the 'surrounding' of 
of this run, or papers that preceded the highly important papers. If you like your results we are grateful for a citation.

  1. Neese, F.
     The ORCA program system
     WIRES Comput. Molec. Sci. 2012 2(1), 73-78
     doi.org/10.1002/wcms.81
  2. Neese, F.
     Software update: the ORCA program system, version 4.0
     WIRES Comput. Molec. Sci. 2018 8(1), 1-6
     doi.org/10.1002/wcms.1327
  3. Neese, F.; Wennmohs, F.; Becker, U.; Riplinger, C.
     The ORCA quantum chemistry program package
     J. Chem. Phys. 2020 152(22), 224108
     doi.org/10.1063/5.0004608
  4. Neese, F.
     Software update: The ORCA program system—Version 5.0
     WIRES Comput. Molec. Sci. 2022 12(1), e1606
     doi.org/10.1002/wcms.1606

List of optional additional citations

  1. Neese, F.
     Approximate second-order SCF convergence for spin unrestricted wavefunctions
     Chem. Phys. Lett. 2000 325(1-3), 93-98
     doi.org/10.1016/s0009-2614(00)00662-x

Timings for individual modules:

Sum of individual times          ...      164.719 sec (=   2.745 min)
Startup calculation              ...       24.028 sec (=   0.400 min)  14.6 %
SCF iterations                   ...       73.456 sec (=   1.224 min)  44.6 %
Property integrals               ...       23.837 sec (=   0.397 min)  14.5 %
SCF Response                     ...        4.002 sec (=   0.067 min)   2.4 %
Property calculations            ...        6.506 sec (=   0.108 min)   3.9 %
SCF Gradient evaluation          ...       32.854 sec (=   0.548 min)  19.9 %
Geometry relaxation              ...        0.038 sec (=   0.001 min)   0.0 %
                             ****ORCA TERMINATED NORMALLY****
TOTAL RUN TIME: 0 days 0 hours 2 minutes 55 seconds 724 msec
