
                                 *****************
                                 * O   R   C   A *
                                 *****************

                                            #,                                       
                                            ###                                      
                                            ####                                     
                                            #####                                    
                                            ######                                   
                                           ########,                                 
                                     ,,################,,,,,                         
                               ,,#################################,,                 
                          ,,##########################################,,             
                       ,#########################################, ''#####,          
                    ,#############################################,,   '####,        
                  ,##################################################,,,,####,       
                ,###########''''           ''''###############################       
              ,#####''   ,,,,##########,,,,          '''####'''          '####       
            ,##' ,,,,###########################,,,                        '##       
           ' ,,###''''                  '''############,,,                           
         ,,##''                                '''############,,,,        ,,,,,,###''
      ,#''                                            '''#######################'''  
     '                                                          ''''####''''         
             ,#######,   #######,   ,#######,      ##                                
            ,#'     '#,  ##    ##  ,#'     '#,    #''#        ,####,    ,#,          
            ##       ##  ##   ,#'  ##            #'  '#       #'       ,# #          
            ##       ##  #######   ##           ,######,      #####,      #          
            '#,     ,#'  ##    ##  '#,     ,#' ,#      #,     #,   #      #          
             '#######'   ##     ##  '#######'  #'      '#     '####' #    #          



                #########################################################
                #                        -***-                          #
                #          Department of theory and spectroscopy        #
                #                                                       #
                #                      Frank Neese                      #
                #                                                       #
                #     Directorship, Architecture, Infrastructure        #
                #                    SHARK, DRIVERS                     #
                #        Core code/Algorithms in most modules           #
                #                                                       #
                #        Max Planck Institute fuer Kohlenforschung      #
                #                Kaiser Wilhelm Platz 1                 #
                #                 D-45470 Muelheim/Ruhr                 #
                #                      Germany                          #
                #                                                       #
                #                  All rights reserved                  #
                #                        -***-                          #
                #########################################################


                         Program Version 6.1.0  -  RELEASE   -
                                (GIT: $679e74b$)
                          ($2025-06-10 18:02:51 +0200$)


 With contributions from (in alphabetic order):
[Max-Planck-Institut fuer Kohlenforschung]                               
  Daniel Aravena         : Magnetic Suceptibility                        
  Michael Atanasov       : Ab Initio Ligand Field Theory (pilot matlab implementation)
  Alexander A. Auer      : GIAO ZORA, VPT2 properties, NMR spectrum      
  Ute Becker             : All parallelization in ORCA, NUMFREQ, NUMCALC 
  Giovanni Bistoni       : ED, misc. LED, open-shell LED, HFLD           
  Dmytro Bykov           : pre 5.0 version of the SCF Hessian            
  Marcos Casanova-Páez   : Triplet and SCS-CIS(D). UHF-(DLPNO)-IP/EA/STEOM-CCSD. UHF-CVS-IP/STEOM-CCSD   
  Vijay G. Chilkuri      : MRCI spin determinant printing, contributions to CSF-ICE 
  Pauline Colinet        : FMM embedding                                 
  Dipayan Datta          : RHF DLPNO-CCSD density                        
  Achintya Kumar Dutta   : EOM-CC, STEOM-CC                              
  Nicolas Foglia         : Exact transition moments, OPA infrastructure, MCD improvements    
  Dmitry Ganyushin       : Spin-Orbit,Spin-Spin,Magnetic field MRCI      
  Miquel Garcia-Rates    : C-PCM and meta-GGA Hessian, CCSD/C-PCM, Gaussian charge scheme 
  Tiago L. C. Gouveia    : GS-ROHF, GS-ROCIS                             
  Yang Guo               : DLPNO-NEVPT2, F12-NEVPT2, CIM, IAO-localization        
  Andreas Hansen         : Spin unrestricted coupled pair/coupled cluster methods 
  Ingolf Harden          : AUTO-CI MPn and infrastructure                
  Benjamin Helmich-Paris : MC-RPA, TRAH-(SCF,CASSCF), AVAS, COSX integrals, SCF dyn. polar., MC-PDFT, srDFT 
  Lee Huntington         : MR-EOM, pCC                                   
  Robert Izsak           : Overlap fitted RIJCOSX, COSX-SCS-MP3, EOM     
  Riya Kayal             : Wick's Theorem for AUTO-CI, AUTO-CI UHF-CCSDT 
  Emily Kempfer          : AUTO-CI RHF CISDT and CCSDT, approximate NEVPT4
  Christian Kollmar      : KDIIS, OOCD, Brueckner-CCSD(T), CCSD density, CASPT2, CASPT2-K, improved NEVPT2 
  Axel Koslowski         : Symmetry handling                             
  Simone Kossmann        : meta-GGA functionals, TD-DFT gradient, OOMP2, (MP2 Hessian; deprecated post 5.0) 
  Lucas Lang             : DCDCAS, Hyperfine gauge corrections, ICE-SOC+SSC
  Marvin Lechner         : AUTO-CI (C++ implementation), FIC-MRCC        
  Spencer Leger          : CASSCF response                               
  Dagmar Lenk            : GEPOL surface, SMD, ORCA-2-JSON               
  Dimitrios Liakos       : Extrapolation schemes; Compound Job, Property file
  Dimitrios Manganas     : Further ROCIS development; embedding schemes. LFT, Crystal Embedding 
  Dimitrios Pantazis     : SARC Basis sets                               
  Anastasios Papadopoulos: AUTO-CI, single reference methods and gradients 
  Taras Petrenko         : pre 6.0 DFT Hessian and TD-DFT gradient,  ECA, NRVS 
  Petra Pikulova         : Analytic Raman intensities                    
  Peter Pinski           : DLPNO-MP2, DLPNO-MP2 Gradient                 
  Shashank Vittal Rao    : ES-AILFT, MagRelax                            
  Christoph Reimann      : Effective Core Potentials                     
  Marius Retegan         : Local ZFS, SOC                                
  Christoph Riplinger    : Optimizer, TS searches, QM/MM, DLPNO-CCSD(T), (RO)-DLPNO pert. Triples 
  Michael Roemelt        : Original ROCIS implementation, recursive CI coupling coefficients
  Masaaki Saitow         : Open-shell DLPNO-CCSD energy and density      
  Barbara Sandhoefer     : DKH picture change effects                    
  Yorick L. A. Schmerwitz: GMF and freeze-and-release deltaSCF, NEB S-IDPP initial path                    
  Kantharuban Sivalingam : CASSCF convergence/infrastructure, NEVPT2, NEVPT3, NEVPT4(SD), FIC-MRCI and CEPA variants
  Bernardo de Souza      : ESD, SOC TD-DFT                               
  Georgi L. Stoychev     : AutoAux, RI-MP2 NMR, DLPNO-MP2 response, X2C  
  Van Anh Tran           : RI-MP2 g-tensors                              
  Willem Van den Heuvel  : Paramagnetic NMR                              
  Zikuan Wang            : NOTCH, Electric field optimization            
  Frank Wennmohs         : Technical directorship and infrastructure     
  Hang Xu                : AUTO-CI-Response properties                   
                                                                         
[FACCTs GmbH]                                                            
  Markus Bursch, Nicolas Foglia, Miquel Garcia-Rates, Ingolf Harden, Hagen Neugebauer, Anastasios Papadopoulos, 
  Christoph Riplinger, Bernardo de Souza, Georgi L. Stoychev                                                    
                                                                 
  APM, various basis sets, CI-OPT, improved COSX, DLPNO-Multilevel,           
  DOCKER, DRACO, updates on ESD, Fragmentator, GOAT, IRC, LR-CPCM, L-BFGS, MBIS, meta-GGA TD-DFT gradient, ML-optimized integration grids, 
  MM, NACMEs, nearIR, NEB, NEB-TS, NL-DFT gradient (VV10), 2- and 3-layer-ONIOM, interface openCOSMO-RS, QMMM,   
  Crystal-QMMM, RESP, rigid body optimization, SF, symmetry and pop. for TD-DFT, various functionals, SOLVATOR                                   
                                                                         
[Other institutions]                                                     
  V. Asgeirsson          : NEB                                           
  Christoph Bannwarth    : sTDA-DFT, sTD-DFT, PBEh-3c, B97-3c, D3        
  Giovanni Bistoni       : ETS/NOCV, ADLD/ADEX, COVALED                  
  Martin Brehm           : Molecular dynamics                            
  Ronald Cardenas        : ETS/NOCV                                      
  Martina Colucci        : COVALED                                       
  Sebastian Ehlert       : rSCAN, r2SCAN, r2SCAN-3c, D4, dhf basis sets  
  Marvin Friede          : D4 for Fr, Ra, Ac-Lr                          
  Lars Goerigk           : TD-DFT with DH, B97 family of functionals     
  Stefan Grimme          : VdW corrections, initial TS optimization, DFT functionals, gCP, sTDA/sTD-DF 
  Waldemar Hujo          : DFT-NL                                        
  H. Jonsson             : NEB                                           
  Holger Kruse           : gCP                                           
  Marcel Mueller         : wB97X-3c, vDZP basis set                      
  Hagen Neugebauer       : wr2SCAN, Native XTB                           
  Gianluca Regni         : ADLD/ADEX                                     
  Tobias Risthaus        : pre 6.0 range-separated hybrid DFT and stability analysis
  Lukas Wittmann         : regularized MP2, r2SCAN double-hybrids, wr2SCAN        
                                                                         
We gratefully acknowledge several colleagues who have allowed us to      
interface, adapt or use parts of their codes:                            
  Ed Valeev, F. Pavosevic, A. Kumar             : LibInt (2-el integral package), F12 methods 
  Garnet Chan, S. Sharma, J. Yang, R. Olivares  : DMRG                   
  Ulf Ekstrom                                   : XCFun DFT Library      
  Mihaly Kallay                                 : mrcc  (arbitrary order and MRCC methods)
  Frank Weinhold                                : gennbo (NPA and NBO analysis)           
  Simon Mueller                                 : openCOSMO-RS                            
  Christopher J. Cramer and Donald G. Truhlar   : smd solvation model                     
  S Lehtola, MJT Oliveira, MAL Marques          : LibXC Library                           
  Liviu Ungur et al                             : ANISO software                          


 Your calculation uses the libint2 library for the computation of 2-el integrals
 For citations please refer to: http://libint.valeyev.net

 Your ORCA version has been built with support for libXC version: 7.0.0
 For citations please refer to: https://libxc.gitlab.io

 This ORCA versions uses:
   CBLAS   interface :  Fast vector & matrix operations
   LAPACKE interface :  Fast linear algebra routines
   SCALAPACK package :  Parallel linear algebra routines
   Shared memory     :  Shared parallel matrices
   BLAS/LAPACK       :  OpenBLAS 0.3.29  USE64BITINT DYNAMIC_ARCH NO_AFFINITY SkylakeX SINGLE_THREADED
        Core in use  :  SkylakeX
   Copyright (c) 2011-2014, The OpenBLAS Project


  ***********************************
  * Starting time: Thu Mar 12 13:34:27 2026
  * Host name:     midway3-login4.rcc.local
  * Process ID:    3117824
  * Working dir.:  /home/rzhu16/orca_TS_search/sn2_i_f/DFT_test
  ***********************************

Your calculation utilizes the geometrical counterpoise correction gCP
Please cite in your paper:
H.Kruse, S. Grimme J.Chem.Phys., 136, (2012), 154101 
   

Your calculation utilizes the atom-pairwise dispersion correction
based on EEQ partial charges (D4)


================================================================================

cite the ECPs for I  [Def2-ECP] as follows:
Ce-Yb(ecp-28): M. Dolg, H. Stoll, H.Preuss, J. Chem. Phys., 1989, 90, 1730-1734.
Y-Cd(ecp-28), Hf-Hg(ecp-46): D. Andrae,U. Haeussermann, M. Dolg, H. Stoll, H. Preuss, Theor. Chim. Acta, 1990, 77, 123-141.
In-Sb(ecp-28), Tl-Bi(ecp-46): B. Metz, H. Stoll, M. Dolg, J. Chem. Phys., 2000, 113, 2563-2569.
Te-Xe(ecp-28), Po-Rn(ecp-46): K. A. Peterson, D. Figgen, E. Goll, H. Stoll, M. Dolg, J. Chem. Phys., 2003, 119, 11113-11123.
Rb(ecp-28), Cs(ecp-46): T. Leininger, A. Nicklass, W. Kuechle, H. Stoll, M. Dolg, A. Bergner, Chem. Phys. Lett., 1996, 255, 274-280.
Sr(ecp-28), Ba(ecp-46): M. Kaupp, P. V. Schleyer, H. Stoll and H. Preuss, J. Chem. Phys., 1991, 94, 1360-1366.
La(ecp-46): M. Dolg, H. Stoll, A. Savin, H. Preuss, Theor. Chim. Acta, 1989, 75, 173-194.
Lu(ecp-28): X. Cao, M. Dolg, J. Chem. Phys., 2001, 115, 7348-7355.
Fr-Ra(ecp-78) K. Eichkorn, F. Weigend, O. Treutler, R. Ahlrichs, Theor. Chem. Acc. 1997, 97, 119.
Ac-Lr(ecp-60) K. Eichkorn, F. Weigend, O. Treutler, R. Ahlrichs, Theor. Chem. Acc. 1997, 97, 119.

ECP parameters for I  [Def2-ECP] have been obtained from:
TURBOMOLE (7.0.2)

----- Orbital basis set information -----
Your calculation utilizes the basis: def2-mTZVPP
   Stefan Grimme, Andreas Hansen, Sebastian Ehlert, and Jan-Michael Mewes 
   J. Chem. Phys. 154, 064103 (2021). DOI: 10.1063/5.0040021

----- AuxJ basis set information -----
Your calculation utilizes the basis: def2-mTZVPP/J
   Stefan Grimme, Andreas Hansen, Sebastian Ehlert, and Jan-Michael Mewes 
   J. Chem. Phys. 154, 000000 (2021). DOI: 10.1063/5.0040021

================================================================================
                                        WARNINGS
                       Please study these warnings very carefully!
================================================================================



WARNING: SCAN, rSCAN, or r2SCAN functional requested.
  ===> : libXC variant has now been activated.



WARNING: Geometry Optimization
  ===> : Switching off AutoStart
         For restart on a previous wavefunction, please use MOREAD

================================================================================
                                       INPUT FILE
================================================================================
NAME = reactant_optfreq.inp
|  1> ! r2SCAN-3c Opt Freq PAL8 TightSCF
|  2> 
|  3> %pal
|  4>    nprocs 8
|  5> end
|  6> 
|  7> %scf
|  8>    MaxIter 150
|  9> end
| 10> 
| 11> * xyz -1 1
| 12>   C      -0.000288     -0.503826      0.274131
| 13>   H      -0.000009      0.207464     -0.583414
| 14>   H       0.886294     -1.129123      0.247883
| 15>   H      -0.887409     -1.128366      0.247975
| 16>   I       0.000217      0.429819      2.241736
| 17>   F       0.000375      0.786014     -2.147977
| 18> *
| 19> 
| 20>                          ****END OF INPUT****
================================================================================

                       *****************************
                       * Geometry Optimization Run *
                       *****************************

Geometry optimization settings:
Update method            Update   .... BFGS
Choice of coordinates    CoordSys .... (2022) Redundant Internals
Initial Hessian          InHess   .... Almloef's Model
Max. no of cycles        MaxIter  .... 50

Convergence Tolerances:
Energy Change            TolE     ....  5.0000e-06 Eh
Max. Gradient            TolMAXG  ....  3.0000e-04 Eh/bohr
RMS Gradient             TolRMSG  ....  1.0000e-04 Eh/bohr
Max. Displacement        TolMAXD  ....  4.0000e-03 bohr
RMS Displacement         TolRMSD  ....  2.0000e-03 bohr
Strict Convergence                .... False

------------------------------------------------------------------------------
                        ORCA OPTIMIZATION COORDINATE SETUP
------------------------------------------------------------------------------

The optimization will be done in redundant internal coordinates (2022)
Making redundant internal coordinates   ...  (2022 redundants) done
Evaluating the initial hessian          ...  (Almloef) done
Evaluating the coordinates              ...  done
Calculating the B-matrix                .... done
Calculating the G-matrix                .... done
The number of degrees of freedom        ....   15

    -----------------------------------------------------------------
                    Redundant Internal Coordinates


    -----------------------------------------------------------------
         Definition                    Initial Value    Approx d2E/dq
    -----------------------------------------------------------------
      1. B(H   1,C   0)                  1.1141         0.329536   
      2. B(H   2,C   0)                  1.0852         0.366473   
      3. B(H   3,C   0)                  1.0852         0.366470   
      4. B(I   4,C   0)                  2.1779         0.116204   
      5. B(F   5,H   1)                  1.6681         0.035836   
      6. A(H   1,C   0,H   3)          110.4297         0.287614   
      7. A(H   1,C   0,H   2)          110.4280         0.287615   
      8. A(H   1,C   0,I   4)          114.9413         0.281116   
      9. A(H   2,C   0,I   4)          105.5853         0.285792   
     10. A(H   3,C   0,I   4)          105.5854         0.285791   
     11. A(H   2,C   0,H   3)          109.6119         0.292448   
     12. A(C   0,H   1,F   5)          160.6196         0.204056   
     13. D(F   5,H   1,C   0,H   3)    -60.7174         0.098003   
     14. D(F   5,H   1,C   0,I   4)    179.9797         0.098003   
     15. D(F   5,H   1,C   0,H   2)     60.6783         0.098003   
    -----------------------------------------------------------------

Number of atoms                         .... 6
Number of degrees of freedom            .... 15


         *************************************************************
         *                GEOMETRY OPTIMIZATION CYCLE   1            *
         *************************************************************
---------------------------------
CARTESIAN COORDINATES (ANGSTROEM)
---------------------------------
  C     -0.000288   -0.503826    0.274131
  H     -0.000009    0.207464   -0.583414
  H      0.886294   -1.129123    0.247883
  H     -0.887409   -1.128366    0.247975
  I      0.000217    0.429819    2.241736
  F      0.000375    0.786014   -2.147977

----------------------------
CARTESIAN COORDINATES (A.U.)
----------------------------
  NO LB      ZA    FRAG     MASS         X           Y           Z
   0 C     6.0000    0    12.011   -0.000544   -0.952093    0.518033
   1 H     1.0000    0     1.008   -0.000017    0.392050   -1.102493
   2 H     1.0000    0     1.008    1.674853   -2.133733    0.468431
   3 H     1.0000    0     1.008   -1.676960   -2.132303    0.468605
   4 I    25.0000*   0   126.900    0.000410    0.812240    4.236267
   5 F     9.0000    0    18.998    0.000709    1.485351   -4.059088
* core charge reduced due to ECP

--------------------------------
INTERNAL COORDINATES (ANGSTROEM)
--------------------------------
 C      0   0   0     0.000000000000     0.00000000     0.00000000
 H      1   0   0     1.114144052161     0.00000000     0.00000000
 H      1   2   0     1.085224833128   110.42800980     0.00000000
 H      1   2   3     1.085227172797   110.42974937   238.60424566
 I      1   2   3     2.177880317436   114.94128317   119.30136982
 F      2   1   3     1.668106001106   160.61959440    60.67834598

---------------------------
INTERNAL COORDINATES (A.U.)
---------------------------
 C      0   0   0     0.000000000000     0.00000000     0.00000000
 H      1   0   0     2.105427132322     0.00000000     0.00000000
 H      1   2   0     2.050777728342   110.42800980     0.00000000
 H      1   2   3     2.050782149676   110.42974937   238.60424566
 I      1   2   3     4.115597352411   114.94128317   119.30136982
 F      2   1   3     3.152263504440   160.61959440    60.67834598

---------------------
BASIS SET INFORMATION
---------------------
There are 4 groups of distinct atoms

 Group   1 Type C   : 11s6p1d contracted to 5s3p1d pattern {62111/411/1}
 Group   2 Type H   : 4s1p contracted to 2s1p pattern {31/1}
 Group   3 Type I   : 11s10p8d contracted to 6s5p3d pattern {521111/34111/611}
 Group   4 Type F   : 11s6p2d contracted to 5s3p2d pattern {62111/411/11}

Atom   0C    basis set group =>   1
Atom   1H    basis set group =>   2
Atom   2H    basis set group =>   2
Atom   3H    basis set group =>   2
Atom   4I    basis set group =>   3
Atom   5F    basis set group =>   4
---------------------------------
AUXILIARY/J BASIS SET INFORMATION
---------------------------------
There are 4 groups of distinct atoms

 Group   1 Type C   : 8s3p3d contracted to 6s3p3d pattern {311111/111/111}
 Group   2 Type H   : 5s2p1d contracted to 3s1p1d pattern {311/2/1}
 Group   3 Type I   : 11s5p5d3f1g contracted to 8s4p3d2f1g pattern {41111111/2111/311/21/1}
 Group   4 Type F   : 8s3p4d contracted to 6s3p4d pattern {311111/111/1111}

Atom   0C    basis set group =>   1
Atom   1H    basis set group =>   2
Atom   2H    basis set group =>   2
Atom   3H    basis set group =>   2
Atom   4I    basis set group =>   3
Atom   5F    basis set group =>   4
-------------------------
ECP PARAMETER INFORMATION
-------------------------

 Group 1, Type I  ECP Def2-ECP (replacing 28 core electrons, lmax=3)

Atom   4I    ECP group =>   1



           ************************************************************
           *        Program running with 8 parallel MPI-processes     *
           *              working on a common directory               *
           ************************************************************
------------------------------------------------------------------------------
                             ORCA STARTUP CALCULATIONS
                           -- RI-GTO INTEGRALS CHOSEN --
------------------------------------------------------------------------------
------------------------------------------------------------------------------
                   ___                                                        
                  /   \      - P O W E R E D   B Y -                         
                 /     \                                                     
                 |  |  |   _    _      __       _____    __    __             
                 |  |  |  | |  | |    /  \     |  _  \  |  |  /  |          
                  \  \/   | |  | |   /    \    | | | |  |  | /  /          
                 / \  \   | |__| |  /  /\  \   | |_| |  |  |/  /          
                |  |  |   |  __  | /  /__\  \  |    /   |      \           
                |  |  |   | |  | | |   __   |  |    \   |  |\   \          
                \     /   | |  | | |  |  |  |  | |\  \  |  | \   \       
                 \___/    |_|  |_| |__|  |__|  |_| \__\ |__|  \__/        
                                                                              
                      - O R C A' S   B I G   F R I E N D -                    
                                      &                                       
                       - I N T E G R A L  F E E D E R -                       
                                                                              
 v1 FN, 2020, v2 2021, v3 2022-2024                                           
------------------------------------------------------------------------------


----------------------
SHARK INTEGRAL PACKAGE
----------------------

Number of atoms                             ...      6
Number of basis functions                   ...     94
Number of shells                            ...     42
Maximum angular momentum                    ...      2
Integral batch strategy                     ... SHARK/LIBINT Hybrid
RI-J (if used) integral strategy            ... SPLIT-RIJ (Revised 2003 algorithm where possible)
Printlevel                                  ...      1
Contraction scheme used                     ... SEGMENTED contraction
Prescreening option                         ... SCHWARTZ
   Thresh                                   ... 2.500e-11
   Tcut                                     ... 2.500e-12
   Tpresel                                  ... 2.500e-12 
Coulomb Range Separation                    ... NOT USED
Exchange Range Separation                   ... NOT USED
Multipole approximations                    ... NOT USED
Finite Nucleus Model                        ... NOT USED
CABS basis                                  ... NOT available
Auxiliary Coulomb fitting basis             ... AVAILABLE
   # of basis functions in Aux-J            ...    156
   # of shells in Aux-J                     ...     58
   Maximum angular momentum in Aux-J        ...      4
Auxiliary J/K fitting basis                 ... NOT available
Auxiliary Correlation fitting basis         ... NOT available
Auxiliary 'external' fitting basis          ... NOT available

Checking pre-screening integrals            ... done (  0.0 sec) Dimension = 42
   => SHARK Basis and OBASIS are compatible. Storing Pre-screening
Shell pair information
Shell pair cut-off parameter TPreSel        ...   2.5e-12
Total number of shell pairs                 ...       903
Shell pairs after pre-screening             ...       834
Total number of primitive shell pairs       ...      3409
Primitive shell pairs kept                  ...      2456
          la=0 lb=0:    226 shell pairs
          la=1 lb=0:    283 shell pairs
          la=1 lb=1:    102 shell pairs
          la=2 lb=0:    122 shell pairs
          la=2 lb=1:     81 shell pairs
          la=2 lb=2:     20 shell pairs

Checking whether 4 symmetric matrices of dimension 94 fit in memory
:Max Core in MB      =   4096.00
 MB in use           =      4.34
 MB left             =   4091.66
 MB needed           =      0.14
 Data fit in memory  = YES
Calculating RI/J V-Matrix + Cholesky decomp.... done (  0.0 sec)
Calculating Nuclear repulsion               ... done (  0.0 sec) ENN=    103.853948889387 Eh

Diagonalization of the overlap matrix:
Smallest eigenvalue                        ... 3.460e-03
Time for diagonalization                   ...    0.003 sec
Threshold for overlap eigenvalues          ... 1.000e-07
Number of eigenvalues below threshold      ... 0
Time for construction of square roots      ...    0.001 sec
Total time needed                          ...    0.005 sec

-------------------
DFT GRID GENERATION
-------------------

General Integration Accuracy     IntAcc      ... 4.388
Radial Grid Type                 RadialGrid  ... OptM3 with GC (2021)
Angular Grid (max. ang.)         AngularGrid ... 4 (Lebedev-302)
Angular grid pruning method      GridPruning ... 4 (adaptive)
Weight generation scheme         WeightScheme... mBecke (2022)
Basis function cutoff            BFCut       ... 1.0000e-11
Integration weight cutoff        WCut        ... 1.0000e-14
Partially contracted basis set               ... off
Rotationally invariant grid construction     ... off
Angular grids for H and He will be reduced by one unit

Total number of grid points                  ...    33635
Total number of batches                      ...      528
Average number of points per batch           ...       63
Average number of grid points per atom       ...     5606
Grids setup in   0.7 sec
Initializing property integral containers    ... done (  0.1 sec)

SHARK setup successfully completed in   1.0 seconds

Maximum memory used throughout the entire STARTUP-calculation: 12.4 MB


           ************************************************************
           *        Program running with 8 parallel MPI-processes     *
           *              working on a common directory               *
           ************************************************************
-------------------------------------------------------------------------------
                                 ORCA GUESS
                   Start orbitals & Density for SCF / CASSCF
-------------------------------------------------------------------------------

------------
SCF SETTINGS
------------
Hamiltonian:
 Density Functional     Method          .... DFT(GTOs)
  Functional kind                       .... Exchange
  Functional name                       .... Re-regularized SCAN exchange by Furness et al
  Functional family                     .... MGGA
  Functional refs                              
    [ 0] J. W. Furness, A. D. Kaplan, J. Ning, J. P. Perdew, and J. Sun.,  J. Phys. Chem. Lett. 11, 8208-8215 (2020), doi: 10.1021/acs.jpclett.0c02405
    [ 1] J. W. Furness, A. D. Kaplan, J. Ning, J. P. Perdew, and J. Sun.,  J. Phys. Chem. Lett. 11, 9248-9248 (2020), doi: 10.1021/acs.jpclett.0c03077
  Functional external parameters        .... 6
    Parameter  0 _c1        =  6.670000e-01 : c1 parameter        
    Parameter  1 _c2        =  8.000000e-01 : c2 parameter        
    Parameter  2 _d         =  1.240000e+00 : d parameter         
    Parameter  3 _k1        =  6.500000e-02 : k1 parameter        
    Parameter  4 _eta       =  1.000000e-03 : eta parameter       
    Parameter  5 _dp2       =  3.610000e-01 : dp2 parameter       
  Functional kind                       .... Correlation
  Functional name                       .... Re-regularized SCAN correlation by Furness et al
  Functional family                     .... MGGA
  Functional refs                              
    [ 0] J. W. Furness, A. D. Kaplan, J. Ning, J. P. Perdew, and J. Sun.,  J. Phys. Chem. Lett. 11, 8208-8215 (2020), doi: 10.1021/acs.jpclett.0c02405
    [ 1] J. W. Furness, A. D. Kaplan, J. Ning, J. P. Perdew, and J. Sun.,  J. Phys. Chem. Lett. 11, 9248-9248 (2020), doi: 10.1021/acs.jpclett.0c03077
  Functional external parameters        .... 1
    Parameter  0 _eta       =  1.000000e-03 : Regularization parameter
 Gradients option       PostSCFGGA      .... off
 RI-approximation to the Coulomb term is turned on
   Number of AuxJ basis functions       .... 156


General Settings:
 Integral files         IntName         .... reactant_optfreq
 Hartree-Fock type      HFTyp           .... RHF
 Total Charge           Charge          ....   -1
 Multiplicity           Mult            ....    1
 Number of Electrons    NEL             ....   44
 Basis Dimension        Dim             ....   94
 Nuclear Repulsion      ENuc            ....    103.8539488894 Eh

Convergence Acceleration:
 AO-DIIS                CNVDIIS         .... on
   Start iteration      DIISMaxIt       ....    12
   Startup error        DIISStart       ....  0.200000
   # of expansion vecs  DIISMaxEq       ....     5
   Bias factor          DIISBfac        ....   1.050
   Max. coefficient     DIISMaxC        ....  10.000
 MO-DIIS                CNVKDIIS        .... off
 Trust-Rad. Augm. Hess. CNVTRAH         .... auto
   Auto Start mean grad. ratio tolernc. ....  1.125000
   Auto Start start iteration           ....    50
   Auto Start num. interpolation iter.  ....    10
   Max. Number of Micro iterations      ....    24
   Max. Number of Macro iterations      .... Maxiter - #DIIS iter
   Number of Davidson start vectors     ....     2
   Converg. threshold    (grad. norm)   ....   1.000e-05
   Grad. Scal. Fac. for Micro threshold ....   0.100
   Minimum threshold for Micro iter.    ....   1.000e-02
   NR start threshold (gradient norm)   ....   1.000e-04
   Initial trust radius                 ....   0.400
   Minimum AH scaling param. (alpha)    ....   1.000
   Maximum AH scaling param. (alpha)    .... 1000.000
   Quad. conv. algorithm                .... NR
   White noise on init. David. guess    .... on
   Maximum white noise                  ....   0.010
   Pseudo random numbers                .... off
   Inactive MOs                         .... canonical
   Orbital update algorithm             .... Taylor
   Preconditioner                       .... Diag
   Full preconditioner red. dimension   ....   250
   COSX micro iterations for RIJONX calc.... off
 SOSCF                 CNVSOSCF           .... on
   Start iteration     SOSCFMaxIt         ....   150
   Startup grad/error  SOSCFStart         ....  0.003300
   Hessian update      SOSCFHessUp        .... L-BFGS
   Autom. constraints  SOSCFAutoConstrain .... off
 Level Shifting         CNVShift        .... on
   Level shift para.    LevelShift      ....    0.2500
   Turn off err/grad.   ShiftErr        ....    0.0010
 Zerner damping         CNVZerner       .... off
 Static damping         CNVDamp         .... on
   Fraction old density DampFac         ....    0.7000
   Max. Damping (<1)    DampMax         ....    0.9800
   Min. Damping (>=0)   DampMin         ....    0.0000
   Turn off err/grad.   DampErr         ....    0.1000

SCF Procedure:
 Maximum # iterations   MaxIter         ....   150
 SCF integral mode      SCFMode         .... Direct
   Integral package                     .... SHARK and LIBINT hybrid scheme
 Reset frequency        DirectResetFreq ....    20
 Integral Threshold     Thresh          ....  2.500e-11 Eh
 Primitive CutOff       TCut            ....  2.500e-12 Eh

Convergence Tolerance:
 Convergence Check Mode ConvCheckMode   .... Total+1el-Energy
 Convergence forced     ConvForced      .... 0
 Energy Change          TolE            ....  1.000e-08 Eh
 1-El. energy change                    ....  1.000e-05 Eh
 Orbital Gradient       TolG            ....  1.000e-05
 Orbital Rotation angle TolX            ....  1.000e-05
 DIIS Error             TolErr          ....  5.000e-07

------------------------------
INITIAL GUESS: MODEL POTENTIAL
------------------------------
Loading Hartree-Fock densities                     ... done
Atomic calculation to generate a density for atom 4 (I  with ECP)
  Multiplicity assumed   :    2
  Atomic configuration   : 1s2 2s2 2p6 3s2 3p6 4s2 3d10 4p6 5s2 4d10 5p5 
  Number of open shells  : 1
  Command: /software/orca-6.1.0-el8-x86_64/bin/orca reactant_optfreq_atom53.inp "" > reactant_optfreq_atom53.out
Returned from the atomic calculation with res=0
Calculating cut-offs                               ... done
Initializing the effective Hamiltonian             ... done
Setting up the integral package (SHARK)            ... done
Starting the Coulomb interaction                   ... done (   0.0 sec)
Making the grid                                    ... done (   0.3 sec)
Mapping shells                                     ... done
Starting the XC term evaluation                    ... done (   0.1 sec)
  promolecular density results
     # of electrons  =     70.998692162
     EX              =   -189.030279475
     EC              =     -3.441161158
     EX+EC           =   -192.471440633
Transforming the Hamiltonian                       ... done (   0.0 sec)
Diagonalizing the Hamiltonian                      ... done (   0.1 sec)
Back transforming the eigenvectors                 ... done (   0.0 sec)
Now organizing SCF variables                       ... done
                      ------------------
                      INITIAL GUESS DONE (   6.6 sec)
                      ------------------
             **** ENERGY FILE WAS UPDATED (reactant_optfreq.en.tmp) ****
Finished Guess after   7.0 sec
Maximum memory used throughout the entire GUESS-calculation: 7.1 MB


           ************************************************************
           *        Program running with 8 parallel MPI-processes     *
           *              working on a common directory               *
           ************************************************************

-------------------------------------------------------------------------------------------
                                      ORCA LEAN-SCF
                              memory conserving SCF solver
-------------------------------------------------------------------------------------------

----------------------------------------D-I-I-S--------------------------------------------
Iteration    Energy (Eh)           Delta-E    RMSDP     MaxDP     DIISErr   Damp  Time(sec)
-------------------------------------------------------------------------------------------
               ***  Starting incremental Fock matrix formation  ***
    1    -437.2723756745132278     0.00e+00  1.56e-02  8.17e-02  6.00e-01  0.700   0.9
Warning: op=0 Small HOMO/LUMO gap (   0.020) - skipping pre-diagonalization
         Will do a full diagonalization
    2    -437.3825279054540260    -1.10e-01  1.17e-02  5.85e-02  4.08e-01  0.700   0.8
    3    -437.4210702487355320    -3.85e-02  6.07e-03  4.03e-02  2.77e-01  0.700   0.8
                               ***Turning on AO-DIIS***
    4    -437.4438232109092723    -2.28e-02  3.04e-03  2.14e-02  1.89e-01  0.700   0.5
    5    -437.4613989436953716    -1.76e-02  1.84e-03  1.08e-02  1.32e-01  0.700   0.8
    6    -437.4737002774069197    -1.23e-02  1.24e-03  7.27e-03  9.35e-02  0.700   1.0
    7    -437.4824505536163315    -8.75e-03  3.09e-03  1.52e-02  6.60e-02  0.000   0.4
    8    -437.5029165484722853    -2.05e-02  7.36e-04  4.23e-03  1.18e-02  0.000   0.4
    9    -437.5030227628831199    -1.06e-04  3.17e-04  1.27e-03  4.72e-03  0.000   0.8
                              *** Initializing SOSCF ***
---------------------------------------S-O-S-C-F--------------------------------------
Iteration    Energy (Eh)           Delta-E    RMSDP     MaxDP     MaxGrad    Time(sec)
--------------------------------------------------------------------------------------
   10    -437.5030401828897766    -1.74e-05  1.53e-04  7.29e-04  1.16e-03     0.3
               *** Restarting incremental Fock matrix formation ***
   11    -437.5030447763178927    -4.59e-06  2.45e-04  1.16e-03  2.22e-04     0.3
   12    -437.5030455038468062    -7.28e-07  1.04e-04  5.59e-04  2.33e-04     0.4
   13    -437.5030458080242397    -3.04e-07  7.47e-05  4.13e-04  1.82e-04     0.8
   14    -437.5030460451569070    -2.37e-07  2.65e-05  1.01e-04  7.32e-05     0.9
   15    -437.5030460350667454     1.01e-08  2.62e-05  1.09e-04  6.75e-05     0.9
   16    -437.5030460809174429    -4.59e-08  7.65e-06  6.60e-05  8.24e-06     0.5
   17    -437.5030460820763665    -1.16e-09  3.76e-06  3.47e-05  7.69e-06     0.2
                 **** Energy Check signals convergence ****

               *****************************************************
               *                     SUCCESS                       *
               *           SCF CONVERGED AFTER  17 CYCLES          *
               *****************************************************

             **** ENERGY FILE WAS UPDATED (reactant_optfreq.en.tmp) ****

----------------
TOTAL SCF ENERGY
----------------

Total Energy       :       -437.50304608264992 Eh          -11905.06313 eV

Components:
Nuclear Repulsion  :        103.85394888938697 Eh            2826.00962 eV
Electronic Energy  :       -541.35699497203689 Eh          -14731.07275 eV
One Electron Energy:       -926.27398726112915 Eh          -25205.19660 eV
Two Electron Energy:        384.91699228909226 Eh           10474.12385 eV

Virial components:
Potential Energy   :       -688.91720512175289 Eh          -18746.39020 eV
Kinetic Energy     :        251.41415903910297 Eh            6841.32707 eV
Virial Ratio       :          2.74016868323874

DFT components:
N(Alpha)           :       21.999984918489 electrons
N(Beta)            :       21.999984918489 electrons
N(Total)           :       43.999969836978 electrons
E(X)               :      -37.827782521797 Eh       
E(C)               :       -1.663020869907 Eh       
E(XC)              :      -39.490803391704 Eh       

---------------
SCF CONVERGENCE
---------------

  Last Energy change         ...    1.1589e-09  Tolerance :   1.0000e-08
  Last MAX-Density change    ...    3.4732e-05  Tolerance :   1.0000e-07
  Last RMS-Density change    ...    3.7608e-06  Tolerance :   5.0000e-09
  Last DIIS Error            ...    1.1637e-03  Tolerance :   5.0000e-07
  Last Orbital Gradient      ...    7.6893e-06  Tolerance :   1.0000e-05
  Last Orbital Rotation      ...    9.3019e-06  Tolerance :   1.0000e-05


----------------
ORBITAL ENERGIES
----------------

  NO   OCC          E(Eh)            E(eV) 
   0   2.0000     -24.074323      -655.0956 
   1   2.0000      -9.897645      -269.3286 
   2   2.0000      -6.661832      -181.2777 
   3   2.0000      -4.677808      -127.2896 
   4   2.0000      -4.665555      -126.9562 
   5   2.0000      -4.665249      -126.9479 
   6   2.0000      -1.713536       -46.6277 
   7   2.0000      -1.710773       -46.5525 
   8   2.0000      -1.710444       -46.5435 
   9   2.0000      -1.700075       -46.2614 
  10   2.0000      -1.700074       -46.2614 
  11   2.0000      -0.706913       -19.2361 
  12   2.0000      -0.550737       -14.9863 
  13   2.0000      -0.450542       -12.2599 
  14   2.0000      -0.236632        -6.4391 
  15   2.0000      -0.211986        -5.7684 
  16   2.0000      -0.179159        -4.8752 
  17   2.0000      -0.093284        -2.5384 
  18   2.0000      -0.091894        -2.5006 
  19   2.0000       0.009554         0.2600 
  20   2.0000       0.010466         0.2848 
  21   2.0000       0.011076         0.3014 
  22   0.0000       0.095038         2.5861 
  23   0.0000       0.253496         6.8980 
  24   0.0000       0.289220         7.8701 
  25   0.0000       0.291584         7.9344 
  26   0.0000       0.306625         8.3437 
  27   0.0000       0.324102         8.8193 
  28   0.0000       0.328094         8.9279 
  29   0.0000       0.343259         9.3405 
  30   0.0000       0.353457         9.6180 
  31   0.0000       0.360100         9.7988 
  32   0.0000       0.377597        10.2749 
*Only the first 10 virtual orbitals were printed.

                    ********************************
                    * MULLIKEN POPULATION ANALYSIS *
                    ********************************

-----------------------
MULLIKEN ATOMIC CHARGES
-----------------------
   0 C :   -0.451333
   1 H :    0.356923
   2 H :    0.133348
   3 H :    0.133340
   4 I :   -0.329637
   5 F :   -0.842641
Sum of atomic charges:   -1.0000000

--------------------------------
MULLIKEN REDUCED ORBITAL CHARGES
--------------------------------
  0 C s       :     3.346905  s :     3.346905
      pz      :     0.891372  p :     3.084000
      px      :     1.039372
      py      :     1.153257
      dz2     :     0.006463  d :     0.020428
      dxz     :     0.001124
      dyz     :     0.004271
      dx2y2   :     0.000969
      dxy     :     0.007601

  1 H s       :     0.617317  s :     0.617317
      pz      :     0.015611  p :     0.025761
      px      :     0.002993
      py      :     0.007156

  2 H s       :     0.847824  s :     0.847824
      pz      :     0.003469  p :     0.018828
      px      :     0.008826
      py      :     0.006533

  3 H s       :     0.847833  s :     0.847833
      pz      :     0.003469  p :     0.018827
      px      :     0.008832
      py      :     0.006527

  4 I s       :     3.977138  s :     3.977138
      pz      :     3.424937  p :    11.295370
      px      :     4.005540
      py      :     3.864893
      dz2     :     2.023673  d :    10.057128
      dxz     :     2.012590
      dyz     :     2.013690
      dx2y2   :     2.002043
      dxy     :     2.005132

  5 F s       :     3.992767  s :     3.992767
      pz      :     1.909054  p :     5.847005
      px      :     1.984563
      py      :     1.953388
      dz2     :     0.001768  d :     0.002869
      dxz     :     0.000167
      dyz     :     0.000838
      dx2y2   :     0.000062
      dxy     :     0.000035



                     *******************************
                     * LOEWDIN POPULATION ANALYSIS *
                     *******************************

----------------------
LOEWDIN ATOMIC CHARGES
----------------------
   0 C :   -0.550797
   1 H :    0.230609
   2 H :    0.141593
   3 H :    0.141588
   4 I :   -0.111334
   5 F :   -0.851660

-------------------------------
LOEWDIN REDUCED ORBITAL CHARGES
-------------------------------
  0 C s       :     3.112272  s :     3.112272
      pz      :     1.026005  p :     3.391302
      px      :     1.164252
      py      :     1.201045
      dz2     :     0.014291  d :     0.047222
      dxz     :     0.001964
      dyz     :     0.009684
      dx2y2   :     0.002624
      dxy     :     0.018660

  1 H s       :     0.683769  s :     0.683769
      pz      :     0.054358  p :     0.085622
      px      :     0.007159
      py      :     0.024105

  2 H s       :     0.812290  s :     0.812290
      pz      :     0.007919  p :     0.046117
      px      :     0.021811
      py      :     0.016387

  3 H s       :     0.812295  s :     0.812295
      pz      :     0.007919  p :     0.046117
      px      :     0.021827
      py      :     0.016371

  4 I s       :     3.777923  s :     3.777923
      pz      :     3.395033  p :    11.212340
      px      :     3.974158
      py      :     3.843149
      dz2     :     2.054075  d :    10.121071
      dxz     :     2.019168
      dyz     :     2.035090
      dx2y2   :     2.004892
      dxy     :     2.007846

  5 F s       :     3.975677  s :     3.975677
      pz      :     1.910187  p :     5.855215
      px      :     1.989363
      py      :     1.955666
      dz2     :     0.012577  d :     0.020768
      dxz     :     0.000343
      dyz     :     0.007359
      dx2y2   :     0.000370
      dxy     :     0.000119



                      *****************************
                      * MAYER POPULATION ANALYSIS *
                      *****************************

  NA   - Mulliken gross atomic population
  ZA   - Total nuclear charge
  QA   - Mulliken gross atomic charge
  VA   - Mayer's total valence
  BVA  - Mayer's bonded valence
  FA   - Mayer's free valence

  ATOM       NA         ZA         QA         VA         BVA        FA
  0 C      6.4513     6.0000    -0.4513     3.6849     3.6849     0.0000
  1 H      0.6431     1.0000     0.3569     0.8962     0.8962     0.0000
  2 H      0.8667     1.0000     0.1333     0.9606     0.9606     0.0000
  3 H      0.8667     1.0000     0.1333     0.9606     0.9606     0.0000
  4 I     25.3296    25.0000    -0.3296     0.9162     0.9162    -0.0000
  5 F      9.8426     9.0000    -0.8426     0.2766     0.2766     0.0000

  Mayer bond orders larger than 0.100000
B(  0-C ,  1-H ) :   0.7905 B(  0-C ,  2-H ) :   0.9623 B(  0-C ,  3-H ) :   0.9623 
B(  0-C ,  4-I ) :   0.8432 B(  0-C ,  5-F ) :   0.1266 B(  1-H ,  5-F ) :   0.1025 


-------
TIMINGS
-------

Total SCF time: 0 days 0 hours 0 min 12 sec 

Total time                  ....      12.107 sec
Sum of individual times     ....      11.565 sec  ( 95.5%)

SCF preparation             ....       0.900 sec  (  7.4%)
Fock matrix formation       ....       7.433 sec  ( 61.4%)
  Startup                   ....       0.054 sec  (  0.7% of F)
  Split-RI-J                ....       1.368 sec  ( 18.4% of F)
  XC integration            ....       4.652 sec  ( 62.6% of F)
    XC Preparation          ....       0.000 sec  (  0.0% of XC)
    Basis function eval.    ....       0.800 sec  ( 17.2% of XC)
    Density eval.           ....       0.740 sec  ( 15.9% of XC)
    XC-Functional eval.     ....       0.568 sec  ( 12.2% of XC)
    XC-Potential eval.      ....       0.638 sec  ( 13.7% of XC)
Diagonalization             ....       0.000 sec  (  0.0%)
Density matrix formation    ....       0.446 sec  (  3.7%)
Total Energy calculation    ....       0.133 sec  (  1.1%)
Population analysis         ....       0.094 sec  (  0.8%)
Orbital Transformation      ....       0.281 sec  (  2.3%)
Orbital Orthonormalization  ....       0.000 sec  (  0.0%)
DIIS solution               ....       1.545 sec  ( 12.8%)
SOSCF solution              ....       0.733 sec  (  6.1%)
Finished LeanSCF after  12.2 sec

Maximum memory used throughout the entire LEANSCF-calculation: 6.5 MB


           ************************************************************
           *        Program running with 8 parallel MPI-processes     *
           *              working on a common directory               *
           ************************************************************

------------------------------------------------------------------------------
                         ORCA PROPERTY INTEGRAL CALCULATIONS
------------------------------------------------------------------------------

GBWName                                   ... reactant_optfreq.gbw
Number of atoms                           ...      6
Number of basis functions                 ...     94
Max core memory                           ...   4096 MB

Dipole integrals                          ... YES
Quadrupole integrals                      ...  NO
Linear momentum integrals                 ...  NO
Angular momentum integrals                ...  NO
Higher moments length integrals           ...  NO
Higher moments velocity integrals         ...  NO
Kinetic energy integrals                  ...  NO
GIAO right hand sides                     ...  NO
GIAO dipole derivative integrals          ...  NO
SOC integrals                             ...  NO
EPR diamagnetic integrals (GIAO)          ...  NO
EPR gauge integrals                       ...  NO
Field gradient integrals                  ...  NO (   0 nuclei)
Spin-dipole/Fermi contact integrals       ...  NO (   0 nuclei)
Contact density integrals                 ...  NO (   0 nuclei)
Nucleus-orbit integrals                   ...  NO (   0 nuclei)
Geometric perturbations                   ...  NO (   6 nuclei)

Choice of electric origin   ... Center of mass
Position of electric origin ... (  0.0004,  0.7205,  2.8989) 
Choice of magnetic origin   ... GIAO
Position of magnetic origin ... (  0.0000,  0.0000,  0.0000) 

Calculating integrals                     ... Electric Dipole (Length)     done (  0.1 sec)

Property integrals calculated in   0.1 sec

Maximum memory used throughout the entire PROPINT-calculation: 6.9 MB


-------------------------------------------------------------------------------
                          DFT DISPERSION CORRECTION                            
                                                                               
                                DFTD4 V3.4.0                                   
-------------------------------------------------------------------------------
The R2SCAN3C composite method is recognized
Using three-body term ABC
Active option DFTDOPT                   ...         5   

-------------------------   ----------------
Dispersion correction           -0.000950035
-------------------------   ----------------

------------------   -----------------
gCP correction             0.003937436
------------------   -----------------

-------------------------   --------------------
FINAL SINGLE POINT ENERGY      -437.500058680958
-------------------------   --------------------



           ************************************************************
           *        Program running with 8 parallel MPI-processes     *
           *              working on a common directory               *
           ************************************************************
------------------------------------------------------------------------------
                         ORCA SCF GRADIENT CALCULATION
------------------------------------------------------------------------------

Nuc. rep. gradient        (SHARK) ... done (  0.0 sec)
HCore & Overlap gradient  (SHARK) ... done (  0.1 sec)
ECP gradient              (SHARK) ... done (  0.2 sec)
Split-RIJ-J gradient      (SHARK) ... done (  0.9 sec)
XC gradient                       ... done (  0.6 sec)
Dispersion correction             ... done (  0.1 sec)

-------------------
DISPERSION GRADIENT
-------------------

   1   C   :   -0.000000005   -0.000010413   -0.000003279
   2   H   :    0.000000001    0.000001451   -0.000007198
   3   H   :    0.000001870   -0.000003869    0.000002024
   4   H   :   -0.000001874   -0.000003868    0.000002024
   5   I   :    0.000000003    0.000005211    0.000054065
   6   F   :    0.000000005    0.000011489   -0.000047636

Difference to translation invariance:
           :   -0.0000000000    0.0000000000   -0.0000000000

Difference to rotation invariance:
           :    0.0000000000    0.0000000000   -0.0000000000

Norm of the Dispersion gradient    ...    0.0000746294
RMS gradient                       ...    0.0000175903
MAX gradient                       ...    0.0000540647
gCP correction                   ... done

------------------
CARTESIAN GRADIENT
------------------

   1   C   :    0.000005811    0.009702189    0.005550362
   2   H   :   -0.000007880   -0.013786335    0.009960983
   3   H   :   -0.003764057    0.001884310   -0.002361054
   4   H   :    0.003764682    0.001880588   -0.002361291
   5   I   :   -0.000001249   -0.002944113   -0.005368980
   6   F   :    0.000002693    0.003263362   -0.005420021

Difference to translation invariance:
           :   -0.0000000000    0.0000000000   -0.0000000000

Difference to rotation invariance:
           :    0.0000110731    0.0000002824   -0.0000000858

Norm of the Cartesian gradient     ...    0.0232017599
RMS gradient                       ...    0.0054687073
MAX gradient                       ...    0.0137863351

-------
TIMINGS
-------

Total SCF gradient time     ....        1.912 sec

Densities                   ....       0.000 sec  (  0.0%)
One electron gradient       ....       0.084 sec  (  4.4%)
RI-J Coulomb gradient       ....       0.903 sec  ( 47.2%)
XC gradient                 ....       0.580 sec  ( 30.4%)

Maximum memory used throughout the entire SCFGRAD-calculation: 26.8 MB
------------------------------------------------------------------------------
                         ORCA GEOMETRY RELAXATION STEP
------------------------------------------------------------------------------

Reading the OPT-File                    .... done
Getting information on internals        .... done
Copying old internal coords+grads       .... done
Making the new internal coordinates     .... (2022 redundants) done
Validating the new internal coordinates .... (2022 redundants) done
Calculating the B-matrix                .... done
Calculating the G,G- and P matrices     .... done
Transforming gradient to internals      .... done
Projecting the internal gradient        .... done
Number of atoms                         ....   6
Number of internal coordinates          ....  15
Current Energy                          ....  -437.500058681 Eh
Current gradient norm                   ....     0.023201760 Eh/bohr
Maximum allowed component of the step   ....  0.300
Current trust radius                    ....  0.300
Evaluating the initial hessian          ....  (Almloef) done
Projecting the Hessian                  .... done
Forming the augmented Hessian           .... done
Diagonalizing the augmented Hessian     .... done
Last element of RFO vector              ....  0.984411722
Lowest eigenvalues of augmented Hessian:
 -0.001975500  0.036851074  0.098002656  0.116522534  0.204122440
Length of the computed step             ....  0.178664464
The final length of the internal step   ....  0.178664464
Converting the step to Cartesian space:
 Initial RMS(Int)=    0.0461309663
Transforming coordinates:
 Iter   0:  RMS(Cart)=    0.0321341360 RMS(Int)=    0.0461143991
done
Storing new coordinates                 .... done

                                .--------------------.
          ----------------------|Geometry convergence|-------------------------
          Item                value                   Tolerance       Converged
          ---------------------------------------------------------------------
          RMS gradient        0.0042204074            0.0001000000      NO
          MAX gradient        0.0102134933            0.0003000000      NO
          RMS step            0.0461309663            0.0020000000      NO
          MAX step            0.1643810732            0.0040000000      NO
          -------------------------------------------------------------------------
          ........................................................
          Max(Bonds)      0.0870      Max(Angles)    1.03
          Max(Dihed)        0.57      Max(Improp)    0.00
          ---------------------------------------------------------------------

The optimization has not yet converged - more geometry cycles are needed


    ---------------------------------------------------------------------------
                         Redundant Internal Coordinates
                            (Angstroem and degrees)

        Definition                    Value    dE/dq     Step     New-Value
    ----------------------------------------------------------------------------
     1. B(H   1,C   0)                1.1141 -0.010213  0.0163    1.1304   
     2. B(H   2,C   0)                1.0852 -0.004104  0.0059    1.0911   
     3. B(H   3,C   0)                1.0852 -0.004103  0.0059    1.0911   
     4. B(I   4,C   0)                2.1779 -0.006113  0.0274    2.2053   
     5. B(F   5,H   1)                1.6681  0.006216 -0.0870    1.5811   
     6. A(H   1,C   0,H   3)          110.43 -0.002794    0.60    111.03   
     7. A(H   1,C   0,H   2)          110.43 -0.002794    0.60    111.03   
     8. A(H   1,C   0,I   4)          114.94  0.003126   -0.73    114.21   
     9. A(H   2,C   0,I   4)          105.59  0.001564   -0.40    105.19   
    10. A(H   3,C   0,I   4)          105.59  0.001564   -0.40    105.19   
    11. A(H   2,C   0,H   3)          109.61 -0.000407    0.27    109.88   
    12. A(C   0,H   1,F   5)          160.62  0.003719   -1.03    159.59   
    13. D(F   5,H   1,C   0,H   3)    -60.72  0.002110   -0.57    -61.29   
    14. D(F   5,H   1,C   0,I   4)    179.98 -0.000001    0.00    179.98   
    15. D(F   5,H   1,C   0,H   2)     60.68 -0.002111    0.57     61.25   
    ----------------------------------------------------------------------------

Geometry step timings:
Preparation and reading OPT file:      0.000 s ( 0.874 %)
Internal coordinates            :      0.000 s ( 1.192 %)
B/P matrices and projection     :      0.000 s ( 3.497 %)
Hessian update/contruction      :      0.004 s (77.171 %)
Making the step                 :      0.000 s ( 3.795 %)
Converting the step to Cartesian:      0.000 s ( 1.490 %)
Storing new data                :      0.000 s ( 2.543 %)
Checking convergence            :      0.000 s ( 1.947 %)
Final printing                  :      0.000 s ( 7.351 %)
Total time                      :      0.005 s

Time for energy+gradient        :     25.197 s
Time for complete geometry iter :     25.917 s

         *************************************************************
         *                GEOMETRY OPTIMIZATION CYCLE   2            *
         *************************************************************
---------------------------------
CARTESIAN COORDINATES (ANGSTROEM)
---------------------------------
  C     -0.000288   -0.505560    0.256250
  H     -0.000002    0.225230   -0.606222
  H      0.892544   -1.132517    0.238507
  H     -0.893660   -1.131753    0.238600
  I      0.000224    0.444197    2.246500
  F      0.000363    0.762385   -2.093301

----------------------------
CARTESIAN COORDINATES (A.U.)
----------------------------
  NO LB      ZA    FRAG     MASS         X           Y           Z
   0 C     6.0000    0    12.011   -0.000545   -0.955369    0.484242
   1 H     1.0000    0     1.008   -0.000003    0.425622   -1.145594
   2 H     1.0000    0     1.008    1.686664   -2.140148    0.450713
   3 H     1.0000    0     1.008   -1.688773   -2.138702    0.450889
   4 I    25.0000*   0   126.900    0.000423    0.839411    4.245269
   5 F     9.0000    0    18.998    0.000685    1.440699   -3.955765
* core charge reduced due to ECP

--------------------------------
INTERNAL COORDINATES (ANGSTROEM)
--------------------------------
 C      0   0   0     0.000000000000     0.00000000     0.00000000
 H      1   0   0     1.130447403280     0.00000000     0.00000000
 H      1   2   0     1.091118769367   111.02915536     0.00000000
 H      1   2   3     1.091119882508   111.03077865   237.45181661
 I      1   2   3     2.205250930024   114.21405822   118.72529231
 F      2   1   3     1.581119283837   159.58524751    61.25474704

---------------------------
INTERNAL COORDINATES (A.U.)
---------------------------
 C      0   0   0     0.000000000000     0.00000000     0.00000000
 H      1   0   0     2.136236001002     0.00000000     0.00000000
 H      1   2   0     2.061915653684   111.02915536     0.00000000
 H      1   2   3     2.061917757217   111.03077865   237.45181661
 I      1   2   3     4.167320314321   114.21405822   118.72529231
 F      2   1   3     2.987882431514   159.58524751    61.25474704



           ************************************************************
           *        Program running with 8 parallel MPI-processes     *
           *              working on a common directory               *
           ************************************************************
------------------------------------------------------------------------------
                   ___                                                        
                  /   \      - P O W E R E D   B Y -                         
                 /     \                                                     
                 |  |  |   _    _      __       _____    __    __             
                 |  |  |  | |  | |    /  \     |  _  \  |  |  /  |          
                  \  \/   | |  | |   /    \    | | | |  |  | /  /          
                 / \  \   | |__| |  /  /\  \   | |_| |  |  |/  /          
                |  |  |   |  __  | /  /__\  \  |    /   |      \           
                |  |  |   | |  | | |   __   |  |    \   |  |\   \          
                \     /   | |  | | |  |  |  |  | |\  \  |  | \   \       
                 \___/    |_|  |_| |__|  |__|  |_| \__\ |__|  \__/        
                                                                              
                      - O R C A' S   B I G   F R I E N D -                    
                                      &                                       
                       - I N T E G R A L  F E E D E R -                       
                                                                              
 v1 FN, 2020, v2 2021, v3 2022-2024                                           
------------------------------------------------------------------------------


----------------------
SHARK INTEGRAL PACKAGE
----------------------

Number of atoms                             ...      6
Number of basis functions                   ...     94
Number of shells                            ...     42
Maximum angular momentum                    ...      2
Integral batch strategy                     ... SHARK/LIBINT Hybrid
RI-J (if used) integral strategy            ... SPLIT-RIJ (Revised 2003 algorithm where possible)
Printlevel                                  ...      1
Contraction scheme used                     ... SEGMENTED contraction
Prescreening option                         ... SCHWARTZ
   Thresh                                   ... 2.500e-11
   Tcut                                     ... 2.500e-12
   Tpresel                                  ... 2.500e-12 
Coulomb Range Separation                    ... NOT USED
Exchange Range Separation                   ... NOT USED
Multipole approximations                    ... NOT USED
Finite Nucleus Model                        ... NOT USED
CABS basis                                  ... NOT available
Auxiliary Coulomb fitting basis             ... AVAILABLE
   # of basis functions in Aux-J            ...    156
   # of shells in Aux-J                     ...     58
   Maximum angular momentum in Aux-J        ...      4
Auxiliary J/K fitting basis                 ... NOT available
Auxiliary Correlation fitting basis         ... NOT available
Auxiliary 'external' fitting basis          ... NOT available

Checking pre-screening integrals            ... done (  0.0 sec) Dimension = 42
   => SHARK Basis and OBASIS are compatible. Storing Pre-screening
Shell pair information
Shell pair cut-off parameter TPreSel        ...   2.5e-12
Total number of shell pairs                 ...       903
Shell pairs after pre-screening             ...       836
Total number of primitive shell pairs       ...      3409
Primitive shell pairs kept                  ...      2458
          la=0 lb=0:    227 shell pairs
          la=1 lb=0:    284 shell pairs
          la=1 lb=1:    102 shell pairs
          la=2 lb=0:    122 shell pairs
          la=2 lb=1:     81 shell pairs
          la=2 lb=2:     20 shell pairs

Checking whether 4 symmetric matrices of dimension 94 fit in memory
:Max Core in MB      =   4096.00
 MB in use           =      4.41
 MB left             =   4091.59
 MB needed           =      0.14
 Data fit in memory  = YES
Calculating RI/J V-Matrix + Cholesky decomp.... done (  0.0 sec)
Calculating Nuclear repulsion               ... done (  0.0 sec) ENN=    104.020497034303 Eh

Diagonalization of the overlap matrix:
Smallest eigenvalue                        ... 3.420e-03
Time for diagonalization                   ...    0.001 sec
Threshold for overlap eigenvalues          ... 1.000e-07
Number of eigenvalues below threshold      ... 0
Time for construction of square roots      ...    0.074 sec
Total time needed                          ...    0.077 sec

-------------------
DFT GRID GENERATION
-------------------

General Integration Accuracy     IntAcc      ... 4.388
Radial Grid Type                 RadialGrid  ... OptM3 with GC (2021)
Angular Grid (max. ang.)         AngularGrid ... 4 (Lebedev-302)
Angular grid pruning method      GridPruning ... 4 (adaptive)
Weight generation scheme         WeightScheme... mBecke (2022)
Basis function cutoff            BFCut       ... 1.0000e-11
Integration weight cutoff        WCut        ... 1.0000e-14
Partially contracted basis set               ... off
Rotationally invariant grid construction     ... off
Angular grids for H and He will be reduced by one unit

Total number of grid points                  ...    33634
Total number of batches                      ...      528
Average number of points per batch           ...       63
Average number of grid points per atom       ...     5606
Grids setup in   1.2 sec
Initializing property integral containers    ... done (  0.0 sec)

SHARK setup successfully completed in   1.8 seconds

Maximum memory used throughout the entire STARTUP-calculation: 12.5 MB


           ************************************************************
           *        Program running with 8 parallel MPI-processes     *
           *              working on a common directory               *
           ************************************************************
Occupation numbers will be reassigned to an Aufbau configuration
             **** ENERGY FILE WAS UPDATED (reactant_optfreq.en.tmp) ****
Finished Guess after   0.6 sec
Maximum memory used throughout the entire GUESS-calculation: 6.8 MB


           ************************************************************
           *        Program running with 8 parallel MPI-processes     *
           *              working on a common directory               *
           ************************************************************
----------------------------------------D-I-I-S--------------------------------------------
Iteration    Energy (Eh)           Delta-E    RMSDP     MaxDP     DIISErr   Damp  Time(sec)
-------------------------------------------------------------------------------------------
               ***  Starting incremental Fock matrix formation  ***
    1    -437.5040886849366188     0.00e+00  5.08e-04  2.88e-03  1.17e-02  0.700   0.3
Warning: op=0 Small HOMO/LUMO gap (   0.091) - skipping pre-diagonalization
         Will do a full diagonalization
    2    -437.5042832121985157    -1.95e-04  5.30e-04  2.78e-03  8.23e-03  0.700   0.3
                               ***Turning on AO-DIIS***
    3    -437.5044121317439476    -1.29e-04  3.71e-04  2.13e-03  5.77e-03  0.700   0.3
    4    -437.5044979803527667    -8.58e-05  8.77e-04  4.88e-03  4.03e-03  0.000   0.8
                              *** Initializing SOSCF ***
---------------------------------------S-O-S-C-F--------------------------------------
Iteration    Energy (Eh)           Delta-E    RMSDP     MaxDP     MaxGrad    Time(sec)
--------------------------------------------------------------------------------------
    5    -437.5047003637516809    -2.02e-04  1.16e-04  8.84e-04  1.16e-03     0.7
               *** Restarting incremental Fock matrix formation ***
    6    -437.5047036833292395    -3.32e-06  9.20e-05  4.11e-04  2.16e-04     0.6
    7    -437.5047029158582745     7.67e-07  6.71e-05  2.67e-04  4.55e-04     0.5
    8    -437.5047039373772577    -1.02e-06  1.55e-05  6.00e-05  2.10e-05     0.7
    9    -437.5047039339114008     3.47e-09  6.75e-06  3.01e-05  2.89e-05     0.3
                 **** Energy Check signals convergence ****

               *****************************************************
               *                     SUCCESS                       *
               *           SCF CONVERGED AFTER   9 CYCLES          *
               *****************************************************

             **** ENERGY FILE WAS UPDATED (reactant_optfreq.en.tmp) ****

----------------
TOTAL SCF ENERGY
----------------

Total Energy       :       -437.50470394576598 Eh          -11905.10824 eV

Components:
Nuclear Repulsion  :        104.02049703430306 Eh            2830.54163 eV
Electronic Energy  :       -541.52520098006903 Eh          -14735.64986 eV
One Electron Energy:       -926.68664004450909 Eh          -25216.42545 eV
Two Electron Energy:        385.16143906444000 Eh           10480.77559 eV

Virial components:
Potential Energy   :       -688.89020953597105 Eh          -18745.65561 eV
Kinetic Energy     :        251.38550559020504 Eh            6840.54737 eV
Virial Ratio       :          2.74037362623031

DFT components:
N(Alpha)           :       21.999983862450 electrons
N(Beta)            :       21.999983862450 electrons
N(Total)           :       43.999967724900 electrons
E(X)               :      -37.816784390724 Eh       
E(C)               :       -1.663183599736 Eh       
E(XC)              :      -39.479967990460 Eh       

---------------
SCF CONVERGENCE
---------------

  Last Energy change         ...   -3.4659e-09  Tolerance :   1.0000e-08
  Last MAX-Density change    ...    3.0058e-05  Tolerance :   1.0000e-07
  Last RMS-Density change    ...    6.7529e-06  Tolerance :   5.0000e-09
  Last DIIS Error            ...    1.1589e-03  Tolerance :   5.0000e-07
  Last Orbital Gradient      ...    2.8942e-05  Tolerance :   1.0000e-05
  Last Orbital Rotation      ...    3.7696e-05  Tolerance :   1.0000e-05


Total SCF time: 0 days 0 hours 0 min 5 sec 
Finished LeanSCF after   5.5 sec

Maximum memory used throughout the entire LEANSCF-calculation: 6.5 MB


           ************************************************************
           *        Program running with 8 parallel MPI-processes     *
           *              working on a common directory               *
           ************************************************************

------------------------------------------------------------------------------
                         ORCA PROPERTY INTEGRAL CALCULATIONS
------------------------------------------------------------------------------

GBWName                                   ... reactant_optfreq.gbw
Number of atoms                           ...      6
Number of basis functions                 ...     94
Max core memory                           ...   4096 MB

Dipole integrals                          ... YES
Quadrupole integrals                      ...  NO
Linear momentum integrals                 ...  NO
Angular momentum integrals                ...  NO
Higher moments length integrals           ...  NO
Higher moments velocity integrals         ...  NO
Kinetic energy integrals                  ...  NO
GIAO right hand sides                     ...  NO
GIAO dipole derivative integrals          ...  NO
SOC integrals                             ...  NO
EPR diamagnetic integrals (GIAO)          ...  NO
EPR gauge integrals                       ...  NO
Field gradient integrals                  ...  NO (   0 nuclei)
Spin-dipole/Fermi contact integrals       ...  NO (   0 nuclei)
Contact density integrals                 ...  NO (   0 nuclei)
Nucleus-orbit integrals                   ...  NO (   0 nuclei)
Geometric perturbations                   ...  NO (   6 nuclei)

Choice of electric origin   ... Center of mass
Position of electric origin ... (  0.0004,  0.7365,  2.9151) 
Choice of magnetic origin   ... GIAO
Position of magnetic origin ... (  0.0000,  0.0000,  0.0000) 

Calculating integrals                     ... Electric Dipole (Length)     done (  0.0 sec)

Property integrals calculated in   0.0 sec

Maximum memory used throughout the entire PROPINT-calculation: 6.9 MB


-------------------------------------------------------------------------------
                          DFT DISPERSION CORRECTION                            
                                                                               
                                DFTD4 V3.4.0                                   
-------------------------------------------------------------------------------
-------------------------   ----------------
Dispersion correction           -0.000954320
-------------------------   ----------------

------------------   -----------------
gCP correction             0.004015236
------------------   -----------------

-------------------------   --------------------
FINAL SINGLE POINT ENERGY      -437.501643029665
-------------------------   --------------------



           ************************************************************
           *        Program running with 8 parallel MPI-processes     *
           *              working on a common directory               *
           ************************************************************
------------------------------------------------------------------------------
                         ORCA SCF GRADIENT CALCULATION
------------------------------------------------------------------------------

Nuc. rep. gradient        (SHARK) ... done (  0.0 sec)
HCore & Overlap gradient  (SHARK) ... done (  0.0 sec)
ECP gradient              (SHARK) ... done (  0.4 sec)
Split-RIJ-J gradient      (SHARK) ... done (  1.3 sec)
XC gradient                       ... done (  0.3 sec)
Dispersion correction             ... done (  0.1 sec)

-------------------
DISPERSION GRADIENT
-------------------

   1   C   :   -0.000000005   -0.000009646   -0.000004531
   2   H   :    0.000000000    0.000000243   -0.000005810
   3   H   :    0.000001558   -0.000003662    0.000001496
   4   H   :   -0.000001562   -0.000003661    0.000001496
   5   I   :    0.000000003    0.000005770    0.000055107
   6   F   :    0.000000005    0.000010955   -0.000047758

Difference to translation invariance:
           :   -0.0000000000    0.0000000000   -0.0000000000

Difference to rotation invariance:
           :   -0.0000000000   -0.0000000000   -0.0000000000

Norm of the Dispersion gradient    ...    0.0000751964
RMS gradient                       ...    0.0000177240
MAX gradient                       ...    0.0000551071
gCP correction                   ... done

------------------
CARTESIAN GRADIENT
------------------

   1   C   :    0.000004844    0.007933838    0.003239032
   2   H   :   -0.000006567   -0.009436278    0.007502385
   3   H   :   -0.000613694   -0.000144504   -0.002681461
   4   H   :    0.000613202   -0.000144737   -0.002681441
   5   I   :    0.000000048   -0.000316314   -0.001764024
   6   F   :    0.000002167    0.002107995   -0.003614490

Difference to translation invariance:
           :   -0.0000000000    0.0000000000   -0.0000000000

Difference to rotation invariance:
           :    0.0000440204    0.0000007739    0.0000000404

Norm of the Cartesian gradient     ...    0.0159581066
RMS gradient                       ...    0.0037613618
MAX gradient                       ...    0.0094362783

-------
TIMINGS
-------

Total SCF gradient time     ....        2.122 sec

Densities                   ....       0.000 sec  (  0.0%)
One electron gradient       ....       0.009 sec  (  0.4%)
RI-J Coulomb gradient       ....       1.289 sec  ( 60.8%)
XC gradient                 ....       0.319 sec  ( 15.0%)

Maximum memory used throughout the entire SCFGRAD-calculation: 26.8 MB
------------------------------------------------------------------------------
                         ORCA GEOMETRY RELAXATION STEP
------------------------------------------------------------------------------

Reading the OPT-File                    .... done
Getting information on internals        .... done
Copying old internal coords+grads       .... done
Making the new internal coordinates     .... (2022 redundants) done
Validating the new internal coordinates .... (2022 redundants) done
Calculating the B-matrix                .... done
Calculating the G,G- and P matrices     .... done
Transforming gradient to internals      .... done
Projecting the internal gradient        .... done
Number of atoms                         ....   6
Number of internal coordinates          ....  15
Current Energy                          ....  -437.501643030 Eh
Current gradient norm                   ....     0.015958107 Eh/bohr
Maximum allowed component of the step   ....  0.300
Current trust radius                    ....  0.300
Updating the Hessian (BFGS)             .... done
Forming the augmented Hessian           .... done
Diagonalizing the augmented Hessian     .... done
Last element of RFO vector              ....  0.956204561
Lowest eigenvalues of augmented Hessian:
 -0.002170828  0.018966059  0.098002655  0.116742258  0.187792054
Length of the computed step             ....  0.306105240
Warning: the length of the step is outside the trust region - taking restricted step instead
The input lambda is                     ....     0.016196
   iter:   5  x=    0.009885  g=  556.717222 f(x)=     1.298401
   iter:  10  x=   -0.002565  g=    9.369086 f(x)=     0.002955
The output lambda is                    ....    -0.002573 (13 iterations)
The final length of the internal step   ....  0.300000000
Converting the step to Cartesian space:
 Initial RMS(Int)=    0.0774596669
[...]



--------------------
Rotational spectrum 
--------------------
 
Rotational constants in cm-1:             0.810996             0.052386             0.049673 
Rotational constants in MHz :         24313.039209          1570.498809          1489.168223 

Dipole components along the rotational axes: 
x,y,z [a.u.] :     3.678646    -0.621662    -0.000002 
x,y,z [Debye]:     9.350374    -1.580139    -0.000004 

 

Dipole moment calculation done in   0.0 sec 

-----------
SCF HESSIAN
-----------

Occupied/Occupied contributions to the Hessian:
   => Occupied/Occupied contributions              ... done (  0.0 sec)
Perturbed density contributions to the Hessian:
   => Perturbed density contributions              ... done (  0.1 sec)
Explicit contributions to the Hessian:
   => Nuclear repulsion Hessian                    ... done (  0.0 sec)
   => HCore and overlap Hessian                    ... done (  0.2 sec)
   => ECP Hessian                                  ... done (  0.7 sec)
   => RI-J Hessian                                 ... done (  2.1 sec)
   => XC-Hessian                                   ... done (  2.0 sec)
   => Van der Waals-Hessian                        ... done (  0.6 sec)
   => GCP-Hessian                                  ... done (  0.0 sec)
   => Explicit contributions done
Dipole derivatives                                 ... done (  0.1 sec)
Mass weighting the Hessian           ... done
Calculating normal modes             ... done
Scaling frequencies                  ... done

-----------------------
VIBRATIONAL FREQUENCIES
-----------------------

Scaling factor for frequencies =  1.000000000  (already applied!)

     0:       0.00 cm**-1
     1:       0.00 cm**-1
     2:       0.00 cm**-1
     3:       0.00 cm**-1
     4:       0.00 cm**-1
     5:       0.00 cm**-1
     6:      74.96 cm**-1
     7:     339.46 cm**-1
     8:     339.53 cm**-1
     9:     445.89 cm**-1
    10:     854.37 cm**-1
    11:     946.61 cm**-1
    12:    1281.90 cm**-1
    13:    1431.96 cm**-1
    14:    1495.84 cm**-1
    15:    1761.48 cm**-1
    16:    3053.44 cm**-1
    17:    3136.68 cm**-1


------------
NORMAL MODES
------------

These modes are the Cartesian displacements weighted by the diagonal matrix
M(i,i)=1/sqrt(m[i]) where m[i] is the mass of the displaced atom
Thus, these vectors are normalized but *not* orthogonal

                  0          1          2          3          4          5    
      0       0.000000   0.000000   0.000000   0.000000   0.000000   0.000000
      1       0.000000   0.000000   0.000000   0.000000   0.000000   0.000000
      2       0.000000   0.000000   0.000000   0.000000   0.000000   0.000000
      3       0.000000   0.000000   0.000000   0.000000   0.000000   0.000000
      4       0.000000   0.000000   0.000000   0.000000   0.000000   0.000000
      5       0.000000   0.000000   0.000000   0.000000   0.000000   0.000000
      6       0.000000   0.000000   0.000000   0.000000   0.000000   0.000000
      7       0.000000   0.000000   0.000000   0.000000   0.000000   0.000000
      8       0.000000   0.000000   0.000000   0.000000   0.000000   0.000000
      9       0.000000   0.000000   0.000000   0.000000   0.000000   0.000000
     10       0.000000   0.000000   0.000000   0.000000   0.000000   0.000000
     11       0.000000   0.000000   0.000000   0.000000   0.000000   0.000000
     12       0.000000   0.000000   0.000000   0.000000   0.000000   0.000000
     13       0.000000   0.000000   0.000000   0.000000   0.000000   0.000000
     14       0.000000   0.000000   0.000000   0.000000   0.000000   0.000000
     15       0.000000   0.000000   0.000000   0.000000   0.000000   0.000000
     16       0.000000   0.000000   0.000000   0.000000   0.000000   0.000000
     17       0.000000   0.000000   0.000000   0.000000   0.000000   0.000000
                  6          7          8          9         10         11    
      0      -0.000173  -0.016158  -0.115690   0.000092  -0.000008  -0.066990
      1      -0.384804   0.451305  -0.012563   0.155077  -0.047974   0.000026
      2       0.160771  -0.023162   0.000657   0.532499   0.004980   0.000006
      3      -0.000097  -0.062393  -0.442404  -0.000013   0.000069   0.199834
      4      -0.346106   0.485640  -0.013370  -0.041876   0.204013  -0.000073
      5       0.113462  -0.187271   0.005285   0.663883   0.641379   0.000040
      6       0.000413   0.016709   0.262351   0.002252   0.072427   0.074214
      7      -0.377998   0.470319   0.501137   0.155584   0.029862   0.270444
      8       0.268162  -0.185009  -0.247157   0.302964  -0.515805   0.631717
      9      -0.000847   0.057753   0.260752  -0.002134  -0.072468   0.073913
     10      -0.377859   0.325199  -0.523589   0.155654   0.030010  -0.270506
     11       0.268111  -0.113857   0.255477   0.302954  -0.515741  -0.631809
     12       0.000010   0.000513   0.003703  -0.000013   0.000002   0.004356
     13       0.023289  -0.021782   0.000607  -0.024624   0.004566  -0.000002
     14      -0.092712  -0.040718   0.001136  -0.043643   0.000920  -0.000000
     15       0.000071   0.006148   0.044124   0.000023  -0.000007  -0.005206
     16       0.146190  -0.207803   0.005788   0.052142  -0.014172   0.000002
     17       0.483168   0.312417  -0.008722  -0.112512   0.011405  -0.000000
                 12         13         14         15         16         17    
      0      -0.000012   0.000031  -0.066730   0.000027   0.000038  -0.095128
      1      -0.035698   0.058539   0.000023   0.079528   0.066349   0.000048
      2      -0.104627  -0.040689  -0.000001  -0.059888  -0.009058   0.000003
      3       0.000033   0.000056   0.900743  -0.000296  -0.000011  -0.023821
      4       0.208544   0.313416  -0.000249  -0.914894  -0.026182   0.000009
      5       0.560679   0.328533   0.000052   0.363880   0.035774   0.000004
      6       0.163582  -0.367996   0.077166  -0.098842   0.592091   0.572386
      7       0.299586  -0.485615   0.143559  -0.015758  -0.380068  -0.406348
      8       0.445453   0.152136  -0.255833  -0.014450   0.040807   0.050379
      9      -0.163301   0.367560   0.077074   0.098844  -0.592527   0.572637
     10       0.299769  -0.485920  -0.143671  -0.015876  -0.379610   0.405766
     11       0.445398   0.152052   0.255897  -0.014409   0.040859  -0.050414
     12      -0.000001   0.000000  -0.000364  -0.000000  -0.000000   0.000053
     13      -0.001894   0.000291   0.000000  -0.000181  -0.000049  -0.000000
     14      -0.002184  -0.000704  -0.000000   0.000941  -0.000045  -0.000000
     15      -0.000003  -0.000001  -0.011356  -0.000001   0.000000   0.000298
     16      -0.007648  -0.004037   0.000004   0.001150   0.000076  -0.000000
     17       0.003721  -0.003147  -0.000003   0.013803  -0.000206  -0.000000


-----------
IR SPECTRUM
-----------

 Mode   freq       eps      Int      T**2         TX        TY        TZ
       cm**-1   L/(mol*cm) km/mol    a.u.
----------------------------------------------------------------------------
  6:     74.96   0.002435   12.31  0.010137  (-0.000010 -0.018301 -0.099003)
  7:    339.46   0.039082  197.50  0.035928  ( 0.000060  0.074493 -0.174295)
  8:    339.53   0.000156    0.79  0.000143  ( 0.000392 -0.004689  0.010990)
  9:    445.89   0.064112  323.99  0.044870  (-0.000016 -0.035853  0.208768)
 10:    854.37   0.059392  300.14  0.021693  (-0.000017 -0.029946  0.144209)
 11:    946.61   0.000933    4.72  0.000308  ( 0.017542 -0.000011  0.000004)
 12:   1281.90   0.037968  191.88  0.009243  (-0.000031 -0.059305  0.075670)
 13:   1431.96   0.008066   40.76  0.001758  (-0.000012 -0.022607  0.035310)
 14:   1495.84   0.002550   12.89  0.000532  ( 0.023065 -0.000013 -0.000024)
 15:   1761.48   0.294156  1486.54  0.052112  (-0.000034 -0.080063  0.213781)
 16:   3053.44   0.003694   18.67  0.000378  ( 0.000010  0.017036  0.009344)
 17:   3136.68   0.003020   15.26  0.000300  (-0.017333  0.000008  0.000002)

* The epsilon (eps) is given for a Dirac delta lineshape.
** The dipole moment derivative (T) already includes vibrational overlap.

The first frequency considered to be a vibration is 6
The total number of vibrations considered is 12


--------------------------
THERMOCHEMISTRY AT 298.15K
--------------------------

Temperature         ...   298.15 K
Pressure            ...     1.00 atm
Total Mass          ...   160.93 AMU
Quasi RRHO          ...     True
Cut-Off Frequency   ...     1.00 cm^-1

Throughout the following assumptions are being made:
  (1) The electronic state is orbitally nondegenerate
  (2) There are no thermally accessible electronically excited states
  (3) Hindered rotations indicated by low frequency modes are not
      treated as such but are treated as vibrations and this may
      cause some error
  (4) All equations used are the standard statistical mechanics
      equations for an ideal gas
  (5) All vibrations are strictly harmonic

freq.      74.96  E(vib)   ...       0.49 
freq.     339.46  E(vib)   ...       0.23 
freq.     339.53  E(vib)   ...       0.23 
freq.     445.89  E(vib)   ...       0.17 
freq.     854.37  E(vib)   ...       0.04 
freq.     946.61  E(vib)   ...       0.03 
freq.    1281.90  E(vib)   ...       0.01 
freq.    1431.96  E(vib)   ...       0.00 
freq.    1495.84  E(vib)   ...       0.00 
freq.    1761.48  E(vib)   ...       0.00 
freq.    3053.44  E(vib)   ...       0.00 
freq.    3136.68  E(vib)   ...       0.00 

------------
INNER ENERGY
------------

The inner energy is: U= E(el) + E(ZPE) + E(vib) + E(rot) + E(trans)
    E(el)   - is the total energy from the electronic structure calculation
              = E(kin-el) + E(nuc-el) + E(el-el) + E(nuc-nuc)
    E(ZPE)  - the the zero temperature vibrational energy from the frequency calculation
    E(vib)  - the the finite temperature correction to E(ZPE) due to population
              of excited vibrational states
    E(rot)  - is the rotational thermal energy
    E(trans)- is the translational thermal energy

Summary of contributions to the inner energy U:
Electronic energy                ...   -437.50311018 Eh
Zero point energy                ...      0.03454189 Eh      21.68 kcal/mol
Thermal vibrational correction   ...      0.00193175 Eh       1.21 kcal/mol
Thermal rotational correction    ...      0.00141627 Eh       0.89 kcal/mol
Thermal translational correction ...      0.00141627 Eh       0.89 kcal/mol
-----------------------------------------------------------------------
Total thermal energy                   -437.46380400 Eh


Summary of corrections to the electronic energy:
(perhaps to be used in another calculation)
Total thermal correction                  0.00476429 Eh       2.99 kcal/mol
Non-thermal (ZPE) correction              0.03454189 Eh      21.68 kcal/mol
-----------------------------------------------------------------------
Total correction                          0.03930618 Eh      24.66 kcal/mol


--------
ENTHALPY
--------

The enthalpy is H = U + kB*T
                kB is Boltzmann's constant
Total thermal energy              ...   -437.46380400 Eh 
Thermal Enthalpy correction       ...      0.00094421 Eh       0.59 kcal/mol
-----------------------------------------------------------------------
Total Enthalpy                    ...   -437.46285979 Eh


Note: Rotational entropy computed according to Herzberg 
Infrared and Raman Spectra, Chapter V,1, Van Nostrand Reinhold, 1945 
Point Group:  Cs, Symmetry Number:   1  
Rotational constants in cm-1:     0.810996     0.052386     0.049673 

Vibrational entropy computed according to the QRRHO of S. Grimme
Chem.Eur.J. 2012 18 9955 using a reference frequency of 100.0 cm-1


-------
ENTROPY
-------

The entropy contributions are T*S = T*(S(el)+S(vib)+S(rot)+S(trans))
     S(el)   - electronic entropy
     S(vib)  - vibrational entropy
     S(rot)  - rotational entropy
     S(trans)- translational entropy
The entropies will be listed as multiplied by the temperature to get
units of energy

Electronic entropy                ...      0.00000000 Eh      0.00 kcal/mol
Vibrational entropy               ...      0.00329788 Eh      2.07 kcal/mol
Rotational entropy                ...      0.01241931 Eh      7.79 kcal/mol
Translational entropy             ...      0.01954513 Eh     12.26 kcal/mol
-----------------------------------------------------------------------
Final entropy term                ...      0.03526231 Eh     22.13 kcal/mol

In case the symmetry of your molecule has not been determined correctly
or in case you have a reason to use a different symmetry number we print 
out the resulting rotational entropy values for sn=1,12:

 non-linear molecules -----------------------------------
|  sn= 1 | S(rot)=       0.01241931 Eh      7.79 kcal/mol|
|  sn= 2 | S(rot)=       0.01176485 Eh      7.38 kcal/mol|
|  sn= 3 | S(rot)=       0.01138202 Eh      7.14 kcal/mol|
|  sn= 4 | S(rot)=       0.01111039 Eh      6.97 kcal/mol|
|  sn= 5 | S(rot)=       0.01089971 Eh      6.84 kcal/mol|
|  sn= 6 | S(rot)=       0.01072756 Eh      6.73 kcal/mol|
|  sn= 7 | S(rot)=       0.01058202 Eh      6.64 kcal/mol|
|  sn= 8 | S(rot)=       0.01045594 Eh      6.56 kcal/mol|
|  sn= 9 | S(rot)=       0.01034473 Eh      6.49 kcal/mol|
|  sn=10 | S(rot)=       0.01024525 Eh      6.43 kcal/mol|
|  sn=11 | S(rot)=       0.01015526 Eh      6.37 kcal/mol|
|  sn=12 | S(rot)=       0.01007311 Eh      6.32 kcal/mol|
 linear molecules ---------------------------------------
|  Dinfh | S(rot)=       0.00816051 Eh      5.12 kcal/mol|
|  Cinfv | S(rot)=       0.00881496 Eh      5.53 kcal/mol|
 --------------------------------------------------------


-------------------
GIBBS FREE ENERGY
-------------------

The Gibbs free energy is G = H - T*S

Total enthalpy                    ...   -437.46285979 Eh 
Total entropy correction          ...     -0.03526231 Eh    -22.13 kcal/mol
-----------------------------------------------------------------------
Final Gibbs free energy         ...   -437.49812211 Eh

For completeness - the Gibbs free energy minus the electronic energy
G-E(el)                           ...      0.00498808 Eh      3.13 kcal/mol


Maximum memory used throughout the entire PROP-calculation: 27.8 MB

--------------------------------
SUGGESTED CITATIONS FOR THIS RUN
--------------------------------

Below you find a list of papers that are relevant to this ORCA run
We neither can nor want to force you to cite these papers, but we appreciate if you do
You receive ORCA, which is the product of decades of hard work by many enthusiastic individuals, for free
The only thing we kindly ask in return is that you cite our papers,
We deeply appreciate it, if you show your appreciation for ORCA by not just citing the generic ORCA reference.

Please note that relegating all ORCA citations to the supporting information does *not* help us.
SI sections are not indexed - citations you put there will not count into any citation statistics
But we need these citations in order to attract the funding resources that allow us to do what we are doing

Therefore, if you are a happy ORCA user, please consider citing a few of the papers listed below in the main body of your paper

In addition to the list printed below, the program has created the file reactant_optfreq.bibtex that contains the list in bibtex format
You can import this file easily into all common literature databanks and citation aid programs


List of essential papers. We consider these as the minimum necessary citations

  1. Grimme, S.; Hansen, A.; Ehlert, S.; Mewes, J.
     r2SCAN-3c: A 'Swiss army knife' composite electronic-structure method
     J. Chem. Phys. 2021 154 , 064103
     doi.org/10.1063/5.0040021
  2. Neese, F.
     Software update: the ORCA program system, version 6.0
     WIRES Comput. Molec. Sci. 2025 15(1), e70019
     doi.org/10.1002/wcms.7019

List of papers to cite with high priority. The work reported in these papers was absolutely
necessary for this run to complete.
Our perspective: the developers of density functionals and basis sets usually get cited in chemistry papers
Good! But without the algorithms to do something with them, the functionals or basis sets would not do anything.
Hence, in our opinion, the algorithm design and method developments papers are equally worthy of getting cited

  1. Neese, F.
     An improvement of the resolution of the identity approximation for the formation of the Coulomb matrix
     J. Comp. Chem. 2003 24(14), 1740-1747
     doi.org/10.1002/jcc.10318
  2. Bykov, D.; Petrenko, T.; Izsak, R.; Kossmann, S.; Becker, U.; Valeev, E.; Neese, F.
     Efficient implementation of the analytic second derivatives of Hartree-Fock and hybrid DFT energies: a detailed analysis of different approximations
     Molec. Phys. 2015 113 , 1961-1977
     doi.org/10.1080/00268976.2015.1025114
  3. Caldeweyher, E.; Bannwarth, C.; Grimme, S.
     Extension of the D3 dispersion coefficient model
     J. Chem. Phys. 2017 147 , 034112
     doi.org/10.1063/1.4993215
  4. Lehtola, S.; Steigemann, C.; Oliveira, M.; Marques, M.
     Recent developments in Libxc - A comprehensive library of functionals for density functional theory
     Software X 2018 7 , 
     doi.org/10.1016/j.softx.2017.11.002
  5. Caldeweyher, E.; Ehlert, S.; Hansen, A.; Neugebauer, H.; Spicher, S.; Bannwarth, C.; Grimme, S.
     A generally applicable atomic-charge dependent London dispersion correction
     J. Chem. Phys. 2019 150 , 154122
     doi.org/10.1063/1.5090222
  6. Caldeweyher, E.; Mewes, J.; Ehlert, S.; Grimme, S.
     Extension and evaluation of the D4 London-dispersion model for periodic systems
     Phys. Chem. Chem. Phys. 2020 22(16), 8499-8512
     doi.org/10.1039/D0CP00502A
  7. Neese, F.
     The SHARK Integral Generation and Digestion System
     J. Comp. Chem. 2022 44(3), 381
     doi.org/10.1002/jcc.26942
  8. Wittmann, L.; Gordiy, I.; Friede, M.; Helmich-Paris, B.; Grimme, S.; Hansen, A.; Bursch, M.
     Extension of the D3 and D4 London Dispersion Corrections to the full Actinides Series
     Phys. Chem. Chem. Phys. 2024 26(32), 21379-21394
     doi.org/10.1039/D4CP01514B

List of suggested additional citations. These are papers that are important in the 'surrounding' of 
of this run, or papers that preceded the highly important papers. If you like your results we are grateful for a citation.

  1. Neese, F.
     The ORCA program system
     WIRES Comput. Molec. Sci. 2012 2(1), 73-78
     doi.org/10.1002/wcms.81
  2. Neese, F.
     Software update: the ORCA program system, version 4.0
     WIRES Comput. Molec. Sci. 2018 8(1), 1-6
     doi.org/10.1002/wcms.1327
  3. Neese, F.; Wennmohs, F.; Becker, U.; Riplinger, C.
     The ORCA quantum chemistry program package
     J. Chem. Phys. 2020 152(22), 224108
     doi.org/10.1063/5.0004608
  4. Neese, F.
     Software update: The ORCA program system—Version 5.0
     WIRES Comput. Molec. Sci. 2022 12(1), e1606
     doi.org/10.1002/wcms.1606

List of optional additional citations

  1. Neese, F.
     Approximate second-order SCF convergence for spin unrestricted wavefunctions
     Chem. Phys. Lett. 2000 325(1-3), 93-98
     doi.org/10.1016/s0009-2614(00)00662-x

Timings for individual modules:

Sum of individual times          ...      167.898 sec (=   2.798 min)
Startup calculation              ...       25.493 sec (=   0.425 min)  15.2 %
SCF iterations                   ...       79.917 sec (=   1.332 min)  47.6 %
Property integrals               ...       20.116 sec (=   0.335 min)  12.0 %
SCF Response                     ...        4.792 sec (=   0.080 min)   2.9 %
Property calculations            ...        6.497 sec (=   0.108 min)   3.9 %
SCF Gradient evaluation          ...       31.048 sec (=   0.517 min)  18.5 %
Geometry relaxation              ...        0.035 sec (=   0.001 min)   0.0 %
                             ****ORCA TERMINATED NORMALLY****
TOTAL RUN TIME: 0 days 0 hours 2 minutes 58 seconds 784 msec
