
                                 *****************
                                 * O   R   C   A *
                                 *****************

                                            #,                                       
                                            ###                                      
                                            ####                                     
                                            #####                                    
                                            ######                                   
                                           ########,                                 
                                     ,,################,,,,,                         
                               ,,#################################,,                 
                          ,,##########################################,,             
                       ,#########################################, ''#####,          
                    ,#############################################,,   '####,        
                  ,##################################################,,,,####,       
                ,###########''''           ''''###############################       
              ,#####''   ,,,,##########,,,,          '''####'''          '####       
            ,##' ,,,,###########################,,,                        '##       
           ' ,,###''''                  '''############,,,                           
         ,,##''                                '''############,,,,        ,,,,,,###''
      ,#''                                            '''#######################'''  
     '                                                          ''''####''''         
             ,#######,   #######,   ,#######,      ##                                
            ,#'     '#,  ##    ##  ,#'     '#,    #''#        ,####,    ,#,          
            ##       ##  ##   ,#'  ##            #'  '#       #'       ,# #          
            ##       ##  #######   ##           ,######,      #####,      #          
            '#,     ,#'  ##    ##  '#,     ,#' ,#      #,     #,   #      #          
             '#######'   ##     ##  '#######'  #'      '#     '####' #    #          



                #########################################################
                #                        -***-                          #
                #          Department of theory and spectroscopy        #
                #                                                       #
                #                      Frank Neese                      #
                #                                                       #
                #     Directorship, Architecture, Infrastructure        #
                #                    SHARK, DRIVERS                     #
                #        Core code/Algorithms in most modules           #
                #                                                       #
                #        Max Planck Institute fuer Kohlenforschung      #
                #                Kaiser Wilhelm Platz 1                 #
                #                 D-45470 Muelheim/Ruhr                 #
                #                      Germany                          #
                #                                                       #
                #                  All rights reserved                  #
                #                        -***-                          #
                #########################################################


                         Program Version 6.1.0  -  RELEASE   -
                                (GIT: $679e74b$)
                          ($2025-06-10 18:02:51 +0200$)


 With contributions from (in alphabetic order):
[Max-Planck-Institut fuer Kohlenforschung]                               
  Daniel Aravena         : Magnetic Suceptibility                        
  Michael Atanasov       : Ab Initio Ligand Field Theory (pilot matlab implementation)
  Alexander A. Auer      : GIAO ZORA, VPT2 properties, NMR spectrum      
  Ute Becker             : All parallelization in ORCA, NUMFREQ, NUMCALC 
  Giovanni Bistoni       : ED, misc. LED, open-shell LED, HFLD           
  Dmytro Bykov           : pre 5.0 version of the SCF Hessian            
  Marcos Casanova-Páez   : Triplet and SCS-CIS(D). UHF-(DLPNO)-IP/EA/STEOM-CCSD. UHF-CVS-IP/STEOM-CCSD   
  Vijay G. Chilkuri      : MRCI spin determinant printing, contributions to CSF-ICE 
  Pauline Colinet        : FMM embedding                                 
  Dipayan Datta          : RHF DLPNO-CCSD density                        
  Achintya Kumar Dutta   : EOM-CC, STEOM-CC                              
  Nicolas Foglia         : Exact transition moments, OPA infrastructure, MCD improvements    
  Dmitry Ganyushin       : Spin-Orbit,Spin-Spin,Magnetic field MRCI      
  Miquel Garcia-Rates    : C-PCM and meta-GGA Hessian, CCSD/C-PCM, Gaussian charge scheme 
  Tiago L. C. Gouveia    : GS-ROHF, GS-ROCIS                             
  Yang Guo               : DLPNO-NEVPT2, F12-NEVPT2, CIM, IAO-localization        
  Andreas Hansen         : Spin unrestricted coupled pair/coupled cluster methods 
  Ingolf Harden          : AUTO-CI MPn and infrastructure                
  Benjamin Helmich-Paris : MC-RPA, TRAH-(SCF,CASSCF), AVAS, COSX integrals, SCF dyn. polar., MC-PDFT, srDFT 
  Lee Huntington         : MR-EOM, pCC                                   
  Robert Izsak           : Overlap fitted RIJCOSX, COSX-SCS-MP3, EOM     
  Riya Kayal             : Wick's Theorem for AUTO-CI, AUTO-CI UHF-CCSDT 
  Emily Kempfer          : AUTO-CI RHF CISDT and CCSDT, approximate NEVPT4
  Christian Kollmar      : KDIIS, OOCD, Brueckner-CCSD(T), CCSD density, CASPT2, CASPT2-K, improved NEVPT2 
  Axel Koslowski         : Symmetry handling                             
  Simone Kossmann        : meta-GGA functionals, TD-DFT gradient, OOMP2, (MP2 Hessian; deprecated post 5.0) 
  Lucas Lang             : DCDCAS, Hyperfine gauge corrections, ICE-SOC+SSC
  Marvin Lechner         : AUTO-CI (C++ implementation), FIC-MRCC        
  Spencer Leger          : CASSCF response                               
  Dagmar Lenk            : GEPOL surface, SMD, ORCA-2-JSON               
  Dimitrios Liakos       : Extrapolation schemes; Compound Job, Property file
  Dimitrios Manganas     : Further ROCIS development; embedding schemes. LFT, Crystal Embedding 
  Dimitrios Pantazis     : SARC Basis sets                               
  Anastasios Papadopoulos: AUTO-CI, single reference methods and gradients 
  Taras Petrenko         : pre 6.0 DFT Hessian and TD-DFT gradient,  ECA, NRVS 
  Petra Pikulova         : Analytic Raman intensities                    
  Peter Pinski           : DLPNO-MP2, DLPNO-MP2 Gradient                 
  Shashank Vittal Rao    : ES-AILFT, MagRelax                            
  Christoph Reimann      : Effective Core Potentials                     
  Marius Retegan         : Local ZFS, SOC                                
  Christoph Riplinger    : Optimizer, TS searches, QM/MM, DLPNO-CCSD(T), (RO)-DLPNO pert. Triples 
  Michael Roemelt        : Original ROCIS implementation, recursive CI coupling coefficients
  Masaaki Saitow         : Open-shell DLPNO-CCSD energy and density      
  Barbara Sandhoefer     : DKH picture change effects                    
  Yorick L. A. Schmerwitz: GMF and freeze-and-release deltaSCF, NEB S-IDPP initial path                    
  Kantharuban Sivalingam : CASSCF convergence/infrastructure, NEVPT2, NEVPT3, NEVPT4(SD), FIC-MRCI and CEPA variants
  Bernardo de Souza      : ESD, SOC TD-DFT                               
  Georgi L. Stoychev     : AutoAux, RI-MP2 NMR, DLPNO-MP2 response, X2C  
  Van Anh Tran           : RI-MP2 g-tensors                              
  Willem Van den Heuvel  : Paramagnetic NMR                              
  Zikuan Wang            : NOTCH, Electric field optimization            
  Frank Wennmohs         : Technical directorship and infrastructure     
  Hang Xu                : AUTO-CI-Response properties                   
                                                                         
[FACCTs GmbH]                                                            
  Markus Bursch, Nicolas Foglia, Miquel Garcia-Rates, Ingolf Harden, Hagen Neugebauer, Anastasios Papadopoulos, 
  Christoph Riplinger, Bernardo de Souza, Georgi L. Stoychev                                                    
                                                                 
  APM, various basis sets, CI-OPT, improved COSX, DLPNO-Multilevel,           
  DOCKER, DRACO, updates on ESD, Fragmentator, GOAT, IRC, LR-CPCM, L-BFGS, MBIS, meta-GGA TD-DFT gradient, ML-optimized integration grids, 
  MM, NACMEs, nearIR, NEB, NEB-TS, NL-DFT gradient (VV10), 2- and 3-layer-ONIOM, interface openCOSMO-RS, QMMM,   
  Crystal-QMMM, RESP, rigid body optimization, SF, symmetry and pop. for TD-DFT, various functionals, SOLVATOR                                   
                                                                         
[Other institutions]                                                     
  V. Asgeirsson          : NEB                                           
  Christoph Bannwarth    : sTDA-DFT, sTD-DFT, PBEh-3c, B97-3c, D3        
  Giovanni Bistoni       : ETS/NOCV, ADLD/ADEX, COVALED                  
  Martin Brehm           : Molecular dynamics                            
  Ronald Cardenas        : ETS/NOCV                                      
  Martina Colucci        : COVALED                                       
  Sebastian Ehlert       : rSCAN, r2SCAN, r2SCAN-3c, D4, dhf basis sets  
  Marvin Friede          : D4 for Fr, Ra, Ac-Lr                          
  Lars Goerigk           : TD-DFT with DH, B97 family of functionals     
  Stefan Grimme          : VdW corrections, initial TS optimization, DFT functionals, gCP, sTDA/sTD-DF 
  Waldemar Hujo          : DFT-NL                                        
  H. Jonsson             : NEB                                           
  Holger Kruse           : gCP                                           
  Marcel Mueller         : wB97X-3c, vDZP basis set                      
  Hagen Neugebauer       : wr2SCAN, Native XTB                           
  Gianluca Regni         : ADLD/ADEX                                     
  Tobias Risthaus        : pre 6.0 range-separated hybrid DFT and stability analysis
  Lukas Wittmann         : regularized MP2, r2SCAN double-hybrids, wr2SCAN        
                                                                         
We gratefully acknowledge several colleagues who have allowed us to      
interface, adapt or use parts of their codes:                            
  Ed Valeev, F. Pavosevic, A. Kumar             : LibInt (2-el integral package), F12 methods 
  Garnet Chan, S. Sharma, J. Yang, R. Olivares  : DMRG                   
  Ulf Ekstrom                                   : XCFun DFT Library      
  Mihaly Kallay                                 : mrcc  (arbitrary order and MRCC methods)
  Frank Weinhold                                : gennbo (NPA and NBO analysis)           
  Simon Mueller                                 : openCOSMO-RS                            
  Christopher J. Cramer and Donald G. Truhlar   : smd solvation model                     
  S Lehtola, MJT Oliveira, MAL Marques          : LibXC Library                           
  Liviu Ungur et al                             : ANISO software                          


 Your calculation uses the libint2 library for the computation of 2-el integrals
 For citations please refer to: http://libint.valeyev.net

 Your ORCA version has been built with support for libXC version: 7.0.0
 For citations please refer to: https://libxc.gitlab.io

 This ORCA versions uses:
   CBLAS   interface :  Fast vector & matrix operations
   LAPACKE interface :  Fast linear algebra routines
   SCALAPACK package :  Parallel linear algebra routines
   Shared memory     :  Shared parallel matrices
   BLAS/LAPACK       :  OpenBLAS 0.3.29  USE64BITINT DYNAMIC_ARCH NO_AFFINITY SkylakeX SINGLE_THREADED
        Core in use  :  SkylakeX
   Copyright (c) 2011-2014, The OpenBLAS Project


  ***********************************
  * Starting time: Thu Mar 12 13:32:00 2026
  * Host name:     midway3-login4.rcc.local
  * Process ID:    3105166
  * Working dir.:  /home/rzhu16/orca_TS_search/sn2_i_f/DFT_test
  ***********************************

Your calculation utilizes the geometrical counterpoise correction gCP
Please cite in your paper:
H.Kruse, S. Grimme J.Chem.Phys., 136, (2012), 154101 
   

Your calculation utilizes the atom-pairwise dispersion correction
based on EEQ partial charges (D4)


================================================================================

cite the ECPs for I  [Def2-ECP] as follows:
Ce-Yb(ecp-28): M. Dolg, H. Stoll, H.Preuss, J. Chem. Phys., 1989, 90, 1730-1734.
Y-Cd(ecp-28), Hf-Hg(ecp-46): D. Andrae,U. Haeussermann, M. Dolg, H. Stoll, H. Preuss, Theor. Chim. Acta, 1990, 77, 123-141.
In-Sb(ecp-28), Tl-Bi(ecp-46): B. Metz, H. Stoll, M. Dolg, J. Chem. Phys., 2000, 113, 2563-2569.
Te-Xe(ecp-28), Po-Rn(ecp-46): K. A. Peterson, D. Figgen, E. Goll, H. Stoll, M. Dolg, J. Chem. Phys., 2003, 119, 11113-11123.
Rb(ecp-28), Cs(ecp-46): T. Leininger, A. Nicklass, W. Kuechle, H. Stoll, M. Dolg, A. Bergner, Chem. Phys. Lett., 1996, 255, 274-280.
Sr(ecp-28), Ba(ecp-46): M. Kaupp, P. V. Schleyer, H. Stoll and H. Preuss, J. Chem. Phys., 1991, 94, 1360-1366.
La(ecp-46): M. Dolg, H. Stoll, A. Savin, H. Preuss, Theor. Chim. Acta, 1989, 75, 173-194.
Lu(ecp-28): X. Cao, M. Dolg, J. Chem. Phys., 2001, 115, 7348-7355.
Fr-Ra(ecp-78) K. Eichkorn, F. Weigend, O. Treutler, R. Ahlrichs, Theor. Chem. Acc. 1997, 97, 119.
Ac-Lr(ecp-60) K. Eichkorn, F. Weigend, O. Treutler, R. Ahlrichs, Theor. Chem. Acc. 1997, 97, 119.

ECP parameters for I  [Def2-ECP] have been obtained from:
TURBOMOLE (7.0.2)

----- Orbital basis set information -----
Your calculation utilizes the basis: def2-mTZVPP
   Stefan Grimme, Andreas Hansen, Sebastian Ehlert, and Jan-Michael Mewes 
   J. Chem. Phys. 154, 064103 (2021). DOI: 10.1063/5.0040021

----- AuxJ basis set information -----
Your calculation utilizes the basis: def2-mTZVPP/J
   Stefan Grimme, Andreas Hansen, Sebastian Ehlert, and Jan-Michael Mewes 
   J. Chem. Phys. 154, 000000 (2021). DOI: 10.1063/5.0040021

================================================================================
                                        WARNINGS
                       Please study these warnings very carefully!
================================================================================



WARNING: SCAN, rSCAN, or r2SCAN functional requested.
  ===> : libXC variant has now been activated.



WARNING: Geometry Optimization
  ===> : Switching off AutoStart
         For restart on a previous wavefunction, please use MOREAD

================================================================================
                                       INPUT FILE
================================================================================
NAME = ts_optfreq.inp
|  1> ! r2SCAN-3c OptTS Freq PAL8 SOSCF TightSCF
|  2> 
|  3> %pal
|  4>    nprocs 8
|  5> end
|  6> 
|  7> %scf
|  8>    MaxIter 150
|  9> end
| 10> 
| 11> %geom
| 12>   Calc_Hess true
| 13>   Recalc_Hess 5
| 14> end
| 15> 
| 16> * xyz -1 1
| 17>   C          -0.00009380654851     -0.18373776508783      0.19168984425687
| 18>   H           0.00034172277502      0.66332575360708     -0.49349789131661
| 19>   H           0.88703380797329     -0.78715150758551      0.04723813988585
| 20>   H          -0.88785311777276     -0.78622568202426      0.04725452864327
| 21>   I           0.00022962671874      0.39871402809579      2.31699926360535
| 22>   F           0.00034176685423      0.69507517299472     -2.28520388507473
| 23> *
| 24> 
| 25>                          ****END OF INPUT****
================================================================================

                       *****************************
                       * Geometry Optimization Run *
                       *****************************

Geometry optimization settings:
Update method            Update   .... Bofill
Choice of coordinates    CoordSys .... (2022) Redundant Internals
Initial Hessian          InHess   .... Almloef's Model
Max. no of cycles        MaxIter  .... 50

Convergence Tolerances:
Energy Change            TolE     ....  5.0000e-06 Eh
Max. Gradient            TolMAXG  ....  3.0000e-04 Eh/bohr
RMS Gradient             TolRMSG  ....  1.0000e-04 Eh/bohr
Max. Displacement        TolMAXD  ....  4.0000e-03 bohr
RMS Displacement         TolRMSD  ....  2.0000e-03 bohr
Strict Convergence                .... False

------------------------------------------------------------------------------
                        ORCA OPTIMIZATION COORDINATE SETUP
------------------------------------------------------------------------------

The optimization will be done in redundant internal coordinates (2022)
Making redundant internal coordinates   ...  (2022 redundants) done
Following TS mode number                ...     0
Evaluating the initial hessian          ...  (Is done on the fly) done
Evaluating the coordinates              ...  done
Calculating the B-matrix                .... done
Calculating the G-matrix                .... done
The number of degrees of freedom        ....   15

    -----------------------------------------------------------------
                    Redundant Internal Coordinates


    -----------------------------------------------------------------
         Definition                    Initial Value    d2E/dq (diagonal element)
    -----------------------------------------------------------------
      1. B(H   1,C   0)                  1.0895         0.000000   
      2. B(H   2,C   0)                  1.0826         0.000000   
      3. B(H   3,C   0)                  1.0826         0.000000   
      4. B(I   4,C   0)                  2.2037         0.000000   
      5. B(F   5,H   1)                  1.7920         0.000000   
      6. A(H   1,C   0,H   3)          110.4332         0.000000   
      7. A(H   1,C   0,H   2)          110.4332         0.000000   
      8. A(H   1,C   0,I   4)          113.6434         0.000000   
      9. A(H   2,C   0,I   4)          106.0151         0.000000   
     10. A(H   3,C   0,I   4)          106.0151         0.000000   
     11. A(H   2,C   0,H   3)          110.1200         0.000000   
     12. A(C   0,H   1,F   5)          129.9845         0.000000   
     13. D(F   5,H   1,C   0,H   3)    -61.0206         0.000000   
     14. D(F   5,H   1,C   0,I   4)    180.0000         0.000000   
     15. D(F   5,H   1,C   0,H   2)     61.0206         0.000000   
    -----------------------------------------------------------------

Number of atoms                         .... 6
Number of degrees of freedom            .... 15


         *************************************************************
         *                GEOMETRY OPTIMIZATION CYCLE   1            *
         *************************************************************
---------------------------------
CARTESIAN COORDINATES (ANGSTROEM)
---------------------------------
  C     -0.000094   -0.183738    0.191690
  H      0.000342    0.663326   -0.493498
  H      0.887034   -0.787152    0.047238
  H     -0.887853   -0.786226    0.047255
  I      0.000230    0.398714    2.316999
  F      0.000342    0.695075   -2.285204

----------------------------
CARTESIAN COORDINATES (A.U.)
----------------------------
  NO LB      ZA    FRAG     MASS         X           Y           Z
   0 C     6.0000    0    12.011   -0.000177   -0.347214    0.362241
   1 H     1.0000    0     1.008    0.000646    1.253504   -0.932576
   2 H     1.0000    0     1.008    1.676251   -1.487501    0.089267
   3 H     1.0000    0     1.008   -1.677799   -1.485751    0.089298
   4 I    25.0000*   0   126.900    0.000434    0.753460    4.378494
   5 F     9.0000    0    18.998    0.000646    1.313502   -4.318410
* core charge reduced due to ECP

--------------------------------
INTERNAL COORDINATES (ANGSTROEM)
--------------------------------
 C      0   0   0     0.000000000000     0.00000000     0.00000000
 H      1   0   0     1.089494849630     0.00000000     0.00000000
 H      1   2   0     1.082575560401   110.43316872     0.00000000
 H      1   2   3     1.082575560927   110.43316931   237.95876550
 I      1   2   3     2.203676547038   113.64340573   118.97938290
 F      2   1   3     1.791987274983   129.98449964    61.02061647

---------------------------
INTERNAL COORDINATES (A.U.)
---------------------------
 C      0   0   0     0.000000000000     0.00000000     0.00000000
 H      1   0   0     2.058846890118     0.00000000     0.00000000
 H      1   2   0     2.045771328435   110.43316872     0.00000000
 H      1   2   3     2.045771329428   110.43316931   237.95876550
 I      1   2   3     4.164345161646   113.64340573   118.97938290
 F      2   1   3     3.386365185189   129.98449964    61.02061647

---------------------
BASIS SET INFORMATION
---------------------
There are 4 groups of distinct atoms

 Group   1 Type C   : 11s6p1d contracted to 5s3p1d pattern {62111/411/1}
 Group   2 Type H   : 4s1p contracted to 2s1p pattern {31/1}
 Group   3 Type I   : 11s10p8d contracted to 6s5p3d pattern {521111/34111/611}
 Group   4 Type F   : 11s6p2d contracted to 5s3p2d pattern {62111/411/11}

Atom   0C    basis set group =>   1
Atom   1H    basis set group =>   2
Atom   2H    basis set group =>   2
Atom   3H    basis set group =>   2
Atom   4I    basis set group =>   3
Atom   5F    basis set group =>   4
---------------------------------
AUXILIARY/J BASIS SET INFORMATION
---------------------------------
There are 4 groups of distinct atoms

 Group   1 Type C   : 8s3p3d contracted to 6s3p3d pattern {311111/111/111}
 Group   2 Type H   : 5s2p1d contracted to 3s1p1d pattern {311/2/1}
 Group   3 Type I   : 11s5p5d3f1g contracted to 8s4p3d2f1g pattern {41111111/2111/311/21/1}
 Group   4 Type F   : 8s3p4d contracted to 6s3p4d pattern {311111/111/1111}

Atom   0C    basis set group =>   1
Atom   1H    basis set group =>   2
Atom   2H    basis set group =>   2
Atom   3H    basis set group =>   2
Atom   4I    basis set group =>   3
Atom   5F    basis set group =>   4
-------------------------
ECP PARAMETER INFORMATION
-------------------------

 Group 1, Type I  ECP Def2-ECP (replacing 28 core electrons, lmax=3)

Atom   4I    ECP group =>   1



           ************************************************************
           *        Program running with 8 parallel MPI-processes     *
           *              working on a common directory               *
           ************************************************************
------------------------------------------------------------------------------
                             ORCA STARTUP CALCULATIONS
                           -- RI-GTO INTEGRALS CHOSEN --
------------------------------------------------------------------------------
------------------------------------------------------------------------------
                   ___                                                        
                  /   \      - P O W E R E D   B Y -                         
                 /     \                                                     
                 |  |  |   _    _      __       _____    __    __             
                 |  |  |  | |  | |    /  \     |  _  \  |  |  /  |          
                  \  \/   | |  | |   /    \    | | | |  |  | /  /          
                 / \  \   | |__| |  /  /\  \   | |_| |  |  |/  /          
                |  |  |   |  __  | /  /__\  \  |    /   |      \           
                |  |  |   | |  | | |   __   |  |    \   |  |\   \          
                \     /   | |  | | |  |  |  |  | |\  \  |  | \   \       
                 \___/    |_|  |_| |__|  |__|  |_| \__\ |__|  \__/        
                                                                              
                      - O R C A' S   B I G   F R I E N D -                    
                                      &                                       
                       - I N T E G R A L  F E E D E R -                       
                                                                              
 v1 FN, 2020, v2 2021, v3 2022-2024                                           
------------------------------------------------------------------------------


----------------------
SHARK INTEGRAL PACKAGE
----------------------

Number of atoms                             ...      6
Number of basis functions                   ...     94
Number of shells                            ...     42
Maximum angular momentum                    ...      2
Integral batch strategy                     ... SHARK/LIBINT Hybrid
RI-J (if used) integral strategy            ... SPLIT-RIJ (Revised 2003 algorithm where possible)
Printlevel                                  ...      1
Contraction scheme used                     ... SEGMENTED contraction
Prescreening option                         ... SCHWARTZ
   Thresh                                   ... 2.500e-11
   Tcut                                     ... 2.500e-12
   Tpresel                                  ... 2.500e-12 
Coulomb Range Separation                    ... NOT USED
Exchange Range Separation                   ... NOT USED
Multipole approximations                    ... NOT USED
Finite Nucleus Model                        ... NOT USED
CABS basis                                  ... NOT available
Auxiliary Coulomb fitting basis             ... AVAILABLE
   # of basis functions in Aux-J            ...    156
   # of shells in Aux-J                     ...     58
   Maximum angular momentum in Aux-J        ...      4
Auxiliary J/K fitting basis                 ... NOT available
Auxiliary Correlation fitting basis         ... NOT available
Auxiliary 'external' fitting basis          ... NOT available

Checking pre-screening integrals            ... done (  0.0 sec) Dimension = 42
   => SHARK Basis and OBASIS are compatible. Storing Pre-screening
Shell pair information
Shell pair cut-off parameter TPreSel        ...   2.5e-12
Total number of shell pairs                 ...       903
Shell pairs after pre-screening             ...       835
Total number of primitive shell pairs       ...      3409
Primitive shell pairs kept                  ...      2457
          la=0 lb=0:    227 shell pairs
          la=1 lb=0:    285 shell pairs
          la=1 lb=1:    101 shell pairs
          la=2 lb=0:    122 shell pairs
          la=2 lb=1:     80 shell pairs
          la=2 lb=2:     20 shell pairs

Checking whether 4 symmetric matrices of dimension 94 fit in memory
:Max Core in MB      =   4096.00
 MB in use           =      4.34
 MB left             =   4091.66
 MB needed           =      0.14
 Data fit in memory  = YES
Calculating RI/J V-Matrix + Cholesky decomp.... done (  0.0 sec)
Calculating Nuclear repulsion               ... done (  0.0 sec) ENN=    102.771259436583 Eh

Diagonalization of the overlap matrix:
Smallest eigenvalue                        ... 3.796e-03
Time for diagonalization                   ...    0.001 sec
Threshold for overlap eigenvalues          ... 1.000e-07
Number of eigenvalues below threshold      ... 0
Time for construction of square roots      ...    0.001 sec
Total time needed                          ...    0.003 sec

-------------------
DFT GRID GENERATION
-------------------

General Integration Accuracy     IntAcc      ... 4.388
Radial Grid Type                 RadialGrid  ... OptM3 with GC (2021)
Angular Grid (max. ang.)         AngularGrid ... 4 (Lebedev-302)
Angular grid pruning method      GridPruning ... 4 (adaptive)
Weight generation scheme         WeightScheme... mBecke (2022)
Basis function cutoff            BFCut       ... 1.0000e-11
Integration weight cutoff        WCut        ... 1.0000e-14
Partially contracted basis set               ... off
Rotationally invariant grid construction     ... off
Angular grids for H and He will be reduced by one unit

Total number of grid points                  ...    33622
Total number of batches                      ...      529
Average number of points per batch           ...       63
Average number of grid points per atom       ...     5604
Grids setup in   0.7 sec
Initializing property integral containers    ... done (  0.0 sec)

SHARK setup successfully completed in   1.1 seconds

Maximum memory used throughout the entire STARTUP-calculation: 12.4 MB


           ************************************************************
           *        Program running with 8 parallel MPI-processes     *
           *              working on a common directory               *
           ************************************************************
-------------------------------------------------------------------------------
                                 ORCA GUESS
                   Start orbitals & Density for SCF / CASSCF
-------------------------------------------------------------------------------

------------
SCF SETTINGS
------------
Hamiltonian:
 Density Functional     Method          .... DFT(GTOs)
  Functional kind                       .... Exchange
  Functional name                       .... Re-regularized SCAN exchange by Furness et al
  Functional family                     .... MGGA
  Functional refs                              
    [ 0] J. W. Furness, A. D. Kaplan, J. Ning, J. P. Perdew, and J. Sun.,  J. Phys. Chem. Lett. 11, 8208-8215 (2020), doi: 10.1021/acs.jpclett.0c02405
    [ 1] J. W. Furness, A. D. Kaplan, J. Ning, J. P. Perdew, and J. Sun.,  J. Phys. Chem. Lett. 11, 9248-9248 (2020), doi: 10.1021/acs.jpclett.0c03077
  Functional external parameters        .... 6
    Parameter  0 _c1        =  6.670000e-01 : c1 parameter        
    Parameter  1 _c2        =  8.000000e-01 : c2 parameter        
    Parameter  2 _d         =  1.240000e+00 : d parameter         
    Parameter  3 _k1        =  6.500000e-02 : k1 parameter        
    Parameter  4 _eta       =  1.000000e-03 : eta parameter       
    Parameter  5 _dp2       =  3.610000e-01 : dp2 parameter       
  Functional kind                       .... Correlation
  Functional name                       .... Re-regularized SCAN correlation by Furness et al
  Functional family                     .... MGGA
  Functional refs                              
    [ 0] J. W. Furness, A. D. Kaplan, J. Ning, J. P. Perdew, and J. Sun.,  J. Phys. Chem. Lett. 11, 8208-8215 (2020), doi: 10.1021/acs.jpclett.0c02405
    [ 1] J. W. Furness, A. D. Kaplan, J. Ning, J. P. Perdew, and J. Sun.,  J. Phys. Chem. Lett. 11, 9248-9248 (2020), doi: 10.1021/acs.jpclett.0c03077
  Functional external parameters        .... 1
    Parameter  0 _eta       =  1.000000e-03 : Regularization parameter
 Gradients option       PostSCFGGA      .... off
 RI-approximation to the Coulomb term is turned on
   Number of AuxJ basis functions       .... 156


General Settings:
 Integral files         IntName         .... ts_optfreq
 Hartree-Fock type      HFTyp           .... RHF
 Total Charge           Charge          ....   -1
 Multiplicity           Mult            ....    1
 Number of Electrons    NEL             ....   44
 Basis Dimension        Dim             ....   94
 Nuclear Repulsion      ENuc            ....    102.7712594366 Eh

Convergence Acceleration:
 AO-DIIS                CNVDIIS         .... on
   Start iteration      DIISMaxIt       ....    12
   Startup error        DIISStart       ....  0.200000
   # of expansion vecs  DIISMaxEq       ....     5
   Bias factor          DIISBfac        ....   1.050
   Max. coefficient     DIISMaxC        ....  10.000
 MO-DIIS                CNVKDIIS        .... off
 Trust-Rad. Augm. Hess. CNVTRAH         .... auto
   Auto Start mean grad. ratio tolernc. ....  1.125000
   Auto Start start iteration           ....    50
   Auto Start num. interpolation iter.  ....    10
   Max. Number of Micro iterations      ....    24
   Max. Number of Macro iterations      .... Maxiter - #DIIS iter
   Number of Davidson start vectors     ....     2
   Converg. threshold    (grad. norm)   ....   1.000e-05
   Grad. Scal. Fac. for Micro threshold ....   0.100
   Minimum threshold for Micro iter.    ....   1.000e-02
   NR start threshold (gradient norm)   ....   1.000e-04
   Initial trust radius                 ....   0.400
   Minimum AH scaling param. (alpha)    ....   1.000
   Maximum AH scaling param. (alpha)    .... 1000.000
   Quad. conv. algorithm                .... NR
   White noise on init. David. guess    .... on
   Maximum white noise                  ....   0.010
   Pseudo random numbers                .... off
   Inactive MOs                         .... canonical
   Orbital update algorithm             .... Taylor
   Preconditioner                       .... Diag
   Full preconditioner red. dimension   ....   250
   COSX micro iterations for RIJONX calc.... off
 SOSCF                 CNVSOSCF           .... on
   Start iteration     SOSCFMaxIt         ....   150
   Startup grad/error  SOSCFStart         ....  0.003300
   Hessian update      SOSCFHessUp        .... L-BFGS
   Autom. constraints  SOSCFAutoConstrain .... off
 Level Shifting         CNVShift        .... on
   Level shift para.    LevelShift      ....    0.2500
   Turn off err/grad.   ShiftErr        ....    0.0010
 Zerner damping         CNVZerner       .... off
 Static damping         CNVDamp         .... on
   Fraction old density DampFac         ....    0.7000
   Max. Damping (<1)    DampMax         ....    0.9800
   Min. Damping (>=0)   DampMin         ....    0.0000
   Turn off err/grad.   DampErr         ....    0.1000

SCF Procedure:
 Maximum # iterations   MaxIter         ....   150
 SCF integral mode      SCFMode         .... Direct
   Integral package                     .... SHARK and LIBINT hybrid scheme
 Reset frequency        DirectResetFreq ....    20
 Integral Threshold     Thresh          ....  2.500e-11 Eh
 Primitive CutOff       TCut            ....  2.500e-12 Eh

Convergence Tolerance:
 Convergence Check Mode ConvCheckMode   .... Total+1el-Energy
 Convergence forced     ConvForced      .... 0
 Energy Change          TolE            ....  1.000e-08 Eh
 1-El. energy change                    ....  1.000e-05 Eh
 Orbital Gradient       TolG            ....  1.000e-05
 Orbital Rotation angle TolX            ....  1.000e-05
 DIIS Error             TolErr          ....  5.000e-07

------------------------------
INITIAL GUESS: MODEL POTENTIAL
------------------------------
Loading Hartree-Fock densities                     ... done
Atomic calculation to generate a density for atom 4 (I  with ECP)
  Multiplicity assumed   :    2
  Atomic configuration   : 1s2 2s2 2p6 3s2 3p6 4s2 3d10 4p6 5s2 4d10 5p5 
  Number of open shells  : 1
  Command: /software/orca-6.1.0-el8-x86_64/bin/orca ts_optfreq_atom53.inp "" > ts_optfreq_atom53.out
Returned from the atomic calculation with res=0
Calculating cut-offs                               ... done
Initializing the effective Hamiltonian             ... done
Setting up the integral package (SHARK)            ... done
Starting the Coulomb interaction                   ... done (   0.0 sec)
Making the grid                                    ... done (   0.2 sec)
Mapping shells                                     ... done
Starting the XC term evaluation                    ... done (   0.1 sec)
  promolecular density results
     # of electrons  =     70.999431418
     EX              =   -189.026781067
     EC              =     -3.440177005
     EX+EC           =   -192.466958072
Transforming the Hamiltonian                       ... done (   0.0 sec)
Diagonalizing the Hamiltonian                      ... done (   0.0 sec)
Back transforming the eigenvectors                 ... done (   0.0 sec)
Now organizing SCF variables                       ... done
                      ------------------
                      INITIAL GUESS DONE (   6.3 sec)
                      ------------------
             **** ENERGY FILE WAS UPDATED (ts_optfreq.en.tmp) ****
Finished Guess after   6.9 sec
Maximum memory used throughout the entire GUESS-calculation: 7.2 MB


           ************************************************************
           *        Program running with 8 parallel MPI-processes     *
           *              working on a common directory               *
           ************************************************************

-------------------------------------------------------------------------------------------
                                      ORCA LEAN-SCF
                              memory conserving SCF solver
-------------------------------------------------------------------------------------------

----------------------------------------D-I-I-S--------------------------------------------
Iteration    Energy (Eh)           Delta-E    RMSDP     MaxDP     DIISErr   Damp  Time(sec)
-------------------------------------------------------------------------------------------
               ***  Starting incremental Fock matrix formation  ***
    1    -437.2610819127302761     0.00e+00  1.71e-02  7.97e-02  6.01e-01  0.700   0.6
Warning: op=0 Small HOMO/LUMO gap (   0.036) - skipping pre-diagonalization
         Will do a full diagonalization
    2    -437.3788182187541338    -1.18e-01  1.28e-02  6.09e-02  4.09e-01  0.700   0.5
    3    -437.4167315182640436    -3.79e-02  6.35e-03  4.39e-02  2.78e-01  0.700   0.6
                               ***Turning on AO-DIIS***
    4    -437.4400980251743363    -2.34e-02  3.38e-03  2.36e-02  1.89e-01  0.700   0.5
    5    -437.4587997522699538    -1.87e-02  2.33e-03  1.09e-02  1.32e-01  0.700   0.5
    6    -437.4717887339455160    -1.30e-02  1.70e-03  7.53e-03  9.36e-02  0.700   0.5
    7    -437.4809646698125221    -9.18e-03  4.10e-03  1.88e-02  6.61e-02  0.000   0.5
    8    -437.5022950008821567    -2.13e-02  8.72e-04  5.26e-03  1.57e-02  0.000   0.4
    9    -437.5024516030085238    -1.57e-04  3.57e-04  1.84e-03  5.42e-03  0.000   0.4
                              *** Initializing SOSCF ***
---------------------------------------S-O-S-C-F--------------------------------------
Iteration    Energy (Eh)           Delta-E    RMSDP     MaxDP     MaxGrad    Time(sec)
--------------------------------------------------------------------------------------
   10    -437.5024769547126766    -2.54e-05  1.35e-04  7.22e-04  1.40e-03     0.5
               *** Restarting incremental Fock matrix formation ***
   11    -437.5024815688124704    -4.61e-06  1.56e-04  9.41e-04  2.43e-04     0.5
   12    -437.5024809932223775     5.76e-07  5.97e-05  2.48e-04  4.08e-04     0.4
   13    -437.5024820657974374    -1.07e-06  3.27e-05  1.45e-04  8.00e-05     0.4
   14    -437.5024819420027029     1.24e-07  2.70e-05  1.30e-04  1.53e-04     0.4
   15    -437.5024820972897146    -1.55e-07  6.39e-06  3.97e-05  5.66e-06     0.4
   16    -437.5024820976649949    -3.75e-10  3.01e-06  2.42e-05  5.54e-06     0.4
                 **** Energy Check signals convergence ****

               *****************************************************
               *                     SUCCESS                       *
               *           SCF CONVERGED AFTER  16 CYCLES          *
               *****************************************************

             **** ENERGY FILE WAS UPDATED (ts_optfreq.en.tmp) ****

----------------
TOTAL SCF ENERGY
----------------

Total Energy       :       -437.50248209855880 Eh          -11905.04778 eV

Components:
Nuclear Repulsion  :        102.77125943658308 Eh            2796.54814 eV
Electronic Energy  :       -540.27374153514188 Eh          -14701.59592 eV
One Electron Energy:       -924.10622333910896 Eh          -25146.20875 eV
Two Electron Energy:        383.83248180396714 Eh           10444.61282 eV

Virial components:
Potential Energy   :       -688.92309941996223 Eh          -18746.55059 eV
Kinetic Energy     :        251.42061732140343 Eh            6841.50281 eV
Virial Ratio       :          2.74012174005315

DFT components:
N(Alpha)           :       22.000011647993 electrons
N(Beta)            :       22.000011647993 electrons
N(Total)           :       44.000023295986 electrons
E(X)               :      -37.824213590477 Eh       
E(C)               :       -1.662055957785 Eh       
E(XC)              :      -39.486269548262 Eh       

---------------
SCF CONVERGENCE
---------------

  Last Energy change         ...    3.7528e-10  Tolerance :   1.0000e-08
  Last MAX-Density change    ...    2.4164e-05  Tolerance :   1.0000e-07
  Last RMS-Density change    ...    3.0106e-06  Tolerance :   5.0000e-09
  Last DIIS Error            ...    1.4045e-03  Tolerance :   5.0000e-07
  Last Orbital Gradient      ...    5.5441e-06  Tolerance :   1.0000e-05
  Last Orbital Rotation      ...    1.0152e-05  Tolerance :   1.0000e-05


----------------
ORBITAL ENERGIES
----------------

  NO   OCC          E(Eh)            E(eV) 
   0   2.0000     -24.079784      -655.2442 
   1   2.0000      -9.900201      -269.3982 
   2   2.0000      -6.659398      -181.2114 
   3   2.0000      -4.674835      -127.2087 
   4   2.0000      -4.663327      -126.8956 
   5   2.0000      -4.663166      -126.8912 
   6   2.0000      -1.710682       -46.5500 
   7   2.0000      -1.708033       -46.4779 
   8   2.0000      -1.707852       -46.4730 
   9   2.0000      -1.698101       -46.2077 
  10   2.0000      -1.698097       -46.2076 
  11   2.0000      -0.710208       -19.3258 
  12   2.0000      -0.547614       -14.9013 
  13   2.0000      -0.451558       -12.2875 
  14   2.0000      -0.235061        -6.3963 
  15   2.0000      -0.218774        -5.9531 
  16   2.0000      -0.175543        -4.7768 
  17   2.0000      -0.093075        -2.5327 
  18   2.0000      -0.092619        -2.5203 
  19   2.0000       0.005389         0.1466 
  20   2.0000       0.006421         0.1747 
  21   2.0000       0.007344         0.1998 
  22   0.0000       0.096080         2.6145 
  23   0.0000       0.255489         6.9522 
  24   0.0000       0.290834         7.9140 
  25   0.0000       0.291851         7.9417 
  26   0.0000       0.303113         8.2481 
  27   0.0000       0.321777         8.7560 
  28   0.0000       0.325109         8.8467 
  29   0.0000       0.352378         9.5887 
  30   0.0000       0.355240         9.6666 
  31   0.0000       0.356820         9.7096 
  32   0.0000       0.380274        10.3478 
*Only the first 10 virtual orbitals were printed.

                    ********************************
                    * MULLIKEN POPULATION ANALYSIS *
                    ********************************

-----------------------
MULLIKEN ATOMIC CHARGES
-----------------------
   0 C :   -0.391420
   1 H :    0.285451
   2 H :    0.147671
   3 H :    0.147671
   4 I :   -0.379225
   5 F :   -0.810148
Sum of atomic charges:   -1.0000000

--------------------------------
MULLIKEN REDUCED ORBITAL CHARGES
--------------------------------
  0 C s       :     3.320819  s :     3.320819
      pz      :     0.787888  p :     3.050192
      px      :     1.065106
      py      :     1.197197
      dz2     :     0.006628  d :     0.020409
      dxz     :     0.001357
      dyz     :     0.004039
      dx2y2   :     0.001514
      dxy     :     0.006871

  1 H s       :     0.690443  s :     0.690443
      pz      :     0.012966  p :     0.024106
      px      :     0.003188
      py      :     0.007952

  2 H s       :     0.833503  s :     0.833503
      pz      :     0.003589  p :     0.018826
      px      :     0.008924
      py      :     0.006312

  3 H s       :     0.833503  s :     0.833503
      pz      :     0.003589  p :     0.018826
      px      :     0.008931
      py      :     0.006305

  4 I s       :     3.978075  s :     3.978075
      pz      :     3.392337  p :    11.345810
      px      :     4.004328
      py      :     3.949145
      dz2     :     2.024208  d :    10.055339
      dxz     :     2.014451
      dyz     :     2.013677
      dx2y2   :     2.000577
      dxy     :     2.002426

  5 F s       :     3.991244  s :     3.991244
      pz      :     1.877759  p :     5.818792
      px      :     1.986055
      py      :     1.954977
      dz2     :     0.000207  d :     0.000112
      dxz     :     0.000071
      dyz     :    -0.000119
      dx2y2   :    -0.000026
      dxy     :    -0.000020



                     *******************************
                     * LOEWDIN POPULATION ANALYSIS *
                     *******************************

----------------------
LOEWDIN ATOMIC CHARGES
----------------------
   0 C :   -0.524500
   1 H :    0.213031
   2 H :    0.149173
   3 H :    0.149173
   4 I :   -0.154895
   5 F :   -0.831982

-------------------------------
LOEWDIN REDUCED ORBITAL CHARGES
-------------------------------
  0 C s       :     3.103675  s :     3.103675
      pz      :     0.965241  p :     3.373194
      px      :     1.175130
      py      :     1.232824
      dz2     :     0.014560  d :     0.047631
      dxz     :     0.002859
      dyz     :     0.009479
      dx2y2   :     0.004022
      dxy     :     0.016711

  1 H s       :     0.714825  s :     0.714825
      pz      :     0.040268  p :     0.072144
      px      :     0.007489
      py      :     0.024387

  2 H s       :     0.804902  s :     0.804902
      pz      :     0.007652  p :     0.045925
      px      :     0.022301
      py      :     0.015972

  3 H s       :     0.804902  s :     0.804902
      pz      :     0.007651  p :     0.045925
      px      :     0.022321
      py      :     0.015952

  4 I s       :     3.785766  s :     3.785766
      pz      :     3.353138  p :    11.252363
      px      :     3.974663
      py      :     3.924561
      dz2     :     2.060524  d :    10.116767
      dxz     :     2.021610
      dyz     :     2.029724
      dx2y2   :     2.001279
      dxy     :     2.003629

  5 F s       :     3.976959  s :     3.976959
      pz      :     1.882954  p :     5.836940
      px      :     1.990206
      py      :     1.963781
      dz2     :     0.015982  d :     0.018083
      dxz     :     0.000607
      dyz     :     0.001296
      dx2y2   :     0.000066
      dxy     :     0.000132



                      *****************************
                      * MAYER POPULATION ANALYSIS *
                      *****************************

  NA   - Mulliken gross atomic population
  ZA   - Total nuclear charge
  QA   - Mulliken gross atomic charge
  VA   - Mayer's total valence
  BVA  - Mayer's bonded valence
  FA   - Mayer's free valence

  ATOM       NA         ZA         QA         VA         BVA        FA
  0 C      6.3914     6.0000    -0.3914     3.7203     3.7203    -0.0000
  1 H      0.7145     1.0000     0.2855     0.9382     0.9382    -0.0000
  2 H      0.8523     1.0000     0.1477     0.9573     0.9573     0.0000
  3 H      0.8523     1.0000     0.1477     0.9573     0.9573     0.0000
  4 I     25.3792    25.0000    -0.3792     0.8844     0.8844     0.0000
  5 F      9.8101     9.0000    -0.8101     0.3118     0.3118    -0.0000

  Mayer bond orders larger than 0.100000
B(  0-C ,  1-H ) :   0.8635 B(  0-C ,  2-H ) :   0.9594 B(  0-C ,  3-H ) :   0.9594 
B(  0-C ,  4-I ) :   0.7769 B(  0-C ,  5-F ) :   0.1610 

-------
TIMINGS
-------

Total SCF time: 0 days 0 hours 0 min 8 sec 

Total time                  ....       8.792 sec
Sum of individual times     ....       8.092 sec  ( 92.0%)

SCF preparation             ....       0.596 sec  (  6.8%)
Fock matrix formation       ....       5.683 sec  ( 64.6%)
  Startup                   ....       0.012 sec  (  0.2% of F)
  Split-RI-J                ....       1.285 sec  ( 22.6% of F)
  XC integration            ....       4.240 sec  ( 74.6% of F)
    XC Preparation          ....       0.000 sec  (  0.0% of XC)
    Basis function eval.    ....       0.359 sec  (  8.5% of XC)
    Density eval.           ....       0.776 sec  ( 18.3% of XC)
    XC-Functional eval.     ....       0.901 sec  ( 21.2% of XC)
    XC-Potential eval.      ....       0.772 sec  ( 18.2% of XC)
Diagonalization             ....       0.000 sec  (  0.0%)
Density matrix formation    ....       0.345 sec  (  3.9%)
Total Energy calculation    ....       0.195 sec  (  2.2%)
Population analysis         ....       0.095 sec  (  1.1%)
Orbital Transformation      ....       0.014 sec  (  0.2%)
Orbital Orthonormalization  ....       0.000 sec  (  0.0%)
DIIS solution               ....       0.784 sec  (  8.9%)
SOSCF solution              ....       0.380 sec  (  4.3%)
Finished LeanSCF after   8.8 sec

Maximum memory used throughout the entire LEANSCF-calculation: 6.5 MB


           ************************************************************
           *        Program running with 8 parallel MPI-processes     *
           *              working on a common directory               *
           ************************************************************

------------------------------------------------------------------------------
                         ORCA PROPERTY INTEGRAL CALCULATIONS
------------------------------------------------------------------------------

GBWName                                   ... ts_optfreq.gbw
Number of atoms                           ...      6
Number of basis functions                 ...     94
Max core memory                           ...   4096 MB

Dipole integrals                          ... YES
Quadrupole integrals                      ...  NO
Linear momentum integrals                 ...  NO
Angular momentum integrals                ...  NO
Higher moments length integrals           ...  NO
Higher moments velocity integrals         ...  NO
Kinetic energy integrals                  ...  NO
GIAO right hand sides                     ...  NO
GIAO dipole derivative integrals          ...  NO
SOC integrals                             ...  NO
EPR diamagnetic integrals (GIAO)          ...  NO
EPR gauge integrals                       ...  NO
Field gradient integrals                  ...  NO (   0 nuclei)
Spin-dipole/Fermi contact integrals       ...  NO (   0 nuclei)
Contact density integrals                 ...  NO (   0 nuclei)
Nucleus-orbit integrals                   ...  NO (   0 nuclei)
Geometric perturbations                   ...  NO (   6 nuclei)

Choice of electric origin   ... Center of mass
Position of electric origin ... (  0.0004,  0.7125,  2.9651) 
Choice of magnetic origin   ... GIAO
Position of magnetic origin ... (  0.0000,  0.0000,  0.0000) 

Calculating integrals                     ... Electric Dipole (Length)     done (  0.0 sec)

Property integrals calculated in   0.0 sec

Maximum memory used throughout the entire PROPINT-calculation: 6.9 MB


-------------------------------------------------------------------------------
                          DFT DISPERSION CORRECTION                            
                                                                               
                                DFTD4 V3.4.0                                   
-------------------------------------------------------------------------------
The R2SCAN3C composite method is recognized
Using three-body term ABC
Active option DFTDOPT                   ...         5   

-------------------------   ----------------
Dispersion correction           -0.000942716
-------------------------   ----------------

------------------   -----------------
gCP correction             0.003687619
------------------   -----------------

-------------------------   --------------------
FINAL SINGLE POINT ENERGY      -437.499737195310
-------------------------   --------------------



           ************************************************************
           *        Program running with 8 parallel MPI-processes     *
           *              working on a common directory               *
           ************************************************************
------------------------------------------------------------------------------
                         ORCA SCF GRADIENT CALCULATION
------------------------------------------------------------------------------

Nuc. rep. gradient        (SHARK) ... done (  0.0 sec)
HCore & Overlap gradient  (SHARK) ... done (  0.1 sec)
ECP gradient              (SHARK) ... done (  0.2 sec)
Split-RIJ-J gradient      (SHARK) ... done (  1.5 sec)
XC gradient                       ... done (  0.5 sec)
Dispersion correction             ... done (  0.1 sec)

-------------------
DISPERSION GRADIENT
-------------------

   1   C   :   -0.000000004   -0.000006823   -0.000003078
   2   H   :    0.000000000    0.000000783   -0.000008845
   3   H   :    0.000001698   -0.000002395    0.000000090
   4   H   :   -0.000001701   -0.000002393    0.000000090
   5   I   :    0.000000002    0.000002957    0.000053228
   6   F   :    0.000000004    0.000007871   -0.000041485

Difference to translation invariance:
           :    0.0000000000   -0.0000000000    0.0000000000

Difference to rotation invariance:
           :   -0.0000000000    0.0000000000   -0.0000000000

Norm of the Dispersion gradient    ...    0.0000691163
RMS gradient                       ...    0.0000162909
MAX gradient                       ...    0.0000532281
gCP correction                   ... done

------------------
CARTESIAN GRADIENT
------------------

   1   C   :    0.000003941    0.007160439    0.006541997
   2   H   :   -0.000004454   -0.008831462    0.008566625
   3   H   :   -0.004234178    0.001231092   -0.001766429
   4   H   :    0.004235225    0.001226836   -0.001766596
   5   I   :   -0.000000770   -0.001313917   -0.008132500
   6   F   :    0.000000235    0.000527012   -0.003443097

Difference to translation invariance:
           :    0.0000000000    0.0000000000   -0.0000000000

Difference to rotation invariance:
           :    0.0000486490   -0.0000002132   -0.0000005965

Norm of the Cartesian gradient     ...    0.0192503318
RMS gradient                       ...    0.0045373467
MAX gradient                       ...    0.0088314623

-------
TIMINGS
-------

Total SCF gradient time     ....        2.503 sec

Densities                   ....       0.000 sec  (  0.0%)
One electron gradient       ....       0.087 sec  (  3.5%)
RI-J Coulomb gradient       ....       1.496 sec  ( 59.7%)
XC gradient                 ....       0.510 sec  ( 20.4%)

Maximum memory used throughout the entire SCFGRAD-calculation: 26.8 MB


           ************************************************************
           *        Program running with 8 parallel MPI-processes     *
           *              working on a common directory               *
           ************************************************************

------------------------------------------------------------------------------
                         ORCA PROPERTY INTEGRAL CALCULATIONS
------------------------------------------------------------------------------

GBWName                                   ... ts_optfreq.gbw
Number of atoms                           ...      6
Number of basis functions                 ...     94
Max core memory                           ...   4096 MB

Dipole integrals                          ...  NO
Quadrupole integrals                      ...  NO
Linear momentum integrals                 ...  NO
Angular momentum integrals                ...  NO
Higher moments length integrals           ...  NO
Higher moments velocity integrals         ...  NO
Kinetic energy integrals                  ...  NO
GIAO right hand sides                     ...  NO
GIAO dipole derivative integrals          ...  NO
SOC integrals                             ...  NO
EPR diamagnetic integrals (GIAO)          ...  NO
EPR gauge integrals                       ...  NO
Field gradient integrals                  ...  NO (   0 nuclei)
Spin-dipole/Fermi contact integrals       ...  NO (   0 nuclei)
Contact density integrals                 ...  NO (   0 nuclei)
Nucleus-orbit integrals                   ...  NO (   0 nuclei)
Geometric perturbations                   ... YES (   6 nuclei)

Choice of electric origin   ... Center of mass
Position of electric origin ... (  0.0004,  0.7125,  2.9651) 
Choice of magnetic origin   ... GIAO
Position of magnetic origin ... (  0.0000,  0.0000,  0.0000) 

Calculating integrals                     ... Geometrical perturbation right hand sides

-----------------------
GEOMETRIC PERTURBATIONS (6 nuclei)
-----------------------

MaxCore                            ...   4096 MB
Number of batches                  ...      1

BATCH   0: Atoms    0 -    5 ( 18 perturbations)
   => H(core) and overlap derivative integrals     ... done (     0.1 sec)
   => Making and storing internal U-coefficients   ... done (     0.0 sec)
   => RI-J derivative integrals                    ... done (     1.6 sec)
   => RI-J response operators                      ... done (     0.0 sec)
   => ECP derivative integrals                     ... done (     3.6 sec)
   => XC derivative integrals                      ... done (     5.4 sec)
   => XC response operators                        ... done (     1.8 sec)
   => Completing and storing right hand sides      ... done (     0.0 sec)
   => Total time for right hand sides =  13.0 sec

  geometrical perturbations done ( 13.0 sec)

Property integrals calculated in  13.0 sec

Maximum memory used throughout the entire PROPINT-calculation: 17.1 MB


           ************************************************************
           *        Program running with 8 parallel MPI-processes     *
           *              working on a common directory               *
           ************************************************************
------------------------------------------------------------------------------
                            ORCA SCF RESPONSE CALCULATION
------------------------------------------------------------------------------

GBWName                                 ... ts_optfreq.gbw
Number of atoms                         ...      6
Number of basis functions               ...     94
Max core memory                         ...   4096 MB

Electric field perturbation             ...  NO
Quadrupolar field perturbation          ...  NO
Magnetic field perturbation (no GIAO)   ...  NO
Magnetic field perturbation (with GIAO) ...  NO
Linear momentum (velocity) perturbation ...  NO
Spin-orbit coupling perturbation        ...  NO
Choice of electric origin               ... Center of mass
Position of electric origin             ...     0.000400     0.712496     2.965089
Choice of magnetic origin               ... GIAO
Position of magnetic origin             ...     0.000000     0.000000     0.000000
Nuclear geometric perturbations         ... YES (  18 perturbations)
Nucleus-orbit perturbations             ...  NO (   0 perturbations)
Spin-dipole/Fermi contact perturbations ...  NO (   0 perturbations)

Total number of real perturbations      ...     18
Total number of imaginary perturbations ...      0
Total number of triplet perturbations   ...      0
Total number of SOC perturbations       ...      0

Using XC Grid                  ... (ts_optfreq.grid_cpscf.tmp) 
Recalculating density on grid  ... (ts_optfreq.grho_cpscf0.tmp) done
Calculating the xc-kernel      ... (ts_optfreq.fxc_cpscf0.tmp) done

                                **********************
                                * REAL PERTURBATIONS *
                                **********************



-------------------
SHARK CP-SCF DRIVER
-------------------

Dimension of the orbital basis          ...     94
Dimension of the CPSCF-problem          ...   1584
Number of operators                     ...      1
Max. number of iterations               ...    128
Convergence Tolerance                   ... 1.0e-04
Number of perturbations                 ...     18
Perturbation type                       ... REAL

----------------------------
POPLE LINEAR EQUATION SOLVER
----------------------------

  ITERATION   0:   ||err||_max =   5.9954e-01 (   0.6 sec   0/ 18 done)
  ITERATION   1:   ||err||_max =   5.2567e-02 (   0.6 sec   0/ 18 done)
  ITERATION   2:   ||err||_max =   1.6832e-02 (   0.3 sec   0/ 18 done)
  ITERATION   3:   ||err||_max =   4.8433e-03 (   0.6 sec   1/ 18 done)
  ITERATION   4:   ||err||_max =   1.1111e-03 (   0.5 sec   4/ 18 done)
  ITERATION   5:   ||err||_max =   2.8354e-04 (   0.5 sec  12/ 18 done)
  ITERATION   6:   ||err||_max =   5.2928e-05 (   0.3 sec  18/ 18 done)

CP-SCF equations solved in   3.5 sec
Response densities calculated in   0.0 sec

Maximum memory used throughout the entire SCFRESP-calculation: 9.3 MB


           ************************************************************
           *        Program running with 8 parallel MPI-processes     *
           *              working on a common directory               *
           ************************************************************

------------------------------------------------------------------------------
                              ORCA PROPERTY CALCULATIONS
------------------------------------------------------------------------------

GBWName                                 ... ts_optfreq.gbw
Number of atoms                         ...      6
Number of basis functions               ...     94
Max core memory                         ...   4096 MB

Electric properties:
Dipole moment                           ...  NO
Quadrupole moment                       ...  NO
Static polarizability (Dipole/Dipole)   ...  NO
Static polarizability (Dipole/Quad.)    ...  NO
Static polarizability (Quad./Quad.)     ...  NO
Static polarizability (Velocity)        ...  NO
Static hyperpolarizability              ...  NO

Atomic electric properties:
Dipole moment                           ...  NO
Quadrupole moment                       ...  NO
Static polarizability                   ...  NO

Choice of electric origin               ... Center of mass
Position of electric origin             ...     0.000400     0.712496     2.965089

General magnetic properties:
Magnetizability                         ...  NO

EPR properties:
g-Tensor (aka g-matrix)                 ...  NO
Zero-Field splitting spin-orbit         ...  NO
Zero-field splitting spin-spin          ...  NO
Hyperfine couplings                     ...  NO (   0 nuclei)
Quadrupole couplings                    ...  NO (   0 nuclei)
Contact density                         ...  NO (   0 nuclei)

NMR properties:
Chemical shifts                         ...  NO (   0 nuclei)
Spin-rotation constants                 ...  NO (   0 nuclei)
Spin-spin couplings                     ...  NO (   0 nuclei,    0 pairs)

Choice of magnetic origin               ... GIAO
Position of magnetic origin             ...     0.000000     0.000000     0.000000

Properties with geometric perturbations:
SCF Hessian                             ... YES
IR spectrum                             ... YES
VCD spectrum                            ...  NO
X-ray spectroscopy properties:
SCF XES/XAS/RIXS spectra                ...  NO

SCF SOC stabilization energy            ...  NO
Diagonal Born-Oppenheimer correction    ...  NO

-----------
SCF HESSIAN
-----------

Occupied/Occupied contributions to the Hessian:
   => Occupied/Occupied contributions              ... done (  0.0 sec)
Perturbed density contributions to the Hessian:
   => Perturbed density contributions              ... done (  0.0 sec)
Explicit contributions to the Hessian:
   => Nuclear repulsion Hessian                    ... done (  0.0 sec)
   => HCore and overlap Hessian                    ... done (  0.3 sec)
   => ECP Hessian                                  ... done (  1.4 sec)
   => RI-J Hessian                                 ... done (  1.7 sec)
   => XC-Hessian                                   ... done (  3.8 sec)
   => Van der Waals-Hessian                        ... done (  0.7 sec)
   => GCP-Hessian                                  ... done (  0.1 sec)
   => Explicit contributions done
Dipole derivatives                                 ... done (  0.0 sec)
Mass weighting the Hessian           ... done
Calculating normal modes             ... done
Scaling frequencies                  ... done

-----------------------
VIBRATIONAL FREQUENCIES
-----------------------

Scaling factor for frequencies =  1.000000000  (already applied!)

     0:       0.00 cm**-1
     1:       0.00 cm**-1
     2:       0.00 cm**-1
     3:       0.00 cm**-1
     4:       0.00 cm**-1
     5:       0.00 cm**-1
     6:    -120.51 cm**-1  ***imaginary mode***
     7:    -108.85 cm**-1  ***imaginary mode***
     8:     185.98 cm**-1
     9:     448.85 cm**-1
    10:     651.65 cm**-1
    11:     867.56 cm**-1
    12:    1192.95 cm**-1
    13:    1420.87 cm**-1
    14:    1434.85 cm**-1
    15:    3040.38 cm**-1
    16:    3202.67 cm**-1
    17:    3249.68 cm**-1


------------
NORMAL MODES
------------

These modes are the Cartesian displacements weighted by the diagonal matrix
M(i,i)=1/sqrt(m[i]) where m[i] is the mass of the displaced atom
Thus, these vectors are normalized but *not* orthogonal

                  0          1          2          3          4          5    
      0       0.000000   0.000000   0.000000   0.000000   0.000000   0.000000
      1       0.000000   0.000000   0.000000   0.000000   0.000000   0.000000
      2       0.000000   0.000000   0.000000   0.000000   0.000000   0.000000
      3       0.000000   0.000000   0.000000   0.000000   0.000000   0.000000
      4       0.000000   0.000000   0.000000   0.000000   0.000000   0.000000
      5       0.000000   0.000000   0.000000   0.000000   0.000000   0.000000
      6       0.000000   0.000000   0.000000   0.000000   0.000000   0.000000
      7       0.000000   0.000000   0.000000   0.000000   0.000000   0.000000
      8       0.000000   0.000000   0.000000   0.000000   0.000000   0.000000
      9       0.000000   0.000000   0.000000   0.000000   0.000000   0.000000
     10       0.000000   0.000000   0.000000   0.000000   0.000000   0.000000
     11       0.000000   0.000000   0.000000   0.000000   0.000000   0.000000
     12       0.000000   0.000000   0.000000   0.000000   0.000000   0.000000
     13       0.000000   0.000000   0.000000   0.000000   0.000000   0.000000
     14       0.000000   0.000000   0.000000   0.000000   0.000000   0.000000
     15       0.000000   0.000000   0.000000   0.000000   0.000000   0.000000
     16       0.000000   0.000000   0.000000   0.000000   0.000000   0.000000
     17       0.000000   0.000000   0.000000   0.000000   0.000000   0.000000
                  6          7          8          9         10         11    
      0       0.146821   0.000081   0.000138   0.000110   0.000058  -0.089346
      1       0.000015   0.347257   0.257752   0.211553   0.115496   0.000045
      2      -0.000026  -0.115961  -0.104739   0.608106  -0.030317   0.000001
      3       0.641055  -0.000142   0.000209  -0.000002  -0.000203   0.223336
      4      -0.000197   0.548312   0.363015   0.033613  -0.370395  -0.000112
      5       0.000045   0.211101   0.037061   0.370143  -0.798141   0.000006
      6      -0.143054   0.010993   0.002775  -0.043524  -0.052932   0.138588
      7      -0.476310   0.409577   0.288109   0.186306  -0.060521   0.192667
      8       0.185636  -0.267336  -0.206809   0.428828   0.314989   0.644001
      9      -0.142559  -0.010379  -0.002488   0.043736   0.052878   0.138369
     10       0.476666   0.408947   0.288141   0.186223  -0.060588  -0.192801
     11      -0.185760  -0.267085  -0.206819   0.428849   0.314981  -0.643996
     12      -0.007743  -0.000006  -0.000005  -0.000012  -0.000003   0.004719
     13      -0.000002  -0.021427  -0.007618  -0.021690  -0.005572  -0.000002
     14       0.000009   0.034140  -0.093260  -0.060486   0.004687  -0.000000
     15      -0.059964  -0.000039  -0.000080  -0.000004  -0.000005  -0.001576
     16      -0.000007  -0.148938  -0.161907  -0.010419  -0.009724   0.000001
     17      -0.000038  -0.137576   0.709141  -0.045580  -0.003220   0.000000
                 12         13         14         15         16         17    
      0       0.000003   0.000047   0.072665   0.000015   0.000038  -0.095590
      1       0.005957   0.073913  -0.000048   0.026674   0.088924   0.000043
      2       0.094801  -0.007651   0.000001  -0.046066  -0.011453   0.000001
      3      -0.000145  -0.000021  -0.807262  -0.000378  -0.000209  -0.027441
      4      -0.277654   0.171916   0.000396  -0.730020  -0.405140   0.000038
      5      -0.375654   0.163749  -0.000017   0.442162   0.270820  -0.000016
      6      -0.090305  -0.404486  -0.092509  -0.305841   0.516090   0.574875
      7      -0.001497  -0.551855  -0.269485   0.199280  -0.325309  -0.397819
      8      -0.614989  -0.030749   0.300479   0.033440  -0.071653  -0.078975
      9       0.090297   0.403887  -0.092346   0.306035  -0.516338   0.575383
     10      -0.001597  -0.552208   0.269733   0.198951  -0.324708   0.397276
     11      -0.615001  -0.030847  -0.300471   0.033434  -0.071632   0.078979
     12       0.000001   0.000000   0.000459  -0.000000  -0.000000   0.000082
     13       0.001780   0.000441  -0.000000  -0.000076  -0.000102  -0.000000
     14       0.003727  -0.000099  -0.000000   0.000145   0.000005  -0.000000
     15      -0.000000   0.000001   0.003630   0.000001   0.000000   0.000314
     16      -0.000763  -0.000218  -0.000002   0.001251   0.000445  -0.000000
     17       0.000363   0.000079  -0.000000   0.001148   0.000440  -0.000000


-----------
IR SPECTRUM
-----------

 Mode   freq       eps      Int      T**2         TX        TY        TZ
       cm**-1   L/(mol*cm) km/mol    a.u.
----------------------------------------------------------------------------
  8:    185.98   0.019877  100.45  0.033353  ( 0.000017  0.035543 -0.179137)
  9:    448.85   0.037502  189.52  0.026074  ( 0.000000 -0.001973  0.161461)
 10:    651.65   0.008316   42.03  0.003983  ( 0.000002  0.003887 -0.062988)
 11:    867.56   0.000653    3.30  0.000235  ( 0.015322 -0.000008  0.000003)
 12:   1192.95   0.005779   29.20  0.001512  ( 0.000013  0.024616  0.030096)
 13:   1420.87   0.002027   10.24  0.000445  (-0.000011 -0.016634  0.012982)
 14:   1434.85   0.001951    9.86  0.000424  (-0.020598  0.000012 -0.000014)
 15:   3040.38   0.040595  205.15  0.004167  (-0.000011 -0.022108  0.060646)
 16:   3202.67   0.012390   62.61  0.001207  (-0.000002 -0.004211  0.034489)
 17:   3249.68   0.000447    2.26  0.000043  (-0.006551  0.000003 -0.000002)

* The epsilon (eps) is given for a Dirac delta lineshape.
** The dipole moment derivative (T) already includes vibrational overlap.

The first frequency considered to be a vibration is 8
The total number of vibrations considered is 10


--------------------------
THERMOCHEMISTRY AT 298.15K
--------------------------

Temperature         ...   298.15 K
Pressure            ...     1.00 atm
Total Mass          ...   160.93 AMU
Quasi RRHO          ...     True
Cut-Off Frequency   ...     1.00 cm^-1

Throughout the following assumptions are being made:
  (1) The electronic state is orbitally nondegenerate
  (2) There are no thermally accessible electronically excited states
  (3) Hindered rotations indicated by low frequency modes are not
      treated as such but are treated as vibrations and this may
      cause some error
  (4) All equations used are the standard statistical mechanics
      equations for an ideal gas
  (5) All vibrations are strictly harmonic

freq.     185.98  E(vib)   ...       0.37 
freq.     448.85  E(vib)   ...       0.17 
freq.     651.65  E(vib)   ...       0.08 
freq.     867.56  E(vib)   ...       0.04 
freq.    1192.95  E(vib)   ...       0.01 
freq.    1420.87  E(vib)   ...       0.00 
freq.    1434.85  E(vib)   ...       0.00 
freq.    3040.38  E(vib)   ...       0.00 
freq.    3202.67  E(vib)   ...       0.00 
freq.    3249.68  E(vib)   ...       0.00 

------------
INNER ENERGY
------------

The inner energy is: U= E(el) + E(ZPE) + E(vib) + E(rot) + E(trans)
    E(el)   - is the total energy from the electronic structure calculation
              = E(kin-el) + E(nuc-el) + E(el-el) + E(nuc-nuc)
    E(ZPE)  - the the zero temperature vibrational energy from the frequency calculation
    E(vib)  - the the finite temperature correction to E(ZPE) due to population
              of excited vibrational states
    E(rot)  - is the rotational thermal energy
    E(trans)- is the translational thermal energy

Summary of contributions to the inner energy U:
Electronic energy                ...   -437.49973720 Eh
Zero point energy                ...      0.03575684 Eh      22.44 kcal/mol
Thermal vibrational correction   ...      0.00107308 Eh       0.67 kcal/mol
Thermal rotational correction    ...      0.00141627 Eh       0.89 kcal/mol
Thermal translational correction ...      0.00141627 Eh       0.89 kcal/mol
-----------------------------------------------------------------------
Total thermal energy                   -437.46007474 Eh


Summary of corrections to the electronic energy:
(perhaps to be used in another calculation)
Total thermal correction                  0.00390562 Eh       2.45 kcal/mol
Non-thermal (ZPE) correction              0.03575684 Eh      22.44 kcal/mol
-----------------------------------------------------------------------
Total correction                          0.03966246 Eh      24.89 kcal/mol


--------
ENTHALPY
--------

The enthalpy is H = U + kB*T
                kB is Boltzmann's constant
Total thermal energy              ...   -437.46007474 Eh 
Thermal Enthalpy correction       ...      0.00094421 Eh       0.59 kcal/mol
-----------------------------------------------------------------------
Total Enthalpy                    ...   -437.45913053 Eh


Note: Rotational entropy computed according to Herzberg 
Infrared and Raman Spectra, Chapter V,1, Van Nostrand Reinhold, 1945 
Point Group:  Cs, Symmetry Number:   1  
Rotational constants in cm-1:     1.695121     0.043587     0.042837 

Vibrational entropy computed according to the QRRHO of S. Grimme
Chem.Eur.J. 2012 18 9955 using a reference frequency of 100.0 cm-1


-------
ENTROPY
-------

The entropy contributions are T*S = T*(S(el)+S(vib)+S(rot)+S(trans))
     S(el)   - electronic entropy
     S(vib)  - vibrational entropy
     S(rot)  - rotational entropy
     S(trans)- translational entropy
The entropies will be listed as multiplied by the temperature to get
units of energy

Electronic entropy                ...      0.00000000 Eh      0.00 kcal/mol
Vibrational entropy               ...      0.00174314 Eh      1.09 kcal/mol
Rotational entropy                ...      0.01222797 Eh      7.67 kcal/mol
Translational entropy             ...      0.01954513 Eh     12.26 kcal/mol
-----------------------------------------------------------------------
Final entropy term                ...      0.03351624 Eh     21.03 kcal/mol

In case the symmetry of your molecule has not been determined correctly
or in case you have a reason to use a different symmetry number we print 
out the resulting rotational entropy values for sn=1,12:

 non-linear molecules -----------------------------------
|  sn= 1 | S(rot)=       0.01222797 Eh      7.67 kcal/mol|
|  sn= 2 | S(rot)=       0.01157351 Eh      7.26 kcal/mol|
|  sn= 3 | S(rot)=       0.01119068 Eh      7.02 kcal/mol|
|  sn= 4 | S(rot)=       0.01091905 Eh      6.85 kcal/mol|
|  sn= 5 | S(rot)=       0.01070836 Eh      6.72 kcal/mol|
|  sn= 6 | S(rot)=       0.01053622 Eh      6.61 kcal/mol|
|  sn= 7 | S(rot)=       0.01039067 Eh      6.52 kcal/mol|
|  sn= 8 | S(rot)=       0.01026460 Eh      6.44 kcal/mol|
|  sn= 9 | S(rot)=       0.01015339 Eh      6.37 kcal/mol|
|  sn=10 | S(rot)=       0.01005391 Eh      6.31 kcal/mol|
|  sn=11 | S(rot)=       0.00996392 Eh      6.25 kcal/mol|
|  sn=12 | S(rot)=       0.00988176 Eh      6.20 kcal/mol|
 linear molecules ---------------------------------------
|  Dinfh | S(rot)=       0.00830030 Eh      5.21 kcal/mol|
|  Cinfv | S(rot)=       0.00895476 Eh      5.62 kcal/mol|
 --------------------------------------------------------


-------------------
GIBBS FREE ENERGY
-------------------

The Gibbs free energy is G = H - T*S

Total enthalpy                    ...   -437.45913053 Eh 
Total entropy correction          ...     -0.03351624 Eh    -21.03 kcal/mol
-----------------------------------------------------------------------
Final Gibbs free energy         ...   -437.49264676 Eh

For completeness - the Gibbs free energy minus the electronic energy
G-E(el)                           ...      0.00709043 Eh      4.45 kcal/mol


Maximum memory used throughout the entire PROP-calculation: 27.8 MB
Actual Hessian File stored as ts_optfreq.001.hess
------------------------------------------------------------------------------
                         ORCA GEOMETRY RELAXATION STEP
------------------------------------------------------------------------------

Reading the OPT-File                    .... done
Getting information on internals        .... done
Copying old internal coords+grads       .... done
Making the new internal coordinates     .... (2022 redundants) done
Validating the new internal coordinates .... (2022 redundants) done
Calculating the B-matrix                .... done
Calculating the G,G- and P matrices     .... done
Transforming gradient to internals      .... done
Projecting the internal gradient        .... done
Number of atoms                         ....   6
Number of internal coordinates          ....  15
Current Energy                          ....  -437.499737195 Eh
Current gradient norm                   ....     0.019250332 Eh/bohr
Maximum allowed component of the step   ....  0.300
Current trust radius                    ....  0.300
Evaluating the initial hessian          ....  (read) 
(Reading Exact Hessian)...  
InHessName: ts_optfreq.hess	The file <ts_optfreq.hess> is opened as a .hess file
done
done
Projecting the Hessian                  .... done
Diagonalizing the Hessian               .... done
Dimension of the hessian                ....  15
Lowest eigenvalues of the Hessian:
 -0.007429636  0.003232391  0.024746159  0.052000474  0.067684349
Hessian has   1 negative eigenvalues
Taking P-RFO step
Searching for lambda that maximizes along the lowest mode
TS mode is mode number   0 with eigenvalue  -0.00742964 and components:
   1.   -0.08405281
   2.   -0.01049747
   3.   -0.01049796
   4.    0.11550318
   5.    0.53479501
   6.    0.00201362
   7.    0.00200858
   8.   -0.03488333
   9.    0.00034266
  10.    0.00034449
  11.    0.03186778
  12.   -0.83078689
  13.   -0.02146462
  14.   -0.00001469
  15.    0.02144114

Lambda that maximizes along the TS mode:       0.00002248
Searching for lambda that minimizes along all other modes
In cycle   1: lambdaN =  -0.00267314   step =   0.00267314
In cycle   2: lambdaN =  -0.00269091   step =   0.00001777
In cycle   3: lambdaN =  -0.00269091   step =   0.00000000
Lambda that minimizes along all other modes:  -0.00269091
The final length of the internal step   ....       0.2664
Converting the step to Cartesian space:
 Initial RMS(Int)=    0.0687913410
Transforming coordinates:
 Iter   0:  RMS(Cart)=    0.0806401204 RMS(Int)=    0.0676503786
[...]
Magnitude (a.u.)       :      4.142508460
Magnitude (Debye)      :     10.529419719



--------------------
Rotational spectrum 
--------------------
 
Rotational constants in cm-1:             1.939616             0.043119             0.042531 
Rotational constants in MHz :         58148.216778          1292.678799          1275.045020 

Dipole components along the rotational axes: 
x,y,z [a.u.] :     4.119740    -0.433728    -0.000000 
x,y,z [Debye]:    10.471547    -1.102448    -0.000001 

 

Dipole moment calculation done in   0.1 sec 

-----------
SCF HESSIAN
-----------

Occupied/Occupied contributions to the Hessian:
   => Occupied/Occupied contributions              ... done (  0.0 sec)
Perturbed density contributions to the Hessian:
   => Perturbed density contributions              ... done (  0.0 sec)
Explicit contributions to the Hessian:
   => Nuclear repulsion Hessian                    ... done (  0.0 sec)
   => HCore and overlap Hessian                    ... done (  0.4 sec)
   => ECP Hessian                                  ... done (  1.6 sec)
   => RI-J Hessian                                 ... done (  1.8 sec)
   => XC-Hessian                                   ... done (  2.7 sec)
   => Van der Waals-Hessian                        ... done (  0.5 sec)
   => GCP-Hessian                                  ... done (  0.0 sec)
   => Explicit contributions done
Dipole derivatives                                 ... done (  0.0 sec)
Mass weighting the Hessian           ... done
Calculating normal modes             ... done
Scaling frequencies                  ... done

-----------------------
VIBRATIONAL FREQUENCIES
-----------------------

Scaling factor for frequencies =  1.000000000  (already applied!)

     0:       0.00 cm**-1
     1:       0.00 cm**-1
     2:       0.00 cm**-1
     3:       0.00 cm**-1
     4:       0.00 cm**-1
     5:       0.00 cm**-1
     6:    -153.65 cm**-1  ***imaginary mode***
     7:     209.73 cm**-1
     8:     210.12 cm**-1
     9:     380.93 cm**-1
    10:     601.53 cm**-1
    11:     879.02 cm**-1
    12:    1149.57 cm**-1
    13:    1418.74 cm**-1
    14:    1438.69 cm**-1
    15:    2907.83 cm**-1
    16:    3149.76 cm**-1
    17:    3222.63 cm**-1


------------
NORMAL MODES
------------

These modes are the Cartesian displacements weighted by the diagonal matrix
M(i,i)=1/sqrt(m[i]) where m[i] is the mass of the displaced atom
Thus, these vectors are normalized but *not* orthogonal

                  0          1          2          3          4          5    
      0       0.000000   0.000000   0.000000   0.000000   0.000000   0.000000
      1       0.000000   0.000000   0.000000   0.000000   0.000000   0.000000
      2       0.000000   0.000000   0.000000   0.000000   0.000000   0.000000
      3       0.000000   0.000000   0.000000   0.000000   0.000000   0.000000
      4       0.000000   0.000000   0.000000   0.000000   0.000000   0.000000
      5       0.000000   0.000000   0.000000   0.000000   0.000000   0.000000
      6       0.000000   0.000000   0.000000   0.000000   0.000000   0.000000
      7       0.000000   0.000000   0.000000   0.000000   0.000000   0.000000
      8       0.000000   0.000000   0.000000   0.000000   0.000000   0.000000
      9       0.000000   0.000000   0.000000   0.000000   0.000000   0.000000
     10       0.000000   0.000000   0.000000   0.000000   0.000000   0.000000
     11       0.000000   0.000000   0.000000   0.000000   0.000000   0.000000
     12       0.000000   0.000000   0.000000   0.000000   0.000000   0.000000
     13       0.000000   0.000000   0.000000   0.000000   0.000000   0.000000
     14       0.000000   0.000000   0.000000   0.000000   0.000000   0.000000
     15       0.000000   0.000000   0.000000   0.000000   0.000000   0.000000
     16       0.000000   0.000000   0.000000   0.000000   0.000000   0.000000
     17       0.000000   0.000000   0.000000   0.000000   0.000000   0.000000
                  6          7          8          9         10         11    
      0       0.000166   0.170546   0.001920   0.000123   0.000063   0.074304
      1       0.316808  -0.000293   0.197671   0.253272   0.119862  -0.000039
      2      -0.141288  -0.000035   0.042076   0.619827  -0.050089  -0.000001
      3       0.000294   0.636479   0.006955  -0.000056  -0.000185  -0.211497
      4       0.557406  -0.000692   0.340875  -0.018775  -0.336519   0.000112
      5       0.301964  -0.000294   0.278682   0.190520  -0.866281   0.000005
      6       0.020574  -0.132827   0.002575  -0.049607  -0.050973  -0.101757
      7       0.386879  -0.489710   0.228972   0.196830  -0.027514  -0.161774
      8      -0.271627   0.152514  -0.109448   0.455148   0.236769  -0.662063
      9      -0.020169  -0.132310  -0.005151   0.049849   0.050949  -0.101580
     10       0.386897   0.489361   0.239394   0.196686  -0.027565   0.161885
     11      -0.271630  -0.152255  -0.112694   0.455171   0.236770   0.662072
     12      -0.000009  -0.008664  -0.000096  -0.000012  -0.000003  -0.004269
     13      -0.018038   0.000010  -0.005654  -0.023168  -0.005433   0.000002
     14       0.027202   0.000126  -0.120332  -0.049257   0.005782  -0.000000
     15      -0.000080  -0.069656  -0.000803  -0.000008  -0.000010   0.003552
     16      -0.150436   0.000173  -0.130145  -0.025256  -0.018715  -0.000002
     17      -0.079569  -0.000819   0.774174  -0.121259   0.013887  -0.000000
                 12         13         14         15         16         17    
      0       0.000004  -0.000043   0.074808  -0.000023  -0.000045   0.096661
      1       0.005257  -0.077429  -0.000041  -0.044791  -0.081450  -0.000052
      2       0.090153   0.011444   0.000001   0.042221   0.005271  -0.000001
      3      -0.000105  -0.000061  -0.823881   0.000425   0.000132   0.025838
      4      -0.203140  -0.163159   0.000424   0.821588   0.261682  -0.000008
      5      -0.314039  -0.156028   0.000004  -0.442829  -0.166047  -0.000004
      6      -0.078496   0.398249  -0.105910   0.210887  -0.567573  -0.581387
      7      -0.028149   0.559332  -0.275929  -0.134191   0.351641   0.392552
      8      -0.647316  -0.003442   0.265393  -0.008372   0.053207   0.053955
      9       0.078452  -0.397660  -0.105655  -0.211028   0.567968  -0.581767
     10      -0.028228   0.559728   0.276071  -0.133972   0.351071  -0.391928
     11      -0.647308  -0.003422  -0.265396  -0.008369   0.053197  -0.053940
     12       0.000001  -0.000000   0.000422   0.000000   0.000000  -0.000064
     13       0.001914  -0.000329  -0.000000   0.000122   0.000086   0.000000
     14       0.003986   0.000088  -0.000000  -0.000144   0.000002   0.000000
     15      -0.000001   0.000000   0.004825  -0.000001  -0.000000  -0.000338
     16      -0.002339   0.000431  -0.000002  -0.001862  -0.000250   0.000000
     17       0.001728   0.000822  -0.000000  -0.001348  -0.000179  -0.000000


-----------
IR SPECTRUM
-----------

 Mode   freq       eps      Int      T**2         TX        TY        TZ
       cm**-1   L/(mol*cm) km/mol    a.u.
----------------------------------------------------------------------------
  7:    209.73   0.000373    1.88  0.000554  ( 0.023538 -0.000093  0.000514)
  8:    210.12   0.013018   65.79  0.019334  ( 0.000091  0.025402 -0.136706)
  9:    380.93   0.048140  243.28  0.039437  ( 0.000003  0.002221  0.198574)
 10:    601.53   0.020208  102.13  0.010484  ( 0.000006  0.012027 -0.101681)
 11:    879.02   0.000492    2.49  0.000175  (-0.013222  0.000006 -0.000002)
 12:   1149.57   0.005680   28.71  0.001542  ( 0.000012  0.021405  0.032920)
 13:   1418.74   0.001654    8.36  0.000364  ( 0.000009  0.016292 -0.009919)
 14:   1438.69   0.001811    9.15  0.000393  (-0.019818  0.000009 -0.000015)
 15:   2907.83   0.049933  252.34  0.005359  ( 0.000011  0.021762 -0.069894)
 16:   3149.76   0.005051   25.53  0.000500  (-0.000000  0.000027 -0.022371)
 17:   3222.63   0.000418    2.11  0.000040  ( 0.006362 -0.000003  0.000002)

* The epsilon (eps) is given for a Dirac delta lineshape.
** The dipole moment derivative (T) already includes vibrational overlap.

The first frequency considered to be a vibration is 7
The total number of vibrations considered is 11


--------------------------
THERMOCHEMISTRY AT 298.15K
--------------------------

Temperature         ...   298.15 K
Pressure            ...     1.00 atm
Total Mass          ...   160.93 AMU
Quasi RRHO          ...     True
Cut-Off Frequency   ...     1.00 cm^-1

Throughout the following assumptions are being made:
  (1) The electronic state is orbitally nondegenerate
  (2) There are no thermally accessible electronically excited states
  (3) Hindered rotations indicated by low frequency modes are not
      treated as such but are treated as vibrations and this may
      cause some error
  (4) All equations used are the standard statistical mechanics
      equations for an ideal gas
  (5) All vibrations are strictly harmonic

freq.     209.73  E(vib)   ...       0.34 
freq.     210.12  E(vib)   ...       0.34 
freq.     380.93  E(vib)   ...       0.21 
freq.     601.53  E(vib)   ...       0.10 
freq.     879.02  E(vib)   ...       0.04 
freq.    1149.57  E(vib)   ...       0.01 
freq.    1418.74  E(vib)   ...       0.00 
freq.    1438.69  E(vib)   ...       0.00 
freq.    2907.83  E(vib)   ...       0.00 
freq.    3149.76  E(vib)   ...       0.00 
freq.    3222.63  E(vib)   ...       0.00 

------------
INNER ENERGY
------------

The inner energy is: U= E(el) + E(ZPE) + E(vib) + E(rot) + E(trans)
    E(el)   - is the total energy from the electronic structure calculation
              = E(kin-el) + E(nuc-el) + E(el-el) + E(nuc-nuc)
    E(ZPE)  - the the zero temperature vibrational energy from the frequency calculation
    E(vib)  - the the finite temperature correction to E(ZPE) due to population
              of excited vibrational states
    E(rot)  - is the rotational thermal energy
    E(trans)- is the translational thermal energy

Summary of contributions to the inner energy U:
Electronic energy                ...   -437.50125183 Eh
Zero point energy                ...      0.03546775 Eh      22.26 kcal/mol
Thermal vibrational correction   ...      0.00167043 Eh       1.05 kcal/mol
Thermal rotational correction    ...      0.00141627 Eh       0.89 kcal/mol
Thermal translational correction ...      0.00141627 Eh       0.89 kcal/mol
-----------------------------------------------------------------------
Total thermal energy                   -437.46128111 Eh


Summary of corrections to the electronic energy:
(perhaps to be used in another calculation)
Total thermal correction                  0.00450297 Eh       2.83 kcal/mol
Non-thermal (ZPE) correction              0.03546775 Eh      22.26 kcal/mol
-----------------------------------------------------------------------
Total correction                          0.03997073 Eh      25.08 kcal/mol


--------
ENTHALPY
--------

The enthalpy is H = U + kB*T
                kB is Boltzmann's constant
Total thermal energy              ...   -437.46128111 Eh 
Thermal Enthalpy correction       ...      0.00094421 Eh       0.59 kcal/mol
-----------------------------------------------------------------------
Total Enthalpy                    ...   -437.46033690 Eh


Note: Rotational entropy computed according to Herzberg 
Infrared and Raman Spectra, Chapter V,1, Van Nostrand Reinhold, 1945 
Point Group:  Cs, Symmetry Number:   1  
Rotational constants in cm-1:     1.939617     0.043119     0.042531 

Vibrational entropy computed according to the QRRHO of S. Grimme
Chem.Eur.J. 2012 18 9955 using a reference frequency of 100.0 cm-1


-------
ENTROPY
-------

The entropy contributions are T*S = T*(S(el)+S(vib)+S(rot)+S(trans))
     S(el)   - electronic entropy
     S(vib)  - vibrational entropy
     S(rot)  - rotational entropy
     S(trans)- translational entropy
The entropies will be listed as multiplied by the temperature to get
units of energy

Electronic entropy                ...      0.00000000 Eh      0.00 kcal/mol
Vibrational entropy               ...      0.00276339 Eh      1.73 kcal/mol
Rotational entropy                ...      0.01217284 Eh      7.64 kcal/mol
Translational entropy             ...      0.01954513 Eh     12.26 kcal/mol
-----------------------------------------------------------------------
Final entropy term                ...      0.03448136 Eh     21.64 kcal/mol

In case the symmetry of your molecule has not been determined correctly
or in case you have a reason to use a different symmetry number we print 
out the resulting rotational entropy values for sn=1,12:

 non-linear molecules -----------------------------------
|  sn= 1 | S(rot)=       0.01217284 Eh      7.64 kcal/mol|
|  sn= 2 | S(rot)=       0.01151839 Eh      7.23 kcal/mol|
|  sn= 3 | S(rot)=       0.01113555 Eh      6.99 kcal/mol|
|  sn= 4 | S(rot)=       0.01086393 Eh      6.82 kcal/mol|
|  sn= 5 | S(rot)=       0.01065324 Eh      6.68 kcal/mol|
|  sn= 6 | S(rot)=       0.01048110 Eh      6.58 kcal/mol|
|  sn= 7 | S(rot)=       0.01033555 Eh      6.49 kcal/mol|
|  sn= 8 | S(rot)=       0.01020947 Eh      6.41 kcal/mol|
|  sn= 9 | S(rot)=       0.01009827 Eh      6.34 kcal/mol|
|  sn=10 | S(rot)=       0.00999879 Eh      6.27 kcal/mol|
|  sn=11 | S(rot)=       0.00990880 Eh      6.22 kcal/mol|
|  sn=12 | S(rot)=       0.00982664 Eh      6.17 kcal/mol|
 linear molecules ---------------------------------------
|  Dinfh | S(rot)=       0.00830708 Eh      5.21 kcal/mol|
|  Cinfv | S(rot)=       0.00896154 Eh      5.62 kcal/mol|
 --------------------------------------------------------


-------------------
GIBBS FREE ENERGY
-------------------

The Gibbs free energy is G = H - T*S

Total enthalpy                    ...   -437.46033690 Eh 
Total entropy correction          ...     -0.03448136 Eh    -21.64 kcal/mol
-----------------------------------------------------------------------
Final Gibbs free energy         ...   -437.49481826 Eh

For completeness - the Gibbs free energy minus the electronic energy
G-E(el)                           ...      0.00643357 Eh      4.04 kcal/mol


Maximum memory used throughout the entire PROP-calculation: 27.8 MB

--------------------------------
SUGGESTED CITATIONS FOR THIS RUN
--------------------------------

Below you find a list of papers that are relevant to this ORCA run
We neither can nor want to force you to cite these papers, but we appreciate if you do
You receive ORCA, which is the product of decades of hard work by many enthusiastic individuals, for free
The only thing we kindly ask in return is that you cite our papers,
We deeply appreciate it, if you show your appreciation for ORCA by not just citing the generic ORCA reference.

Please note that relegating all ORCA citations to the supporting information does *not* help us.
SI sections are not indexed - citations you put there will not count into any citation statistics
But we need these citations in order to attract the funding resources that allow us to do what we are doing

Therefore, if you are a happy ORCA user, please consider citing a few of the papers listed below in the main body of your paper

In addition to the list printed below, the program has created the file ts_optfreq.bibtex that contains the list in bibtex format
You can import this file easily into all common literature databanks and citation aid programs


List of essential papers. We consider these as the minimum necessary citations

  1. Grimme, S.; Hansen, A.; Ehlert, S.; Mewes, J.
     r2SCAN-3c: A 'Swiss army knife' composite electronic-structure method
     J. Chem. Phys. 2021 154 , 064103
     doi.org/10.1063/5.0040021
  2. Neese, F.
     Software update: the ORCA program system, version 6.0
     WIRES Comput. Molec. Sci. 2025 15(1), e70019
     doi.org/10.1002/wcms.7019

List of papers to cite with high priority. The work reported in these papers was absolutely
necessary for this run to complete.
Our perspective: the developers of density functionals and basis sets usually get cited in chemistry papers
Good! But without the algorithms to do something with them, the functionals or basis sets would not do anything.
Hence, in our opinion, the algorithm design and method developments papers are equally worthy of getting cited

  1. Neese, F.
     An improvement of the resolution of the identity approximation for the formation of the Coulomb matrix
     J. Comp. Chem. 2003 24(14), 1740-1747
     doi.org/10.1002/jcc.10318
  2. Bykov, D.; Petrenko, T.; Izsak, R.; Kossmann, S.; Becker, U.; Valeev, E.; Neese, F.
     Efficient implementation of the analytic second derivatives of Hartree-Fock and hybrid DFT energies: a detailed analysis of different approximations
     Molec. Phys. 2015 113 , 1961-1977
     doi.org/10.1080/00268976.2015.1025114
  3. Caldeweyher, E.; Bannwarth, C.; Grimme, S.
     Extension of the D3 dispersion coefficient model
     J. Chem. Phys. 2017 147 , 034112
     doi.org/10.1063/1.4993215
  4. Lehtola, S.; Steigemann, C.; Oliveira, M.; Marques, M.
     Recent developments in Libxc - A comprehensive library of functionals for density functional theory
     Software X 2018 7 , 
     doi.org/10.1016/j.softx.2017.11.002
  5. Caldeweyher, E.; Ehlert, S.; Hansen, A.; Neugebauer, H.; Spicher, S.; Bannwarth, C.; Grimme, S.
     A generally applicable atomic-charge dependent London dispersion correction
     J. Chem. Phys. 2019 150 , 154122
     doi.org/10.1063/1.5090222
  6. Caldeweyher, E.; Mewes, J.; Ehlert, S.; Grimme, S.
     Extension and evaluation of the D4 London-dispersion model for periodic systems
     Phys. Chem. Chem. Phys. 2020 22(16), 8499-8512
     doi.org/10.1039/D0CP00502A
  7. Neese, F.
     The SHARK Integral Generation and Digestion System
     J. Comp. Chem. 2022 44(3), 381
     doi.org/10.1002/jcc.26942
  8. Wittmann, L.; Gordiy, I.; Friede, M.; Helmich-Paris, B.; Grimme, S.; Hansen, A.; Bursch, M.
     Extension of the D3 and D4 London Dispersion Corrections to the full Actinides Series
     Phys. Chem. Chem. Phys. 2024 26(32), 21379-21394
     doi.org/10.1039/D4CP01514B

List of suggested additional citations. These are papers that are important in the 'surrounding' of 
of this run, or papers that preceded the highly important papers. If you like your results we are grateful for a citation.

  1. Neese, F.
     The ORCA program system
     WIRES Comput. Molec. Sci. 2012 2(1), 73-78
     doi.org/10.1002/wcms.81
  2. Neese, F.
     Software update: the ORCA program system, version 4.0
     WIRES Comput. Molec. Sci. 2018 8(1), 1-6
     doi.org/10.1002/wcms.1327
  3. Neese, F.; Wennmohs, F.; Becker, U.; Riplinger, C.
     The ORCA quantum chemistry program package
     J. Chem. Phys. 2020 152(22), 224108
     doi.org/10.1063/5.0004608
  4. Neese, F.
     Software update: The ORCA program system—Version 5.0
     WIRES Comput. Molec. Sci. 2022 12(1), e1606
     doi.org/10.1002/wcms.1606

List of optional additional citations

  1. Neese, F.
     Approximate second-order SCF convergence for spin unrestricted wavefunctions
     Chem. Phys. Lett. 2000 325(1-3), 93-98
     doi.org/10.1016/s0009-2614(00)00662-x

Timings for individual modules:

Sum of individual times          ...      112.763 sec (=   1.879 min)
Startup calculation              ...       14.928 sec (=   0.249 min)  13.2 %
SCF iterations                   ...       47.242 sec (=   0.787 min)  41.9 %
Property integrals               ...       18.863 sec (=   0.314 min)  16.7 %
SCF Response                     ...        7.379 sec (=   0.123 min)   6.5 %
Property calculations            ...        8.204 sec (=   0.137 min)   7.3 %
SCF Gradient evaluation          ...       16.125 sec (=   0.269 min)  14.3 %
Geometry relaxation              ...        0.022 sec (=   0.000 min)   0.0 %
                             ****ORCA TERMINATED NORMALLY****
TOTAL RUN TIME: 0 days 0 hours 2 minutes 26 seconds 307 msec
