
                                 *****************
                                 * O   R   C   A *
                                 *****************

                                            #,                                       
                                            ###                                      
                                            ####                                     
                                            #####                                    
                                            ######                                   
                                           ########,                                 
                                     ,,################,,,,,                         
                               ,,#################################,,                 
                          ,,##########################################,,             
                       ,#########################################, ''#####,          
                    ,#############################################,,   '####,        
                  ,##################################################,,,,####,       
                ,###########''''           ''''###############################       
              ,#####''   ,,,,##########,,,,          '''####'''          '####       
            ,##' ,,,,###########################,,,                        '##       
           ' ,,###''''                  '''############,,,                           
         ,,##''                                '''############,,,,        ,,,,,,###''
      ,#''                                            '''#######################'''  
     '                                                          ''''####''''         
             ,#######,   #######,   ,#######,      ##                                
            ,#'     '#,  ##    ##  ,#'     '#,    #''#        ,####,    ,#,          
            ##       ##  ##   ,#'  ##            #'  '#       #'       ,# #          
            ##       ##  #######   ##           ,######,      #####,      #          
            '#,     ,#'  ##    ##  '#,     ,#' ,#      #,     #,   #      #          
             '#######'   ##     ##  '#######'  #'      '#     '####' #    #          



                #########################################################
                #                        -***-                          #
                #          Department of theory and spectroscopy        #
                #                                                       #
                #                      Frank Neese                      #
                #                                                       #
                #     Directorship, Architecture, Infrastructure        #
                #                    SHARK, DRIVERS                     #
                #        Core code/Algorithms in most modules           #
                #                                                       #
                #        Max Planck Institute fuer Kohlenforschung      #
                #                Kaiser Wilhelm Platz 1                 #
                #                 D-45470 Muelheim/Ruhr                 #
                #                      Germany                          #
                #                                                       #
                #                  All rights reserved                  #
                #                        -***-                          #
                #########################################################


                         Program Version 6.1.0  -  RELEASE   -
                                (GIT: $679e74b$)
                          ($2025-06-10 18:02:51 +0200$)


 With contributions from (in alphabetic order):
[Max-Planck-Institut fuer Kohlenforschung]                               
  Daniel Aravena         : Magnetic Suceptibility                        
  Michael Atanasov       : Ab Initio Ligand Field Theory (pilot matlab implementation)
  Alexander A. Auer      : GIAO ZORA, VPT2 properties, NMR spectrum      
  Ute Becker             : All parallelization in ORCA, NUMFREQ, NUMCALC 
  Giovanni Bistoni       : ED, misc. LED, open-shell LED, HFLD           
  Dmytro Bykov           : pre 5.0 version of the SCF Hessian            
  Marcos Casanova-Páez   : Triplet and SCS-CIS(D). UHF-(DLPNO)-IP/EA/STEOM-CCSD. UHF-CVS-IP/STEOM-CCSD   
  Vijay G. Chilkuri      : MRCI spin determinant printing, contributions to CSF-ICE 
  Pauline Colinet        : FMM embedding                                 
  Dipayan Datta          : RHF DLPNO-CCSD density                        
  Achintya Kumar Dutta   : EOM-CC, STEOM-CC                              
  Nicolas Foglia         : Exact transition moments, OPA infrastructure, MCD improvements    
  Dmitry Ganyushin       : Spin-Orbit,Spin-Spin,Magnetic field MRCI      
  Miquel Garcia-Rates    : C-PCM and meta-GGA Hessian, CCSD/C-PCM, Gaussian charge scheme 
  Tiago L. C. Gouveia    : GS-ROHF, GS-ROCIS                             
  Yang Guo               : DLPNO-NEVPT2, F12-NEVPT2, CIM, IAO-localization        
  Andreas Hansen         : Spin unrestricted coupled pair/coupled cluster methods 
  Ingolf Harden          : AUTO-CI MPn and infrastructure                
  Benjamin Helmich-Paris : MC-RPA, TRAH-(SCF,CASSCF), AVAS, COSX integrals, SCF dyn. polar., MC-PDFT, srDFT 
  Lee Huntington         : MR-EOM, pCC                                   
  Robert Izsak           : Overlap fitted RIJCOSX, COSX-SCS-MP3, EOM     
  Riya Kayal             : Wick's Theorem for AUTO-CI, AUTO-CI UHF-CCSDT 
  Emily Kempfer          : AUTO-CI RHF CISDT and CCSDT, approximate NEVPT4
  Christian Kollmar      : KDIIS, OOCD, Brueckner-CCSD(T), CCSD density, CASPT2, CASPT2-K, improved NEVPT2 
  Axel Koslowski         : Symmetry handling                             
  Simone Kossmann        : meta-GGA functionals, TD-DFT gradient, OOMP2, (MP2 Hessian; deprecated post 5.0) 
  Lucas Lang             : DCDCAS, Hyperfine gauge corrections, ICE-SOC+SSC
  Marvin Lechner         : AUTO-CI (C++ implementation), FIC-MRCC        
  Spencer Leger          : CASSCF response                               
  Dagmar Lenk            : GEPOL surface, SMD, ORCA-2-JSON               
  Dimitrios Liakos       : Extrapolation schemes; Compound Job, Property file
  Dimitrios Manganas     : Further ROCIS development; embedding schemes. LFT, Crystal Embedding 
  Dimitrios Pantazis     : SARC Basis sets                               
  Anastasios Papadopoulos: AUTO-CI, single reference methods and gradients 
  Taras Petrenko         : pre 6.0 DFT Hessian and TD-DFT gradient,  ECA, NRVS 
  Petra Pikulova         : Analytic Raman intensities                    
  Peter Pinski           : DLPNO-MP2, DLPNO-MP2 Gradient                 
  Shashank Vittal Rao    : ES-AILFT, MagRelax                            
  Christoph Reimann      : Effective Core Potentials                     
  Marius Retegan         : Local ZFS, SOC                                
  Christoph Riplinger    : Optimizer, TS searches, QM/MM, DLPNO-CCSD(T), (RO)-DLPNO pert. Triples 
  Michael Roemelt        : Original ROCIS implementation, recursive CI coupling coefficients
  Masaaki Saitow         : Open-shell DLPNO-CCSD energy and density      
  Barbara Sandhoefer     : DKH picture change effects                    
  Yorick L. A. Schmerwitz: GMF and freeze-and-release deltaSCF, NEB S-IDPP initial path                    
  Kantharuban Sivalingam : CASSCF convergence/infrastructure, NEVPT2, NEVPT3, NEVPT4(SD), FIC-MRCI and CEPA variants
  Bernardo de Souza      : ESD, SOC TD-DFT                               
  Georgi L. Stoychev     : AutoAux, RI-MP2 NMR, DLPNO-MP2 response, X2C  
  Van Anh Tran           : RI-MP2 g-tensors                              
  Willem Van den Heuvel  : Paramagnetic NMR                              
  Zikuan Wang            : NOTCH, Electric field optimization            
  Frank Wennmohs         : Technical directorship and infrastructure     
  Hang Xu                : AUTO-CI-Response properties                   
                                                                         
[FACCTs GmbH]                                                            
  Markus Bursch, Nicolas Foglia, Miquel Garcia-Rates, Ingolf Harden, Hagen Neugebauer, Anastasios Papadopoulos, 
  Christoph Riplinger, Bernardo de Souza, Georgi L. Stoychev                                                    
                                                                 
  APM, various basis sets, CI-OPT, improved COSX, DLPNO-Multilevel,           
  DOCKER, DRACO, updates on ESD, Fragmentator, GOAT, IRC, LR-CPCM, L-BFGS, MBIS, meta-GGA TD-DFT gradient, ML-optimized integration grids, 
  MM, NACMEs, nearIR, NEB, NEB-TS, NL-DFT gradient (VV10), 2- and 3-layer-ONIOM, interface openCOSMO-RS, QMMM,   
  Crystal-QMMM, RESP, rigid body optimization, SF, symmetry and pop. for TD-DFT, various functionals, SOLVATOR                                   
                                                                         
[Other institutions]                                                     
  V. Asgeirsson          : NEB                                           
  Christoph Bannwarth    : sTDA-DFT, sTD-DFT, PBEh-3c, B97-3c, D3        
  Giovanni Bistoni       : ETS/NOCV, ADLD/ADEX, COVALED                  
  Martin Brehm           : Molecular dynamics                            
  Ronald Cardenas        : ETS/NOCV                                      
  Martina Colucci        : COVALED                                       
  Sebastian Ehlert       : rSCAN, r2SCAN, r2SCAN-3c, D4, dhf basis sets  
  Marvin Friede          : D4 for Fr, Ra, Ac-Lr                          
  Lars Goerigk           : TD-DFT with DH, B97 family of functionals     
  Stefan Grimme          : VdW corrections, initial TS optimization, DFT functionals, gCP, sTDA/sTD-DF 
  Waldemar Hujo          : DFT-NL                                        
  H. Jonsson             : NEB                                           
  Holger Kruse           : gCP                                           
  Marcel Mueller         : wB97X-3c, vDZP basis set                      
  Hagen Neugebauer       : wr2SCAN, Native XTB                           
  Gianluca Regni         : ADLD/ADEX                                     
  Tobias Risthaus        : pre 6.0 range-separated hybrid DFT and stability analysis
  Lukas Wittmann         : regularized MP2, r2SCAN double-hybrids, wr2SCAN        
                                                                         
We gratefully acknowledge several colleagues who have allowed us to      
interface, adapt or use parts of their codes:                            
  Ed Valeev, F. Pavosevic, A. Kumar             : LibInt (2-el integral package), F12 methods 
  Garnet Chan, S. Sharma, J. Yang, R. Olivares  : DMRG                   
  Ulf Ekstrom                                   : XCFun DFT Library      
  Mihaly Kallay                                 : mrcc  (arbitrary order and MRCC methods)
  Frank Weinhold                                : gennbo (NPA and NBO analysis)           
  Simon Mueller                                 : openCOSMO-RS                            
  Christopher J. Cramer and Donald G. Truhlar   : smd solvation model                     
  S Lehtola, MJT Oliveira, MAL Marques          : LibXC Library                           
  Liviu Ungur et al                             : ANISO software                          


 Your calculation uses the libint2 library for the computation of 2-el integrals
 For citations please refer to: http://libint.valeyev.net

 Your ORCA version has been built with support for libXC version: 7.0.0
 For citations please refer to: https://libxc.gitlab.io

 This ORCA versions uses:
   CBLAS   interface :  Fast vector & matrix operations
   LAPACKE interface :  Fast linear algebra routines
   SCALAPACK package :  Parallel linear algebra routines
   Shared memory     :  Shared parallel matrices
   BLAS/LAPACK       :  OpenBLAS 0.3.29  USE64BITINT DYNAMIC_ARCH NO_AFFINITY SkylakeX SINGLE_THREADED
        Core in use  :  SkylakeX
   Copyright (c) 2011-2014, The OpenBLAS Project


  ***********************************
  * Starting time: Mon Mar 16 14:13:20 2026
  * Host name:     midway3-login4.rcc.local
  * Process ID:    38933
  * Working dir.:  /home/rzhu16/evans-polanyi-principle-validation/runs/da_f/TS_search
  ***********************************

Your calculation utilizes the semiempirical GFN2-xTB method
Please cite in your paper:
Bannwarth, C.; Ehlert S.; Grimme, S. J. Chem. Theory Comput. 2019, 15, 1652.
   

================================================================================

================================================================================
                                        WARNINGS
                       Please study these warnings very carefully!
================================================================================


WARNING: Analytical Hessian for XTB is limited in the analysis of the data.
       : If you want to obtain extensive IR and deltaG analysis, please use ! XTB NumFreq. 


WARNING: Geometry Optimization
  ===> : Switching off AutoStart
         For restart on a previous wavefunction, please use MOREAD

WARNING: Found dipole moment calculation with XTB calculation
  ===> : Switching off dipole moment calculation


WARNING: Found frequency calculation in combination with XTB calculation
  ===> : Need to redirect dipole moment calculation to properties.out


================================================================================
                                       INPUT FILE
================================================================================
NAME = da_f.inp
|  1> ! XTB2 OptTS Freq PAL8
|  2> 
|  3> %geom
|  4>   Calc_Hess true
|  5>   Recalc_Hess 3
|  6>   MaxIter 200
|  7>   Trust -0.1
|  8> end
|  9> 
| 10> * xyz 0 1
| 11> C    0.000000   0.000000   0.000000
| 12> C    1.400000   0.000000   0.000000
| 13> C    2.100000   1.212436   0.000000
| 14> C    3.500000   1.212436   0.000000
| 15> C    2.401989   0.832073   1.868073
| 16> C    1.098011   0.380362   1.868073
| 17> H   -0.794681  -0.649304  -0.336581
| 18> H   -0.794681   0.466002  -0.563671
| 19> H    1.940000  -0.935307   0.000000
| 20> H    1.560000   2.147743   0.000000
| 21> H    4.294681   1.861739  -0.336581
| 22> H    4.294681   0.746434  -0.563671
| 23> H    0.490471   0.772177   2.670429
| 24> H    0.863031  -0.303311   2.670429
| 25> H    3.009529   0.440258   2.670429
| 26> F    2.702242   1.705656   2.893306
| 27> *
| 28> 
| 29>                          ****END OF INPUT****
================================================================================

                       *****************************
                       * Geometry Optimization Run *
                       *****************************

Geometry optimization settings:
Update method            Update   .... Bofill
Choice of coordinates    CoordSys .... (2022) Redundant Internals
Initial Hessian          InHess   .... Almloef's Model
Max. no of cycles        MaxIter  .... 200

Convergence Tolerances:
Energy Change            TolE     ....  5.0000e-06 Eh
Max. Gradient            TolMAXG  ....  3.0000e-04 Eh/bohr
RMS Gradient             TolRMSG  ....  1.0000e-04 Eh/bohr
Max. Displacement        TolMAXD  ....  4.0000e-03 bohr
RMS Displacement         TolRMSD  ....  2.0000e-03 bohr
Strict Convergence                .... False

------------------------------------------------------------------------------
                        ORCA OPTIMIZATION COORDINATE SETUP
------------------------------------------------------------------------------

The optimization will be done in redundant internal coordinates (2022)
Making redundant internal coordinates   ...  (2022 redundants) done
Following TS mode number                ...     0
Evaluating the initial hessian          ...  (Is done on the fly) done
Evaluating the coordinates              ...  done
Calculating the B-matrix                .... done
Calculating the G-matrix                .... done
The number of degrees of freedom        ....   87

    -----------------------------------------------------------------
                    Redundant Internal Coordinates


    -----------------------------------------------------------------
         Definition                    Initial Value    d2E/dq (diagonal element)
    -----------------------------------------------------------------
      1. B(C   1,C   0)                  1.4000         0.000000   
      2. B(C   2,C   1)                  1.4000         0.000000   
      3. B(C   3,C   2)                  1.4000         0.000000   
      4. B(C   4,C   2)                  1.9302         0.000000   
      5. B(C   5,C   4)                  1.3800         0.000000   
      6. B(C   5,C   1)                  1.9302         0.000000   
      7. B(H   6,C   0)                  1.0800         0.000000   
      8. B(H   7,C   0)                  1.0800         0.000000   
      9. B(H   8,C   1)                  1.0800         0.000000   
     10. B(H   9,C   2)                  1.0800         0.000000   
     11. B(H  10,C   3)                  1.0800         0.000000   
     12. B(H  11,C   3)                  1.0800         0.000000   
     13. B(H  12,C   5)                  1.0800         0.000000   
     14. B(H  13,C   5)                  1.0800         0.000000   
     15. B(H  14,C   4)                  1.0800         0.000000   
     16. B(F  15,H  14)                  1.3211         0.000000   
     17. B(F  15,C   4)                  1.3800         0.000000   
     18. A(C   1,C   0,H   6)          137.3762         0.000000   
     19. A(H   6,C   0,H   7)           63.5979         0.000000   
     20. A(C   1,C   0,H   7)          137.3762         0.000000   
     21. A(C   0,C   1,C   5)           80.9987         0.000000   
     22. A(C   5,C   1,H   8)          104.4117         0.000000   
     23. A(C   0,C   1,H   8)          120.0000         0.000000   
     24. A(C   2,C   1,C   5)           84.6965         0.000000   
     25. A(C   0,C   1,C   2)          120.0000         0.000000   
     26. A(C   2,C   1,H   8)          120.0000         0.000000   
     27. A(C   1,C   2,H   9)          120.0000         0.000000   
     28. A(C   3,C   2,H   9)          120.0000         0.000000   
     29. A(C   1,C   2,C   4)           84.6965         0.000000   
     30. A(C   3,C   2,C   4)           80.9987         0.000000   
     31. A(C   1,C   2,C   3)          120.0000         0.000000   
     32. A(C   4,C   2,H   9)          104.4118         0.000000   
     33. A(H  10,C   3,H  11)           63.5978         0.000000   
     34. A(C   2,C   3,H  11)          137.3762         0.000000   
     35. A(C   2,C   3,H  10)          137.3762         0.000000   
     36. A(C   2,C   4,C   5)           85.2197         0.000000   
     37. A(C   5,C   4,F  15)          114.3806         0.000000   
     38. A(C   2,C   4,F  15)          128.9259         0.000000   
     39. A(C   2,C   4,H  14)          151.4650         0.000000   
     40. A(C   5,C   4,H  14)          114.3806         0.000000   
     41. A(H  14,C   4,F  15)           63.5978         0.000000   
     42. A(H  12,C   5,H  13)           63.5978         0.000000   
     43. A(C   4,C   5,H  13)          114.3806         0.000000   
     44. A(C   1,C   5,H  13)          128.9259         0.000000   
     45. A(C   4,C   5,H  12)          114.3806         0.000000   
     46. A(C   1,C   5,H  12)          151.4650         0.000000   
     47. A(C   1,C   5,C   4)           85.2197         0.000000   
     48. A(C   4,H  14,F  15)           69.3289         0.000000   
     49. A(C   4,F  15,H  14)           47.0733         0.000000   
     50. D(C   5,C   1,C   0,H   6)   -128.9097         0.000000   
     51. D(H   8,C   1,C   0,H   6)    -27.4010         0.000000   
     52. D(C   2,C   1,C   0,H   6)    152.5990         0.000000   
     53. D(C   2,C   1,C   0,H   7)     50.4185         0.000000   
     54. D(C   5,C   1,C   0,H   7)    128.9098         0.000000   
     55. D(C   3,C   2,C   1,C   0)    180.0000         0.000000   
     56. D(C   3,C   2,C   1,C   5)    103.5935         0.000000   
     57. D(C   4,C   2,C   1,C   5)     27.1871         0.000000   
     58. D(C   4,C   2,C   1,H   8)    -76.4065         0.000000   
     59. D(C   3,C   2,C   1,H   8)      0.0000         0.000000   
     60. D(C   4,C   2,C   1,C   0)    103.5935         0.000000   
     61. D(H  11,C   3,C   2,C   1)     50.4185         0.000000   
     62. D(H  10,C   3,C   2,C   4)   -128.9098         0.000000   
     63. D(H  10,C   3,C   2,C   1)    152.5990         0.000000   
     64. D(H  10,C   3,C   2,H   9)    -27.4010         0.000000   
     65. D(H  11,C   3,C   2,C   4)    128.9097         0.000000   
     66. D(H  14,C   4,C   2,H   9)   -144.5296         0.000000   
     67. D(H  14,C   4,C   2,C   3)    -25.7151         0.000000   
     68. D(H  14,C   4,C   2,C   1)     95.8264         0.000000   
     69. D(C   5,C   4,C   2,H   9)     79.9613         0.000000   
     70. D(C   5,C   4,C   2,C   3)   -161.2242         0.000000   
     71. D(C   5,C   4,C   2,C   1)    -39.6828         0.000000   
     72. D(C   1,C   5,C   4,H  14)   -130.8696         0.000000   
     73. D(C   1,C   5,C   4,C   2)     27.5662         0.000000   
     74. D(H  12,C   5,C   1,H   8)   -144.5296         0.000000   
     75. D(H  12,C   5,C   1,C   2)     95.8263         0.000000   
     76. D(H  12,C   5,C   1,C   0)    -25.7151         0.000000   
     77. D(C   4,C   5,C   1,H   8)     79.9613         0.000000   
     78. D(C   4,C   5,C   1,C   2)    -39.6828         0.000000   
     79. D(C   1,C   5,C   4,F  15)    158.4357         0.000000   
     80. D(C   4,C   5,C   1,C   0)   -161.2242         0.000000   
     81. D(H  12,C   5,C   4,F  15)     -0.0000         0.000000   
     82. D(H  12,C   5,C   4,H  14)     70.6946         0.000000   
     83. D(H  12,C   5,C   4,C   2)   -130.8696         0.000000   
     84. D(F  15,H  14,C   4,C   5)   -106.3194         0.000000   
     85. D(F  15,H  14,C   4,C   2)    123.7419         0.000000   
     86. D(H  14,F  15,C   4,C   5)    106.3194         0.000000   
     87. D(H  14,F  15,C   4,C   2)   -149.2961         0.000000   
    -----------------------------------------------------------------

Number of atoms                         .... 16
Number of degrees of freedom            .... 87


         *************************************************************
         *                GEOMETRY OPTIMIZATION CYCLE   1            *
         *************************************************************
---------------------------------
CARTESIAN COORDINATES (ANGSTROEM)
---------------------------------
  C     0.000000    0.000000    0.000000
  C     1.400000    0.000000    0.000000
  C     2.100000    1.212436    0.000000
  C     3.500000    1.212436    0.000000
  C     2.401989    0.832073    1.868073
  C     1.098011    0.380362    1.868073
  H    -0.794681   -0.649304   -0.336581
  H    -0.794681    0.466002   -0.563671
  H     1.940000   -0.935307    0.000000
  H     1.560000    2.147743    0.000000
  H     4.294681    1.861739   -0.336581
  H     4.294681    0.746434   -0.563671
  H     0.490471    0.772177    2.670429
  H     0.863031   -0.303311    2.670429
  H     3.009529    0.440258    2.670429
  F     2.702242    1.705656    2.893306

----------------------------
CARTESIAN COORDINATES (A.U.)
----------------------------
  NO LB    ZA    FRAG    MASS        X           Y           Z
   0 C   6.0000    0    12.011    0.000000    0.000000    0.000000
   1 C   6.0000    0    12.011    2.645617    0.000000    0.000000
   2 C   6.0000    0    12.011    3.968425    2.291172    0.000000
   3 C   6.0000    0    12.011    6.614041    2.291172    0.000000
   4 C   6.0000    0    12.011    4.539101    1.572390    3.530146
   5 C   6.0000    0    12.011    2.074940    0.718780    3.530146
   6 H   1.0000    0     1.008   -1.501729   -1.227007   -0.636046
   7 H   1.0000    0     1.008   -1.501729    0.880616   -1.065184
   8 H   1.0000    0     1.008    3.666069   -1.767474    0.000000
   9 H   1.0000    0     1.008    2.947973    4.058646    0.000000
  10 H   1.0000    0     1.008    8.115771    3.518177   -0.636046
  11 H   1.0000    0     1.008    8.115771    1.410556   -1.065184
  12 H   1.0000    0     1.008    0.926856    1.459203    5.046379
  13 H   1.0000    0     1.008    1.630892   -0.573175    5.046379
  14 H   1.0000    0     1.008    5.687186    0.831967    5.046379
  15 F   9.0000    0    18.998    5.106497    3.223223    5.467556

      -----------------------------------------------------------      
     |                   =====================                   |     
     |                           x T B                           |     
     |                   =====================                   |     
     |                         S. Grimme                         |     
     |          Mulliken Center for Theoretical Chemistry        |     
     |                    University of Bonn                     |     
      -----------------------------------------------------------      

   * xtb version 6.7.1 (edcfbbe) compiled by 'albert@albert-system' on 2024-07-22

   xtb is free software: you can redistribute it and/or modify it under
   the terms of the GNU Lesser General Public License as published by
   the Free Software Foundation, either version 3 of the License, or
   (at your option) any later version.
   
   xtb is distributed in the hope that it will be useful,
   but WITHOUT ANY WARRANTY; without even the implied warranty of
   MERCHANTABILITY or FITNESS FOR A PARTICULAR PURPOSE.  See the
   GNU Lesser General Public License for more details.
   
   Cite this work as:
   * C. Bannwarth, E. Caldeweyher, S. Ehlert, A. Hansen, P. Pracht,
     J. Seibert, S. Spicher, S. Grimme, WIREs Comput. Mol. Sci., 2020, 11,
     e01493. DOI: 10.1002/wcms.1493
   
   for GFN2-xTB:
   * C. Bannwarth, S. Ehlert and S. Grimme., J. Chem. Theory Comput., 2019,
     15, 1652-1671. DOI: 10.1021/acs.jctc.8b01176
   for GFN1-xTB:
   * S. Grimme, C. Bannwarth, P. Shushkov, J. Chem. Theory Comput., 2017,
     13, 1989-2009. DOI: 10.1021/acs.jctc.7b00118
   for GFN0-xTB:
   * P. Pracht, E. Caldeweyher, S. Ehlert, S. Grimme, ChemRxiv, 2019, preprint.
     DOI: 10.26434/chemrxiv.8326202.v1
   for GFN-FF:
   * S. Spicher and S. Grimme, Angew. Chem. Int. Ed., 2020, 59, 15665-15673.
     DOI: 10.1002/anie.202004239
   
   for ALPB and GBSA implicit solvation:
   * S. Ehlert, M. Stahn, S. Spicher, S. Grimme, J. Chem. Theory Comput.,
     2021, 17, 4250-4261. DOI: 10.1021/acs.jctc.1c00471
   
   for ddCOSMO and CPCM-X implicit solvation:
   * M. Stahn, S. Ehlert, S. Grimme, J. Phys. Chem. A,
     2023, XX, XXXX-XXXX. DOI: 10.1021/acs.jpca.3c04382
   
   for DFT-D4:
   * E. Caldeweyher, C. Bannwarth and S. Grimme, J. Chem. Phys., 2017,
     147, 034112. DOI: 10.1063/1.4993215
   * E. Caldeweyher, S. Ehlert, A. Hansen, H. Neugebauer, S. Spicher,
     C. Bannwarth and S. Grimme, J. Chem. Phys., 2019, 150, 154122.
     DOI: 10.1063/1.5090222
   * E. Caldeweyher, J.-M. Mewes, S. Ehlert and S. Grimme, Phys. Chem. Chem. Phys.
     2020, 22, 8499-8512. DOI: 10.1039/D0CP00502A
   
   for sTDA-xTB:
   * S. Grimme and C. Bannwarth, J. Chem. Phys., 2016, 145, 054103.
     DOI: 10.1063/1.4959605
   
   in the mass-spec context:
   * V. Asgeirsson, C. Bauer and S. Grimme, Chem. Sci., 2017, 8, 4879.
     DOI: 10.1039/c7sc00601b
   * J. Koopman and S. Grimme, ACS Omega 2019, 4, 12, 15120-15133.
     DOI: 10.1021/acsomega.9b02011
   
   for metadynamics refer to:
   * S. Grimme, J. Chem. Theory Comput., 2019, 155, 2847-2862
     DOI: 10.1021/acs.jctc.9b00143
   
   for SPH calculations refer to:
   * S. Spicher and S. Grimme, J. Chem. Theory Comput., 2021, 17, 1701-1714
     DOI: 10.1021/acs.jctc.0c01306
   
   for ONIOM refer to:
   * C. Plett, A. Katbashev, S. Ehlert, S. Grimme, M. Bursch,
     Phys. Chem. Chem. Phys., 2023, 25, 17860-17868. DOI: 10.1039/D3CP02178E
   
   for DIPRO refer to:
   * J. Kohn, N. Gildemeister, S. Grimme, D. Fazzi, A. Hansen,
     J. Chem. Phys., 2023, just accepted.
   
   for PTB refer to:
   * S. Grimme, M. Mueller, A. Hansen, J. Chem. Phys., 2023, 158, 124111.
     DOI: 10.1063/5.0137838
   
   with help from (in alphabetical order)
   P. Atkinson, C. Bannwarth, F. Bohle, G. Brandenburg, E. Caldeweyher
   M. Checinski, S. Dohm, S. Ehlert, S. Ehrlich, I. Gerasimov, C. Hölzer
   A. Katbashev, J. Kohn, J. Koopman, C. Lavigne, S. Lehtola, F. März, M. Müller,
   F. Musil, H. Neugebauer, J. Pisarek, C. Plett, P. Pracht, F. Pultar,
   J. Seibert, P. Shushkov, S. Spicher, M. Stahn, M. Steiner, T. Strunk,
   J. Stückrath, T. Rose, and J. Unsleber
   
 * started run on 2026/03/16 at 14:13:22.309     
   ID    Z sym.   atoms
    1    6 C      1-6
    2    1 H      7-15
    3    9 F      16

           -------------------------------------------------
          |                Calculation Setup                |
           -------------------------------------------------

          program call               : /software/orca-6.1.0-el8-x86_64/bin/otool_xtb da_f_XTB.xyz --grad -c 0 -u 0 -P 8 --namespace da_f --input da_f_XTB.input.tmp --acc 0.200000
          hostname                   : midway3-login4.rcc.local
          calculation namespace      : da_f
          coordinate file            : da_f_XTB.xyz
          omp threads                :                     8


           -------------------------------------------------
          |                 G F N 2 - x T B                 |
           -------------------------------------------------

        Reference                      10.1021/acs.jctc.8b01176
      * Hamiltonian:
        H0-scaling (s, p, d)           1.850000    2.230000    2.230000
        zeta-weighting                 0.500000
      * Dispersion:
        s8                             2.700000
        a1                             0.520000
        a2                             5.000000
        s9                             5.000000
      * Repulsion:
        kExp                           1.500000    1.000000
        rExp                           1.000000
      * Coulomb:
        alpha                          2.000000
        third order                    shell-resolved
        anisotropic                    true
        a3                             3.000000
        a5                             4.000000
        cn-shift                       1.200000
        cn-exp                         4.000000
        max-rad                        5.000000


          ...................................................
          :                      SETUP                      :
          :.................................................:
          :  # basis functions                  37          :
          :  # atomic orbitals                  37          :
          :  # shells                           23          :
          :  # electrons                        40          :
          :  max. iterations                   250          :
          :  Hamiltonian                  GFN2-xTB          :
          :  restarted?                      false          :
          :  GBSA solvation                  false          :
          :  PC potential                    false          :
          :  electronic temp.          300.0000000     K    :
          :  accuracy                    0.2000000          :
          :  -> integral cutoff          0.3198970E+02      :
          :  -> integral neglect         0.2000000E-08      :
          :  -> SCF convergence          0.2000000E-06 Eh   :
          :  -> wf. convergence          0.2000000E-04 e    :
          :  Broyden damping             0.4000000          :
          :  net charge                          0          :
          :  unpaired electrons                  0          :
          ...................................................

 iter      E             dE          RMSdq      gap      omega  full diag
   1    -21.7298019 -0.217298E+02  0.503E+00    0.54       0.0  T
   2    -21.4790749  0.250727E+00  0.501E+00    0.59       1.0  T
   3    -21.5909096 -0.111835E+00  0.369E+00    0.66       1.0  T
   4    -21.5641609  0.267487E-01  0.372E+00    1.11       1.0  T
   5    -21.8019622 -0.237801E+00  0.169E+00    0.51       1.0  T
   6    -21.8181044 -0.161422E-01  0.886E-01    0.46       1.0  T
   7    -21.8299749 -0.118706E-01  0.557E-01    0.40       1.0  T
   8    -21.8299944 -0.194828E-04  0.415E-01    0.39       1.0  T
   9    -21.8218306  0.816386E-02  0.608E-01    0.37       1.0  T
  10    -21.8319713 -0.101408E-01  0.310E-02    0.37       1.0  T
  11    -21.8319628  0.857453E-05  0.317E-02    0.37       1.0  T
  12    -21.8319817 -0.189617E-04  0.639E-03    0.37       3.9  T
  13    -21.8319815  0.175468E-06  0.521E-03    0.37       4.8  T
  14    -21.8319822 -0.619106E-06  0.119E-03    0.37      21.0  T
  15    -21.8319822 -0.767780E-08  0.897E-04    0.37      27.9  T
  16    -21.8319822 -0.166965E-07  0.309E-04    0.37      80.8  T
  17    -21.8319822 -0.118104E-08  0.129E-04    0.37     193.8  T
  18    -21.8319822 -0.360625E-09  0.106E-05    0.37    2366.7  T

   *** convergence criteria satisfied after 18 iterations ***

         #    Occupation            Energy/Eh            Energy/eV
      -------------------------------------------------------------
         1        2.0000           -0.7959241             -21.6582
       ...           ...                  ...                  ...
        14        2.0000           -0.4410863             -12.0026
        15        2.0000           -0.4217655             -11.4768
        16        2.0000           -0.4069879             -11.0747
        17        2.0000           -0.3751301             -10.2078
        18        2.0000           -0.3663013              -9.9676
        19        2.0000           -0.3491324              -9.5004
        20        1.9984           -0.2635307              -7.1710 (HOMO)
        21        0.0016           -0.2499400              -6.8012 (LUMO)
        22        0.0000           -0.2430191              -6.6129
        23                         -0.1470829              -4.0023
        24                          0.0004062               0.0111
        25                          0.0937413               2.5508
       ...                                ...                  ...
        37                          0.5997689              16.3205
      -------------------------------------------------------------
                  HL-Gap            0.0135907 Eh            0.3698 eV
             Fermi-level           -0.2567357 Eh           -6.9861 eV

 SCC (total)                   0 d,  0 h,  0 min,  0.218 sec
 SCC setup                      ...        0 min,  0.001 sec (  0.583%)
 Dispersion                     ...        0 min,  0.001 sec (  0.290%)
 classical contributions        ...        0 min,  0.002 sec (  0.801%)
 integral evaluation            ...        0 min,  0.001 sec (  0.533%)
 iterations                     ...        0 min,  0.211 sec ( 96.994%)
 molecular gradient             ...        0 min,  0.002 sec (  0.691%)
 printout                       ...        0 min,  0.000 sec (  0.095%)

         :::::::::::::::::::::::::::::::::::::::::::::::::::::
         ::                     SUMMARY                     ::
         :::::::::::::::::::::::::::::::::::::::::::::::::::::
         :: total energy             -21.514784668614 Eh    ::
         :: gradient norm              0.399433390766 Eh/a0 ::
         :: HOMO-LUMO gap              0.369822672912 eV    ::
         ::.................................................::
         :: SCC energy               -21.831957275566 Eh    ::
         :: -> isotropic ES            0.027229668263 Eh    ::
         :: -> anisotropic ES          0.009158440053 Eh    ::
         :: -> anisotropic XC          0.013172122013 Eh    ::
         :: -> dispersion             -0.009598626678 Eh    ::
         :: repulsion energy           0.317172606952 Eh    ::
         :: add. restraining           0.000000000000 Eh    ::
         :: total charge              -0.000000000000 e     ::
         :::::::::::::::::::::::::::::::::::::::::::::::::::::


Property printout bound to 'properties.out'

           -------------------------------------------------
          | TOTAL ENERGY              -21.514784668614 Eh   |
          | GRADIENT NORM               0.399433390766 Eh/α |
          | HOMO-LUMO GAP               0.369822672912 eV   |
           -------------------------------------------------

------------------------------------------------------------------------
 * finished run on 2026/03/16 at 14:13:22.770     
------------------------------------------------------------------------
 total:
 * wall-time:     0 d,  0 h,  0 min,  0.460 sec
 *  cpu-time:     0 d,  0 h,  0 min,  0.988 sec
 * ratio c/w:     2.147 speedup
 SCF:
 * wall-time:     0 d,  0 h,  0 min,  0.218 sec
 *  cpu-time:     0 d,  0 h,  0 min,  0.478 sec
 * ratio c/w:     2.189 speedup


-------------------------   --------------------
FINAL SINGLE POINT ENERGY       -21.514784668610
-------------------------   --------------------


-------------
DIPOLE MOMENT
-------------
                                X             Y             Z
Total Dipole Moment    :     -0.32900      -0.54700      -0.45700
                        -----------------------------------------
Magnitude (a.u.)       :      0.78505
Magnitude (Debye)      :      1.99543


------------------
CARTESIAN GRADIENT
------------------

   1   C   :    0.052059930    0.015840326    0.053146739
   2   C   :    0.086579402    0.030359484    0.001051279
   3   C   :   -0.086642261   -0.034048278    0.008737352
   4   C   :   -0.050806190   -0.021732467    0.059280084
   5   C   :   -0.017854332    0.032873946   -0.082282702
   6   C   :    0.018926473    0.023067701   -0.076439662
   7   H   :   -0.028023431    0.097555398   -0.034267180
   8   H   :   -0.026522691   -0.103895873    0.004068618
   9   H   :   -0.003620364    0.000378159    0.006260126
  10   H   :    0.003309519   -0.000547197    0.005861653
  11   H   :    0.028229136   -0.097256821   -0.033037278
  12   H   :    0.025669144    0.103245384    0.001869142
  13   H   :    0.041187208   -0.087208477    0.033763165
  14   H   :   -0.026307311    0.092066897    0.023225893
  15   H   :   -0.042470447    0.115531382    0.066020363
  16   F   :    0.026286214   -0.166229563   -0.037257593

Difference to translation invariance:
           :    0.0000000000   -0.0000000000    0.0000000000

Difference to rotation invariance:
           :   -0.0095802038    0.0246001839   -0.0276058338

Norm of the Cartesian gradient     ...    0.3994333908
RMS gradient                       ...    0.0576532439
MAX gradient                       ...    0.1662295632
      -----------------------------------------------------------      
     |                   =====================                   |     
     |                           x T B                           |     
     |                   =====================                   |     
     |                         S. Grimme                         |     
     |          Mulliken Center for Theoretical Chemistry        |     
     |                    University of Bonn                     |     
      -----------------------------------------------------------      

   * xtb version 6.7.1 (edcfbbe) compiled by 'albert@albert-system' on 2024-07-22

   xtb is free software: you can redistribute it and/or modify it under
   the terms of the GNU Lesser General Public License as published by
   the Free Software Foundation, either version 3 of the License, or
   (at your option) any later version.
   
   xtb is distributed in the hope that it will be useful,
   but WITHOUT ANY WARRANTY; without even the implied warranty of
   MERCHANTABILITY or FITNESS FOR A PARTICULAR PURPOSE.  See the
   GNU Lesser General Public License for more details.
   
   Cite this work as:
   * C. Bannwarth, E. Caldeweyher, S. Ehlert, A. Hansen, P. Pracht,
     J. Seibert, S. Spicher, S. Grimme, WIREs Comput. Mol. Sci., 2020, 11,
     e01493. DOI: 10.1002/wcms.1493
   
   for GFN2-xTB:
   * C. Bannwarth, S. Ehlert and S. Grimme., J. Chem. Theory Comput., 2019,
     15, 1652-1671. DOI: 10.1021/acs.jctc.8b01176
   for GFN1-xTB:
   * S. Grimme, C. Bannwarth, P. Shushkov, J. Chem. Theory Comput., 2017,
     13, 1989-2009. DOI: 10.1021/acs.jctc.7b00118
   for GFN0-xTB:
   * P. Pracht, E. Caldeweyher, S. Ehlert, S. Grimme, ChemRxiv, 2019, preprint.
     DOI: 10.26434/chemrxiv.8326202.v1
   for GFN-FF:
   * S. Spicher and S. Grimme, Angew. Chem. Int. Ed., 2020, 59, 15665-15673.
     DOI: 10.1002/anie.202004239
   
   for ALPB and GBSA implicit solvation:
   * S. Ehlert, M. Stahn, S. Spicher, S. Grimme, J. Chem. Theory Comput.,
     2021, 17, 4250-4261. DOI: 10.1021/acs.jctc.1c00471
   
   for ddCOSMO and CPCM-X implicit solvation:
   * M. Stahn, S. Ehlert, S. Grimme, J. Phys. Chem. A,
     2023, XX, XXXX-XXXX. DOI: 10.1021/acs.jpca.3c04382
   
   for DFT-D4:
   * E. Caldeweyher, C. Bannwarth and S. Grimme, J. Chem. Phys., 2017,
     147, 034112. DOI: 10.1063/1.4993215
   * E. Caldeweyher, S. Ehlert, A. Hansen, H. Neugebauer, S. Spicher,
     C. Bannwarth and S. Grimme, J. Chem. Phys., 2019, 150, 154122.
     DOI: 10.1063/1.5090222
   * E. Caldeweyher, J.-M. Mewes, S. Ehlert and S. Grimme, Phys. Chem. Chem. Phys.
     2020, 22, 8499-8512. DOI: 10.1039/D0CP00502A
   
   for sTDA-xTB:
   * S. Grimme and C. Bannwarth, J. Chem. Phys., 2016, 145, 054103.
     DOI: 10.1063/1.4959605
   
   in the mass-spec context:
   * V. Asgeirsson, C. Bauer and S. Grimme, Chem. Sci., 2017, 8, 4879.
     DOI: 10.1039/c7sc00601b
   * J. Koopman and S. Grimme, ACS Omega 2019, 4, 12, 15120-15133.
     DOI: 10.1021/acsomega.9b02011
   
   for metadynamics refer to:
   * S. Grimme, J. Chem. Theory Comput., 2019, 155, 2847-2862
     DOI: 10.1021/acs.jctc.9b00143
   
   for SPH calculations refer to:
   * S. Spicher and S. Grimme, J. Chem. Theory Comput., 2021, 17, 1701-1714
     DOI: 10.1021/acs.jctc.0c01306
   
   for ONIOM refer to:
   * C. Plett, A. Katbashev, S. Ehlert, S. Grimme, M. Bursch,
     Phys. Chem. Chem. Phys., 2023, 25, 17860-17868. DOI: 10.1039/D3CP02178E
   
   for DIPRO refer to:
   * J. Kohn, N. Gildemeister, S. Grimme, D. Fazzi, A. Hansen,
     J. Chem. Phys., 2023, just accepted.
   
   for PTB refer to:
   * S. Grimme, M. Mueller, A. Hansen, J. Chem. Phys., 2023, 158, 124111.
     DOI: 10.1063/5.0137838
   
   with help from (in alphabetical order)
   P. Atkinson, C. Bannwarth, F. Bohle, G. Brandenburg, E. Caldeweyher
   M. Checinski, S. Dohm, S. Ehlert, S. Ehrlich, I. Gerasimov, C. Hölzer
   A. Katbashev, J. Kohn, J. Koopman, C. Lavigne, S. Lehtola, F. März, M. Müller,
   F. Musil, H. Neugebauer, J. Pisarek, C. Plett, P. Pracht, F. Pultar,
   J. Seibert, P. Shushkov, S. Spicher, M. Stahn, M. Steiner, T. Strunk,
   J. Stückrath, T. Rose, and J. Unsleber
   
 * started run on 2026/03/16 at 14:13:22.780     
   ID    Z sym.   atoms
    1    6 C      1-6
    2    1 H      7-15
    3    9 F      16

           -------------------------------------------------
          |                Calculation Setup                |
           -------------------------------------------------

          program call               : /software/orca-6.1.0-el8-x86_64/bin/otool_xtb da_f_XTB.xyz --hess -c 0 -u 0 -P 8 --namespace da_f --input da_f_XTB.input.tmp --acc 0.200000
          hostname                   : midway3-login4.rcc.local
          calculation namespace      : da_f
          coordinate file            : da_f_XTB.xyz
          omp threads                :                     8


           -------------------------------------------------
          |                 G F N 2 - x T B                 |
           -------------------------------------------------

        Reference                      10.1021/acs.jctc.8b01176
      * Hamiltonian:
        H0-scaling (s, p, d)           1.850000    2.230000    2.230000
        zeta-weighting                 0.500000
      * Dispersion:
        s8                             2.700000
        a1                             0.520000
        a2                             5.000000
        s9                             5.000000
      * Repulsion:
        kExp                           1.500000    1.000000
        rExp                           1.000000
      * Coulomb:
        alpha                          2.000000
        third order                    shell-resolved
        anisotropic                    true
        a3                             3.000000
        a5                             4.000000
        cn-shift                       1.200000
        cn-exp                         4.000000
        max-rad                        5.000000

q/qsh data taken from xtbrestart
CAMM data taken from xtbrestart

          ...................................................
          :                      SETUP                      :
          :.................................................:
          :  # basis functions                  37          :
          :  # atomic orbitals                  37          :
          :  # shells                           23          :
          :  # electrons                        40          :
          :  max. iterations                   250          :
          :  Hamiltonian                  GFN2-xTB          :
          :  restarted?                       true          :
          :  GBSA solvation                  false          :
          :  PC potential                    false          :
          :  electronic temp.          300.0000000     K    :
          :  accuracy                    0.2000000          :
          :  -> integral cutoff          0.3198970E+02      :
          :  -> integral neglect         0.2000000E-08      :
          :  -> SCF convergence          0.2000000E-06 Eh   :
          :  -> wf. convergence          0.2000000E-04 e    :
          :  Broyden damping             0.4000000          :
          :  net charge                          0          :
          :  unpaired electrons                  0          :
          ...................................................

 iter      E             dE          RMSdq      gap      omega  full diag
   1    -21.8319822 -0.218320E+02  0.693E-06    0.37       0.0  T
   2    -21.8319822  0.305782E-10  0.412E-05    0.37     606.3  T
   3    -21.8319822 -0.289084E-10  0.942E-06    0.37    2654.4  T

   *** convergence criteria satisfied after 3 iterations ***

         #    Occupation            Energy/Eh            Energy/eV
      -------------------------------------------------------------
         1        2.0000           -0.7959240             -21.6582
       ...           ...                  ...                  ...
        14        2.0000           -0.4410863             -12.0026
        15        2.0000           -0.4217655             -11.4768
        16        2.0000           -0.4069879             -11.0747
        17        2.0000           -0.3751301             -10.2078
        18        2.0000           -0.3663013              -9.9676
        19        2.0000           -0.3491324              -9.5004
        20        1.9984           -0.2635307              -7.1710 (HOMO)
        21        0.0016           -0.2499400              -6.8012 (LUMO)
        22        0.0000           -0.2430191              -6.6129
        23                         -0.1470830              -4.0023
        24                          0.0004063               0.0111
        25                          0.0937413               2.5508
       ...                                ...                  ...
        37                          0.5997688              16.3205
      -------------------------------------------------------------
                  HL-Gap            0.0135907 Eh            0.3698 eV
             Fermi-level           -0.2567357 Eh           -6.9861 eV

 SCC (total)                   0 d,  0 h,  0 min,  0.200 sec
 SCC setup                      ...        0 min,  0.000 sec (  0.161%)
 Dispersion                     ...        0 min,  0.000 sec (  0.077%)
 classical contributions        ...        0 min,  0.000 sec (  0.022%)
 integral evaluation            ...        0 min,  0.001 sec (  0.484%)
 iterations                     ...        0 min,  0.122 sec ( 60.837%)
 molecular gradient             ...        0 min,  0.076 sec ( 38.273%)
 printout                       ...        0 min,  0.000 sec (  0.128%)

         :::::::::::::::::::::::::::::::::::::::::::::::::::::
         ::                     SUMMARY                     ::
         :::::::::::::::::::::::::::::::::::::::::::::::::::::
         :: total energy             -21.514784668614 Eh    ::
         :: gradient norm              0.399433420904 Eh/a0 ::
         :: HOMO-LUMO gap              0.369821791708 eV    ::
         ::.................................................::
         :: SCC energy               -21.831957275566 Eh    ::
         :: -> isotropic ES            0.027229621897 Eh    ::
         :: -> anisotropic ES          0.009158441702 Eh    ::
         :: -> anisotropic XC          0.013172122258 Eh    ::
         :: -> dispersion             -0.009598626712 Eh    ::
         :: repulsion energy           0.317172606952 Eh    ::
         :: add. restraining           0.000000000000 Eh    ::
         :: total charge              -0.000000000000 e     ::
         :::::::::::::::::::::::::::::::::::::::::::::::::::::

           ------------------------------------------------- 
          |                Numerical Hessian                |
           ------------------------------------------------- 
step length          :   0.00500
SCC accuracy         :   0.30000
Hessian scale factor :   1.00000
frozen atoms in %    :   0.00000    0
RMS gradient         :   0.40891 !! INCOMPLETELY OPTIMIZED GEOMETRY !!
estimated CPU  time      0.03 min
estimated wall time      0.01 min

writing file <hessian>.

 projected vibrational frequencies (cm⁻¹)
eigval :       -0.00    -0.00     0.00     0.00     0.00     0.00
eigval :    -1358.70 -1302.98 -1178.40  -953.03  -696.06  -650.34
eigval :     -534.08  -500.20  -355.00  -352.04  -216.45   320.51
eigval :      402.56   497.73   521.39   580.18   633.71   693.37
eigval :      782.26   856.98   886.63   927.59   986.76  1173.14
eigval :     1179.85  1216.74  1298.15  1429.33  1481.39  1554.46
eigval :     1615.57  1690.71  1716.67  2643.13  2656.63  2693.26
eigval :     2873.43  3044.22  3054.53  3305.93  3334.36  3345.98

Property printout bound to 'properties.out'
Molecule has no symmetry elements
It seems to be the C1 point group
imag cut-off (cm-1) :    5.00
 found           11  significant imaginary frequencies
 writing imag mode distorted coords to xtbhess.xyz
 for further optimization.

           -------------------------------------------------
          | TOTAL ENERGY              -21.514784668521 Eh   |
          | TOTAL ENTHALPY            -21.396529084824 Eh   |
          | TOTAL FREE ENERGY         -21.431160736129 Eh   |
          | GRADIENT NORM               0.408912026485 Eh/α |
          | HOMO-LUMO GAP               0.369822577377 eV   |
           -------------------------------------------------
########################################################################
[WARNING] Runtime exception occurred
-1- hessian_numhess: Hessian on incompletely optimized geometry!
########################################################################

------------------------------------------------------------------------
 * finished run on 2026/03/16 at 14:13:23.372     
------------------------------------------------------------------------
 total:
 * wall-time:     0 d,  0 h,  0 min,  0.591 sec
 *  cpu-time:     0 d,  0 h,  0 min,  1.424 sec
 * ratio c/w:     2.409 speedup
 SCF:
 * wall-time:     0 d,  0 h,  0 min,  0.200 sec
 *  cpu-time:     0 d,  0 h,  0 min,  0.362 sec
 * ratio c/w:     1.812 speedup
 analytical hessian:
 * wall-time:     0 d,  0 h,  0 min,  0.314 sec
 *  cpu-time:     0 d,  0 h,  0 min,  0.932 sec
 * ratio c/w:     2.968 speedup


-------------------------   --------------------
FINAL SINGLE POINT ENERGY       -21.514784668610
-------------------------   --------------------


-------------
DIPOLE MOMENT
-------------
                                X             Y             Z
Total Dipole Moment    :     -0.32900      -0.54700      -0.45700
                        -----------------------------------------
Magnitude (a.u.)       :      0.78505
Magnitude (Debye)      :      1.99543


-----------------------
VIBRATIONAL FREQUENCIES
-----------------------

Scaling factor for frequencies =  1.000000000  (already applied!)

     0:       0.00 cm**-1
     1:       0.00 cm**-1
     2:       0.00 cm**-1
     3:       0.00 cm**-1
     4:       0.00 cm**-1
     5:       0.00 cm**-1
     6:   -1358.66 cm**-1  ***imaginary mode***
     7:   -1302.94 cm**-1  ***imaginary mode***
     8:   -1178.37 cm**-1  ***imaginary mode***
     9:    -953.01 cm**-1  ***imaginary mode***
    10:    -696.04 cm**-1  ***imaginary mode***
    11:    -650.33 cm**-1  ***imaginary mode***
    12:    -534.07 cm**-1  ***imaginary mode***
    13:    -500.19 cm**-1  ***imaginary mode***
    14:    -355.00 cm**-1  ***imaginary mode***
    15:    -352.04 cm**-1  ***imaginary mode***
    16:    -216.45 cm**-1  ***imaginary mode***
    17:     320.50 cm**-1
    18:     402.55 cm**-1
    19:     497.73 cm**-1
    20:     521.38 cm**-1
    21:     580.18 cm**-1
    22:     633.70 cm**-1
    23:     693.36 cm**-1
    24:     782.24 cm**-1
    25:     856.97 cm**-1
    26:     886.61 cm**-1
    27:     927.57 cm**-1
    28:     986.73 cm**-1
    29:    1173.12 cm**-1
    30:    1179.82 cm**-1
    31:    1216.71 cm**-1
    32:    1298.13 cm**-1
    33:    1429.31 cm**-1
    34:    1481.36 cm**-1
    35:    1554.44 cm**-1
    36:    1615.54 cm**-1
    37:    1690.66 cm**-1
    38:    1716.62 cm**-1
    39:    2643.05 cm**-1
    40:    2656.55 cm**-1
    41:    2693.18 cm**-1
    42:    2873.35 cm**-1
    43:    3044.13 cm**-1
    44:    3054.44 cm**-1
    45:    3305.83 cm**-1
    46:    3334.27 cm**-1
    47:    3345.88 cm**-1


------------
NORMAL MODES
------------

These modes are the Cartesian displacements weighted by the diagonal matrix
M(i,i)=1/sqrt(m[i]) where m[i] is the mass of the displaced atom
Thus, these vectors are normalized but *not* orthogonal

                  0          1          2          3          4          5    
      0       0.000000   0.000000   0.000000   0.000000   0.000000   0.000000
      1       0.000000   0.000000   0.000000   0.000000   0.000000   0.000000
      2       0.000000   0.000000   0.000000   0.000000   0.000000   0.000000
      3       0.000000   0.000000   0.000000   0.000000   0.000000   0.000000
      4       0.000000   0.000000   0.000000   0.000000   0.000000   0.000000
      5       0.000000   0.000000   0.000000   0.000000   0.000000   0.000000
      6       0.000000   0.000000   0.000000   0.000000   0.000000   0.000000
      7       0.000000   0.000000   0.000000   0.000000   0.000000   0.000000
      8       0.000000   0.000000   0.000000   0.000000   0.000000   0.000000
      9       0.000000   0.000000   0.000000   0.000000   0.000000   0.000000
     10       0.000000   0.000000   0.000000   0.000000   0.000000   0.000000
     11       0.000000   0.000000   0.000000   0.000000   0.000000   0.000000
     12       0.000000   0.000000   0.000000   0.000000   0.000000   0.000000
     13       0.000000   0.000000   0.000000   0.000000   0.000000   0.000000
     14       0.000000   0.000000   0.000000   0.000000   0.000000   0.000000
     15       0.000000   0.000000   0.000000   0.000000   0.000000   0.000000
     16       0.000000   0.000000   0.000000   0.000000   0.000000   0.000000
     17       0.000000   0.000000   0.000000   0.000000   0.000000   0.000000
     18       0.000000   0.000000   0.000000   0.000000   0.000000   0.000000
     19       0.000000   0.000000   0.000000   0.000000   0.000000   0.000000
     20       0.000000   0.000000   0.000000   0.000000   0.000000   0.000000
     21       0.000000   0.000000   0.000000   0.000000   0.000000   0.000000
     22       0.000000   0.000000   0.000000   0.000000   0.000000   0.000000
     23       0.000000   0.000000   0.000000   0.000000   0.000000   0.000000
     24       0.000000   0.000000   0.000000   0.000000   0.000000   0.000000
     25       0.000000   0.000000   0.000000   0.000000   0.000000   0.000000
     26       0.000000   0.000000   0.000000   0.000000   0.000000   0.000000
     27       0.000000   0.000000   0.000000   0.000000   0.000000   0.000000
     28       0.000000   0.000000   0.000000   0.000000   0.000000   0.000000
     29       0.000000   0.000000   0.000000   0.000000   0.000000   0.000000
     30       0.000000   0.000000   0.000000   0.000000   0.000000   0.000000
     31       0.000000   0.000000   0.000000   0.000000   0.000000   0.000000
     32       0.000000   0.000000   0.000000   0.000000   0.000000   0.000000
     33       0.000000   0.000000   0.000000   0.000000   0.000000   0.000000
     34       0.000000   0.000000   0.000000   0.000000   0.000000   0.000000
     35       0.000000   0.000000   0.000000   0.000000   0.000000   0.000000
     36       0.000000   0.000000   0.000000   0.000000   0.000000   0.000000
     37       0.000000   0.000000   0.000000   0.000000   0.000000   0.000000
     38       0.000000   0.000000   0.000000   0.000000   0.000000   0.000000
     39       0.000000   0.000000   0.000000   0.000000   0.000000   0.000000
     40       0.000000   0.000000   0.000000   0.000000   0.000000   0.000000
     41       0.000000   0.000000   0.000000   0.000000   0.000000   0.000000
     42       0.000000   0.000000   0.000000   0.000000   0.000000   0.000000
     43       0.000000   0.000000   0.000000   0.000000   0.000000   0.000000
     44       0.000000   0.000000   0.000000   0.000000   0.000000   0.000000
     45       0.000000   0.000000   0.000000   0.000000   0.000000   0.000000
     46       0.000000   0.000000   0.000000   0.000000   0.000000   0.000000
     47       0.000000   0.000000   0.000000   0.000000   0.000000   0.000000
                  6          7          8          9         10         11    
      0      -0.019484   0.004989  -0.040532   0.008029   0.119958   0.022864
      1       0.018590  -0.028571   0.004503   0.003689   0.005040   0.024473
      2       0.007610   0.000208   0.013800  -0.002897  -0.036061  -0.031050
      3       0.006906  -0.003307   0.003678   0.007456   0.021827  -0.002636
      4      -0.007417   0.006606   0.001885   0.010256  -0.045393  -0.005964
      5       0.036756  -0.017790   0.070018  -0.007815  -0.281380  -0.079874
      6      -0.002543  -0.002825   0.001049  -0.000168  -0.019487  -0.040548
      7       0.008692   0.006047  -0.000973   0.008345  -0.033101   0.010326
      8       0.026244   0.020493   0.027444  -0.105346   0.073369  -0.242518
      9       0.016716   0.006714   0.018120  -0.057406   0.011801  -0.117471
     10      -0.018068  -0.026449   0.007465   0.014652  -0.013658  -0.038180
     11       0.001862  -0.000054   0.013398  -0.013186   0.026633  -0.012497
     12      -0.001303   0.001078  -0.000585   0.023565  -0.131645   0.057835
     13       0.023127   0.009916   0.038976  -0.090355   0.072022   0.019420
     14      -0.032902  -0.007608  -0.033671   0.124437  -0.031695   0.162743
     15       0.003466  -0.000660   0.018036  -0.008994  -0.099676   0.137183
     16      -0.021280   0.007560  -0.049749   0.005833   0.022648  -0.038161
     17      -0.037217   0.008855  -0.057752   0.003802   0.239383   0.066062
     18      -0.149857   0.203729   0.008628   0.001502  -0.147547  -0.145038
     19       0.024303  -0.081707   0.044057   0.004525   0.166637   0.171176
     20       0.390670  -0.469017  -0.214322   0.015500   0.255670   0.042528
     21       0.165717  -0.205367  -0.018366   0.024285   0.098147   0.107452
     22      -0.136389   0.099828   0.115488  -0.008734   0.129699   0.175274
     23      -0.442644   0.467362   0.095232  -0.045830   0.128634   0.002061
     24       0.030798  -0.022278  -0.017694   0.020451   0.017349  -0.020877
     25       0.000853  -0.005532  -0.005886   0.019901  -0.037978  -0.010265
     26       0.034933  -0.031930  -0.092274  -0.031689  -0.052413   0.000705
     27      -0.027927  -0.014063   0.021155  -0.010208  -0.010717  -0.021628
     28      -0.000768  -0.003570   0.009941   0.006250  -0.027112   0.013378
     29       0.055020   0.027441  -0.027222   0.102676   0.037533  -0.041719
     30       0.158211   0.190034  -0.059478  -0.020554   0.002789   0.160365
     31      -0.023606  -0.083045  -0.002835   0.070106  -0.021580  -0.250082
     32       0.422075   0.420215  -0.235303   0.206904  -0.041166   0.194733
     33      -0.175562  -0.188474   0.071669   0.030208  -0.023553  -0.144099
     34       0.145530   0.073528  -0.087827   0.115951  -0.016099  -0.230465
     35      -0.472162  -0.418138   0.195044   0.018945  -0.025658   0.134768
     36      -0.147076  -0.027594  -0.480797  -0.242122  -0.339529  -0.078629
     37      -0.074380   0.075035  -0.176031  -0.112905  -0.302976   0.057146
     38      -0.144694  -0.064992  -0.448146  -0.145155   0.188005  -0.201137
     39       0.126006   0.005802   0.398733   0.083724   0.517616   0.141965
     40       0.072354   0.063626   0.190987  -0.061561  -0.091552   0.116421
     41       0.132335   0.068896   0.361432  -0.039639   0.271472   0.198836
     42       0.023262  -0.003833  -0.040466  -0.586286  -0.125461   0.571952
     43       0.027890   0.030951  -0.022910  -0.224982  -0.062787   0.091343
     44      -0.050202   0.014664  -0.034074   0.614042  -0.135396  -0.273756
     45      -0.002566  -0.000495   0.006335   0.054485   0.062045  -0.066501
     46      -0.004203   0.006765  -0.004781   0.040240   0.009215   0.010650
     47       0.002474  -0.003364   0.000190  -0.036280  -0.027086   0.083674
                 12         13         14         15         16         17    
      0      -0.011010   0.008007  -0.067569   0.054016  -0.069084   0.017811
      1       0.005537   0.009985  -0.093793   0.023873   0.110844  -0.019794
      2       0.014425  -0.010792  -0.138781   0.210438   0.019480   0.164811
      3       0.002848   0.004442  -0.074558   0.085956  -0.075231   0.052882
      4       0.026322   0.043773  -0.010838   0.021239   0.056274   0.041331
      5       0.041514  -0.038621   0.035417   0.018089  -0.072453   0.068475
      6       0.012064  -0.003644  -0.054745   0.104386   0.056165   0.014994
      7       0.031673   0.042548  -0.029504  -0.019352  -0.043590   0.073992
      8      -0.000717  -0.002385  -0.075244  -0.201756   0.006878  -0.132356
      9       0.008302  -0.007618  -0.056880   0.075427   0.057884   0.023419
     10      -0.021010   0.028444  -0.048158  -0.038719  -0.086456   0.073717
     11      -0.018673   0.011079   0.118870  -0.200696   0.054556   0.252512
     12      -0.005000  -0.015874  -0.005405  -0.156180   0.038411  -0.135377
     13       0.038251  -0.012155   0.155030   0.095207  -0.008383  -0.034146
     14       0.016236  -0.003045  -0.009744   0.031738   0.025513   0.043795
     15       0.001232  -0.015675   0.009989  -0.121998   0.074454  -0.071942
     16      -0.005826   0.004192   0.133655   0.041654  -0.099809  -0.038225
     17      -0.047513   0.013673  -0.029986  -0.056510   0.016259  -0.016607
     18       0.020650   0.327846   0.118645   0.180987   0.203080   0.002809
     19       0.003129  -0.392444  -0.254793  -0.124541  -0.234957   0.051954
     20      -0.048819   0.214580  -0.217302   0.229166   0.202688   0.035424
     21      -0.015506  -0.309564  -0.119151  -0.134467  -0.408284   0.101988
     22       0.012846  -0.458486  -0.250283  -0.135217  -0.266935   0.069083
     23       0.016199  -0.077558  -0.221905   0.297424   0.082549   0.123393
     24       0.003506   0.009310  -0.052275   0.045427  -0.177005   0.104184
     25       0.025392   0.044501  -0.002196  -0.004031  -0.005203   0.069991
     26      -0.004687  -0.027073   0.117051  -0.018824  -0.187612   0.055406
     27       0.020355  -0.004687  -0.029127   0.121655   0.153317  -0.015903
     28       0.034119   0.040005  -0.014444  -0.008803   0.017264   0.056259
     29       0.016074   0.006709  -0.186156  -0.212998   0.011633  -0.125069
     30       0.243208   0.220731  -0.184401  -0.161446  -0.208294   0.176173
     31      -0.276336  -0.251918   0.177621   0.251734   0.235704  -0.038162
     32      -0.084047  -0.135262   0.348908  -0.069895   0.171082   0.344865
     33      -0.222143  -0.207921   0.218962   0.284129   0.332011  -0.014644
     34      -0.301396  -0.304878   0.222953   0.283027   0.274333  -0.004004
     35      -0.023430   0.097019   0.220299  -0.248972   0.053294   0.266966
     36      -0.018555  -0.074556  -0.029528  -0.216757   0.046638  -0.070966
     37      -0.528988   0.162008  -0.176561  -0.145186  -0.208141  -0.064261
     38       0.297268  -0.141113   0.133818  -0.000403   0.055112  -0.005502
     39       0.286442  -0.069587   0.226579  -0.100326   0.188311  -0.191451
     40      -0.366259   0.130250  -0.083839   0.012333  -0.148825  -0.053197
     41      -0.338028   0.115137  -0.194904  -0.060012   0.000606  -0.060347
     42      -0.024496  -0.062326   0.005727  -0.105511   0.148182   0.307547
     43       0.009086  -0.019485  -0.119364  -0.138394   0.057932  -0.259772
     44       0.031992   0.007293  -0.244956  -0.214911  -0.008104  -0.516452
     45      -0.020904   0.028256   0.149283  -0.021726  -0.066970   0.040883
     46       0.026283  -0.018102  -0.040687  -0.077852   0.059758  -0.052114
     47       0.003961   0.015854   0.075893   0.141508  -0.051987  -0.246940
                 18         19         20         21         22         23    
      0      -0.106616   0.007961  -0.005945   0.030926  -0.197521   0.054941
      1      -0.073195   0.012644   0.267812   0.067089  -0.205020   0.000917
      2       0.261330  -0.035710  -0.028493   0.033066  -0.087938  -0.110830
      3      -0.021442  -0.019006   0.016889   0.048898  -0.176307   0.001932
      4      -0.062231   0.073546  -0.217525   0.005508   0.060009  -0.000668
      5      -0.244795   0.133896   0.058282  -0.042977  -0.036053   0.055143
      6      -0.033006  -0.004111   0.012000  -0.083353   0.178889  -0.023081
      7      -0.038383   0.061726  -0.216176   0.064649  -0.033986   0.006111
      8      -0.088396  -0.170465  -0.053752  -0.015958  -0.056061  -0.054646
      9       0.074113   0.049358  -0.006032  -0.056835   0.207552   0.029477
     10       0.062697  -0.005800   0.253766  -0.136903   0.188103  -0.017693
     11       0.228692   0.015225   0.014515   0.074335  -0.045660   0.120688
     12       0.121192   0.035225  -0.029024  -0.135011  -0.085769   0.007666
     13      -0.031539  -0.068614   0.005532   0.052937  -0.030118  -0.018842
     14      -0.177205  -0.232509  -0.017233  -0.077197   0.078001   0.025499
     15       0.054923  -0.011199  -0.012500  -0.014998  -0.052517  -0.010165
     16       0.137035  -0.049770  -0.043972  -0.316220  -0.125017   0.006566
     17      -0.138400   0.220468   0.001038  -0.062870   0.042939  -0.042857
     18      -0.252592   0.078644   0.257481   0.055474  -0.511677  -0.142830
     19       0.101315  -0.022237  -0.008143   0.093115   0.095042   0.022753
     20       0.137788  -0.114789  -0.133476  -0.159630   0.058408   0.421800
     21       0.065888   0.053328  -0.162546   0.155736  -0.089625  -0.218187
     22       0.055812   0.012939   0.002837   0.100956   0.098400   0.092288
     23       0.122257  -0.083554  -0.034993  -0.089561   0.047172   0.416215
     24       0.002459   0.010750  -0.289326   0.148196  -0.221906  -0.046781
     25      -0.052938   0.090727  -0.391579   0.064330   0.018148  -0.022438
     26      -0.312233   0.371494   0.101477  -0.153345   0.123897   0.095330
     27      -0.104714   0.050652  -0.298298  -0.095783   0.239629  -0.078431
     28      -0.077367   0.092027  -0.393570   0.050592   0.016927  -0.022118
     29      -0.233719  -0.448310  -0.165047  -0.330388   0.032888  -0.102679
     30       0.143474   0.101867   0.232138  -0.137412   0.425706  -0.211401
     31      -0.090976  -0.019045   0.000480  -0.056614  -0.058663   0.043618
     32       0.006992   0.080600   0.097837  -0.000069  -0.037000  -0.438885
     33      -0.115780   0.105175  -0.167246  -0.044798   0.062182  -0.233321
     34      -0.082460   0.029627   0.001499  -0.050614  -0.040922   0.114056
     35       0.075942   0.036513   0.009092   0.021863  -0.058247  -0.429778
     36       0.076547   0.076299   0.048131   0.149958  -0.043588   0.003189
     37       0.028486   0.010864  -0.104794   0.070090   0.051510   0.002077
     38      -0.046143   0.257764   0.125668  -0.115048  -0.045708  -0.049228
     39       0.120300   0.251702  -0.009329  -0.499665  -0.206055   0.057544
     40       0.085087  -0.051223  -0.048869  -0.168959  -0.043067  -0.009965
     41      -0.143768   0.255902  -0.006863  -0.088377   0.054723  -0.033212
     42      -0.267669  -0.258671  -0.002830  -0.143771   0.141644   0.026924
     43       0.262947   0.264166   0.050975   0.357322   0.137171   0.017989
     44       0.380293   0.251882  -0.028719   0.112265  -0.023036   0.051636
     45      -0.038752  -0.061737   0.036350   0.154867   0.090261   0.006324
     46      -0.008648  -0.036643   0.016028   0.141819   0.077756   0.002285
     47       0.101048   0.011450   0.018071   0.100480   0.058116   0.008078
                 24         25         26         27         28         29    
      0       0.045028  -0.027641  -0.008299  -0.017671  -0.017945  -0.124698
      1      -0.006241  -0.000347   0.012817  -0.010350   0.006921   0.030620
      2      -0.032986   0.006348   0.046753  -0.016611   0.003742  -0.028774
      3      -0.012143  -0.027798  -0.026143   0.010274   0.027564   0.101316
      4      -0.014782  -0.010898   0.020039  -0.001492   0.002633  -0.132408
      5       0.020104   0.009250  -0.075445   0.001253  -0.043416  -0.017102
      6       0.001260   0.020253   0.006795  -0.007770  -0.009365  -0.113204
      7       0.008187  -0.017913  -0.003284   0.019380   0.012297   0.174219
      8       0.042432  -0.049996   0.047515   0.061365  -0.007764  -0.013880
      9      -0.035703   0.044164   0.003463   0.005457  -0.008543   0.156973
     10       0.011657  -0.002848   0.002809   0.011471  -0.005878  -0.055868
     11      -0.047086   0.042126   0.002718  -0.031644  -0.004543  -0.034312
     12       0.002955   0.014317   0.019404   0.016363  -0.013804   0.036331
     13       0.050571   0.250723   0.025923   0.011782   0.001733   0.003859
     14      -0.066403   0.012961   0.041806   0.084721   0.023009   0.040873
     15       0.043053   0.091613   0.051820  -0.007380  -0.045640  -0.010062
     16      -0.020800  -0.092312  -0.013225  -0.005404  -0.050228   0.011221
     17      -0.027815   0.065211   0.007949  -0.012603  -0.115125   0.047694
     18      -0.175285  -0.057386   0.078196  -0.079164  -0.030764  -0.158243
     19       0.063704   0.055264  -0.013318   0.020188   0.010099   0.003130
     20       0.454164  -0.062634  -0.143580   0.053066   0.017215  -0.042900
     21      -0.165797   0.043927   0.065443  -0.018971  -0.064326  -0.273254
     22       0.115273   0.027793  -0.026632   0.002029   0.014926  -0.083110
     23       0.414142  -0.075596  -0.106810  -0.002554   0.073186   0.027120
     24      -0.046954   0.006425  -0.045786   0.037039   0.052220   0.192602
     25      -0.030131   0.006027   0.010256   0.012100   0.022136  -0.066158
     26       0.166580  -0.210646   0.772823  -0.314154   0.511205   0.118311
     27       0.013966  -0.025096  -0.010030  -0.047851   0.008536  -0.641734
     28       0.011930  -0.035431  -0.010042  -0.000186   0.018643  -0.141021
     29      -0.058648   0.261041  -0.350146  -0.864544   0.171841   0.137758
     30       0.162077   0.042142  -0.069480   0.075214   0.019035   0.220021
     31      -0.050459  -0.079624   0.020921  -0.023766  -0.013682  -0.031504
     32       0.401207  -0.206344  -0.149223   0.065434   0.070513  -0.058898
     33       0.162897  -0.119080  -0.070801   0.003590   0.057042   0.364711
     34      -0.098832  -0.050440   0.031856  -0.011827  -0.026404   0.110327
     35       0.367228  -0.145363  -0.138363  -0.005426   0.105101   0.052059
     36      -0.061379   0.274948  -0.191742   0.154592   0.446474  -0.142373
     37       0.076194   0.259069   0.010528   0.021475   0.059228  -0.076295
     38      -0.197221   0.013455  -0.237637   0.139838   0.295055  -0.010706
     39      -0.082403  -0.126084  -0.086577   0.086839   0.367325  -0.152979
     40      -0.103818  -0.014109  -0.128959   0.106812   0.261281  -0.058456
     41      -0.200610   0.024290  -0.204163   0.155560   0.366681  -0.042353
     42      -0.154686  -0.528333  -0.022385  -0.050332  -0.096466   0.074334
     43      -0.024954  -0.486641  -0.061992  -0.149257  -0.121160  -0.011817
     44       0.021043   0.046791   0.014121   0.055536   0.015261   0.011401
     45      -0.009662  -0.046727  -0.011002  -0.008081   0.002547  -0.002071
     46      -0.015897  -0.063039  -0.019619  -0.014860   0.008620  -0.001176
     47      -0.001924  -0.035473  -0.016267  -0.016620   0.004826  -0.006697
                 30         31         32         33         34         35    
      0      -0.068491  -0.005047   0.197384   0.016374   0.001720  -0.090662
      1       0.043857  -0.006830   0.027239   0.023002   0.008880  -0.016894
      2      -0.017924   0.005862   0.026649   0.011989   0.020753  -0.016393
      3       0.029039   0.032217  -0.275513  -0.120069   0.000974   0.264802
      4      -0.089624  -0.113866  -0.040193  -0.134433  -0.019223   0.206125
      5      -0.000923  -0.003565   0.019281   0.026698   0.008570   0.019435
      6      -0.009554  -0.032586  -0.280769   0.122111   0.018756  -0.261738
      7      -0.032437   0.114028  -0.044002   0.131030   0.006926  -0.212615
      8      -0.002664  -0.003593  -0.017426   0.017275  -0.005139   0.013985
      9      -0.016879   0.005570   0.199226  -0.013421  -0.006819   0.088944
     10       0.027672   0.006854   0.028399  -0.017960   0.002124   0.019560
     11       0.006287   0.004892  -0.026475  -0.001907  -0.002576  -0.020367
     12       0.006262  -0.001510   0.009396  -0.283134   0.057801  -0.205089
     13       0.004091   0.005881  -0.007803  -0.120250   0.047132  -0.027699
     14      -0.003630   0.006419   0.058726  -0.005624   0.038277   0.041984
     15       0.004870   0.000565  -0.013299   0.223322  -0.151191   0.157917
     16       0.006521  -0.001500  -0.008916   0.074307  -0.039808   0.046548
     17       0.020123   0.000966  -0.063973  -0.000365   0.012944   0.022087
     18      -0.110417   0.030201   0.364424   0.023008  -0.025501  -0.193411
     19       0.036569  -0.027823  -0.081012   0.009744   0.030896   0.068154
     20      -0.021082  -0.017420   0.043361  -0.084018  -0.047104  -0.030558
     21      -0.199735   0.019050   0.339708   0.017465  -0.018827  -0.145500
     22      -0.049444  -0.009831   0.077954  -0.067061  -0.068806  -0.033372
     23       0.055857  -0.041668   0.002994  -0.048072  -0.047950  -0.064954
     24       0.679875  -0.541883   0.206711   0.220003   0.043769  -0.263684
     25       0.285277  -0.433737   0.238431   0.047654   0.001797  -0.079732
     26       0.047518  -0.000705  -0.040705  -0.079491  -0.078939  -0.020361
     27       0.528096   0.539923   0.204636  -0.195755  -0.006092   0.274342
     28       0.273196   0.434064   0.237564  -0.042349  -0.007337   0.076295
     29      -0.024539  -0.012383   0.036828  -0.034402   0.016570   0.026933
     30      -0.044469  -0.030055   0.374116  -0.005863  -0.011149   0.193762
     31       0.033087   0.027792  -0.086083  -0.014741   0.009424  -0.069552
     32       0.003931  -0.017505  -0.049448  -0.090152   0.009462  -0.029000
     33      -0.084714  -0.016206   0.345557   0.011693   0.012593   0.163854
     34      -0.017258   0.008054   0.087635   0.084432   0.007277   0.031181
     35      -0.040316  -0.038063  -0.009514  -0.060846   0.015592  -0.050963
     36      -0.050261   0.015658   0.021673   0.303121   0.132409   0.186166
     37      -0.036933   0.010267   0.007330   0.346124   0.522839   0.275081
     38       0.002667   0.016649  -0.050417  -0.194845  -0.293300  -0.154138
     39      -0.067605  -0.012321   0.048100   0.564748   0.517213   0.283031
     40      -0.023257   0.003903   0.022305  -0.069456  -0.314440  -0.125902
     41      -0.023646  -0.002135  -0.004741  -0.199832  -0.304247  -0.217179
     42       0.011667  -0.018561   0.031603  -0.167301   0.162993  -0.050039
     43       0.008721  -0.006795  -0.061416  -0.006069   0.260731   0.274406
     44      -0.002820   0.024857   0.010688  -0.092975   0.122635   0.160712
     45      -0.000532   0.001253   0.000667  -0.006258   0.006954   0.005175
     46      -0.001820  -0.003200   0.005135   0.012714  -0.027285  -0.031601
     47      -0.000673  -0.002254   0.005269   0.016549  -0.013823  -0.018259
                 36         37         38         39         40         41    
      0       0.006453   0.066470   0.098152  -0.001541   0.001774   0.000657
      1       0.001711   0.002264   0.000322   0.040734  -0.052908   0.012134
      2       0.013114   0.014707   0.025509  -0.008299   0.010871  -0.002963
      3       0.029885  -0.023221  -0.031063  -0.000870  -0.000888  -0.000484
      4       0.024289   0.006737   0.005688   0.005388  -0.008570  -0.000152
      5       0.008199   0.009170   0.008480  -0.000388  -0.000452  -0.001602
      6      -0.025891  -0.035373   0.019816   0.001667   0.001178   0.003551
      7      -0.020633   0.006816  -0.003239  -0.007870  -0.005179   0.002739
      8       0.004355  -0.012721   0.005309  -0.000553  -0.001205  -0.001769
      9      -0.019386   0.097935  -0.064028   0.002189   0.000080  -0.002173
     10       0.000487   0.002247  -0.000070  -0.052317  -0.031105   0.029992
     11       0.012250  -0.024014   0.018858  -0.011576  -0.007516   0.004924
     12       0.058901  -0.000610  -0.004088   0.000837  -0.007011  -0.006002
     13      -0.087036  -0.013185   0.025384   0.001333   0.005455   0.005303
     14      -0.056109   0.000507   0.003109   0.001092  -0.004663   0.000330
     15      -0.037904   0.007177   0.006553  -0.006440  -0.008399  -0.017559
     16      -0.009267  -0.000048  -0.001235   0.018218   0.026832   0.055627
     17       0.022601   0.000088  -0.019516  -0.000487   0.001907   0.002926
     18      -0.113998  -0.255969  -0.365434  -0.294246   0.389828  -0.081372
     19       0.118446   0.254762   0.357983  -0.267735   0.371781  -0.087979
     20      -0.076947  -0.173386  -0.232411  -0.093926   0.121195  -0.030022
     21      -0.105143  -0.242630  -0.354786   0.292852  -0.394813   0.089276
[...]
     43       0.086863  -0.031112  -0.103855  -0.322037   0.033029   0.076770
     44       0.044665  -0.018541  -0.136447  -0.136520  -0.005162   0.085748
     45       0.001835  -0.000616  -0.003475  -0.007871   0.001051   0.001990
     46       0.001631   0.001223  -0.005353  -0.029374   0.000698   0.006465
     47       0.001935   0.000040  -0.003004  -0.011527   0.000114   0.004000
                 36         37         38         39         40         41    
      0      -0.067470   0.235301  -0.132738  -0.001373  -0.003404  -0.005590
      1       0.011179   0.001648  -0.005736   0.010096   0.010452   0.003735
      2       0.013216  -0.124284   0.073176   0.001015   0.000523   0.001548
      3       0.005198  -0.198909   0.229443   0.033327   0.013656   0.001474
      4      -0.026946  -0.027881   0.096058  -0.064899  -0.023456  -0.002855
      5      -0.011804   0.111893  -0.081493  -0.011714  -0.004279  -0.000538
      6      -0.010137  -0.128986  -0.328142  -0.011054   0.034616   0.002051
      7       0.027870   0.007056  -0.095854   0.023822  -0.065240  -0.006572
      8      -0.011933  -0.076636  -0.125333  -0.002626   0.007217  -0.000566
      9       0.061347   0.186378   0.247224  -0.000801  -0.006543   0.042546
     10      -0.011435  -0.005237   0.000161   0.000652   0.015653  -0.022995
     11       0.013395   0.088162   0.119737   0.000408  -0.001214   0.008934
     12       0.103004   0.024152  -0.126317  -0.000370  -0.001553  -0.045479
     13       0.100212   0.021988  -0.091902  -0.000037   0.000465   0.018655
     14       0.033139   0.009574   0.014355  -0.000155  -0.000724  -0.014874
     15      -0.141657  -0.040469   0.132473  -0.000263  -0.000019   0.002831
     16      -0.092143  -0.020011   0.074532   0.000666   0.000761  -0.002721
     17       0.029787  -0.010818   0.017216   0.000256   0.000059  -0.001172
     18       0.300897  -0.267552   0.066296  -0.047625  -0.024584   0.021324
     19      -0.246561   0.367699  -0.152320  -0.061939  -0.026859   0.036527
     20      -0.066842   0.053194  -0.021571   0.013032   0.006260  -0.006263
     21       0.300628  -0.379636   0.175930   0.051268   0.058158   0.042626
     22       0.197621  -0.338820   0.167781  -0.087461  -0.107199  -0.082488
     23      -0.039261   0.116306  -0.038273  -0.011801  -0.008573  -0.005771
     24      -0.001213   0.102824  -0.256373  -0.412591  -0.144215  -0.016284
     25      -0.031379   0.153674  -0.165570   0.818050   0.283365   0.033380
     26      -0.001103  -0.014385   0.011330   0.126742   0.048210   0.004999
     27      -0.006638   0.019583   0.281014   0.154750  -0.408477  -0.036029
     28       0.031325   0.097430   0.228802  -0.310588   0.811169   0.074409
     29      -0.000377   0.007828   0.007193   0.023243  -0.072230  -0.005142
     30      -0.237577  -0.209466  -0.137697   0.009524  -0.035290  -0.187188
     31       0.198350   0.283896   0.286078   0.015601  -0.038888  -0.310046
     32      -0.041680  -0.027034  -0.028767   0.003903  -0.012142  -0.067051
     33      -0.226316  -0.271770  -0.285631   0.004229   0.095554  -0.303399
     34      -0.153674  -0.251980  -0.292529  -0.012200  -0.175218   0.589369
     35      -0.040607  -0.097149  -0.083689  -0.002269   0.012060  -0.026112
     36       0.100825   0.019144  -0.021268   0.004805   0.000863  -0.028756
     37       0.431857   0.048461  -0.149578  -0.002600  -0.000417   0.014616
     38      -0.178388   0.028736  -0.030218  -0.001820  -0.000482   0.011496
     39       0.405962   0.061638  -0.142301   0.000164   0.000556   0.000535
     40      -0.087559  -0.013960   0.061833  -0.004249  -0.008297   0.035534
     41      -0.162674   0.009234  -0.002303   0.000130   0.000773  -0.004805
     42       0.035521   0.014961  -0.017518   0.003655   0.020526   0.545359
     43      -0.173186  -0.031363   0.110939  -0.001730  -0.010297  -0.261872
     44      -0.127388  -0.026117  -0.053338   0.001568   0.006885   0.178512
     45      -0.004229  -0.000679   0.004037  -0.000007  -0.000054  -0.000656
     46      -0.014374  -0.002530   0.009313   0.000054   0.000204   0.001196
     47      -0.006671  -0.001352   0.001551  -0.000001   0.000020  -0.000021
                 42         43         44         45         46         47    
      0       0.058140   0.009210  -0.010815   0.000172  -0.005614  -0.001092
      1      -0.010651   0.002113  -0.092279  -0.011579  -0.002831   0.008186
      2      -0.013040  -0.002525   0.005932   0.000038   0.002117   0.000066
      3       0.000555   0.001369   0.005873   0.002456   0.000574  -0.000916
      4      -0.003136  -0.003973  -0.014210  -0.004509  -0.000765   0.002284
      5       0.001159  -0.000550  -0.002335  -0.001064  -0.000458   0.000260
      6       0.001563   0.002696   0.001499   0.006071   0.001515  -0.000704
      7      -0.003796  -0.007343  -0.002203  -0.014021  -0.002829   0.001512
      8       0.000307  -0.000377   0.000548   0.001684   0.000239  -0.000261
      9      -0.001532   0.037003   0.004680  -0.019439  -0.005214  -0.000337
     10       0.001277  -0.012473   0.012378  -0.086948  -0.018366   0.003021
     11      -0.000551   0.008985   0.002292  -0.011678  -0.003068   0.000007
     12      -0.012620   0.053004  -0.000452   0.003315   0.001435  -0.008533
     13       0.005387  -0.021789   0.000331  -0.002041   0.000160   0.005526
     14      -0.004086   0.016999  -0.000129   0.001068   0.001018  -0.001829
     15      -0.004916  -0.005742  -0.003052   0.008464  -0.046387  -0.045972
     16      -0.000996   0.004662   0.007540   0.010081  -0.025974   0.083783
     17       0.002697   0.002516   0.000429  -0.005098   0.024766   0.009366
     18      -0.341399  -0.068767   0.435164   0.043894   0.050588  -0.025859
     19      -0.529472  -0.102557   0.592170   0.057721   0.075926  -0.034020
     20       0.087817   0.017445  -0.109959  -0.009898  -0.012512   0.006523
     21      -0.334514  -0.037264  -0.314118  -0.047834   0.018217   0.038645
     22       0.657580   0.075217   0.534075   0.082605  -0.039534  -0.066898
     23       0.047080   0.005198   0.046160   0.007783  -0.005525  -0.006537
     24      -0.019328  -0.022732  -0.064708  -0.026614  -0.004171   0.012537
     25       0.039353   0.046232   0.131773   0.057910   0.009968  -0.024665
     26       0.005042   0.007208   0.017482   0.008690   0.001889  -0.003327
     27      -0.020623  -0.043439  -0.017757  -0.063681  -0.013046   0.008411
     28       0.041742   0.087240   0.039626   0.131449   0.027000  -0.017544
     29      -0.003186  -0.006398  -0.003941  -0.008719  -0.001924   0.001726
     30       0.004686  -0.194976  -0.078828   0.464390   0.105158  -0.009409
     31       0.009456  -0.313558  -0.112816   0.655102   0.149162  -0.012502
     32       0.002676  -0.068679  -0.028172   0.158093   0.035764  -0.002985
     33       0.012922  -0.236874   0.024805  -0.244421  -0.046716   0.014083
     34      -0.025874   0.463688  -0.039563   0.408386   0.076370  -0.024215
     35       0.001350  -0.022980   0.002669  -0.026381  -0.005076   0.001444
     36       0.063222   0.063623   0.037499  -0.102769   0.570463   0.559920
     37      -0.037202  -0.036057  -0.020332   0.067025  -0.359324  -0.311665
     38      -0.023111  -0.025696  -0.014808   0.038889  -0.218907  -0.221907
     39      -0.003591  -0.001773   0.000154   0.009192  -0.038100   0.007520
     40       0.053705  -0.038579  -0.069615  -0.185221   0.656363  -0.707434
     41      -0.006996   0.005718   0.008734   0.024240  -0.085643   0.108007
     42       0.151530  -0.633424   0.004786  -0.044854  -0.002687   0.078544
     43      -0.074218   0.306682  -0.002458   0.021016   0.001298  -0.039578
     44       0.050197  -0.210250   0.001779  -0.014512  -0.001590   0.026416
     45      -0.000197   0.000709   0.000001   0.000017   0.000004   0.000075
     46       0.000367  -0.001377   0.000053   0.000160   0.000306  -0.000235
     47       0.000008  -0.000002  -0.000011   0.000060   0.000012  -0.000002


The first frequency considered to be a vibration is 7
The total number of vibrations considered is 41


--------------------------
THERMOCHEMISTRY AT 298.15K
--------------------------

Temperature         ...   298.15 K
Pressure            ...     1.00 atm
Total Mass          ...   100.14 AMU
Quasi RRHO          ...     True
Cut-Off Frequency   ...     1.00 cm^-1

Throughout the following assumptions are being made:
  (1) The electronic state is orbitally nondegenerate
  (2) There are no thermally accessible electronically excited states
  (3) Hindered rotations indicated by low frequency modes are not
      treated as such but are treated as vibrations and this may
      cause some error
  (4) All equations used are the standard statistical mechanics
      equations for an ideal gas
  (5) All vibrations are strictly harmonic

freq.     117.41  E(vib)   ...       0.44 
freq.     182.25  E(vib)   ...       0.37 
freq.     215.54  E(vib)   ...       0.34 
freq.     298.49  E(vib)   ...       0.26 
freq.     374.50  E(vib)   ...       0.21 
freq.     393.91  E(vib)   ...       0.20 
freq.     441.14  E(vib)   ...       0.17 
freq.     525.47  E(vib)   ...       0.13 
freq.     536.81  E(vib)   ...       0.12 
freq.     745.43  E(vib)   ...       0.06 
freq.     780.85  E(vib)   ...       0.05 
freq.     789.89  E(vib)   ...       0.05 
freq.     873.52  E(vib)   ...       0.04 
freq.     888.53  E(vib)   ...       0.04 
freq.     933.57  E(vib)   ...       0.03 
freq.     970.42  E(vib)   ...       0.03 
freq.     973.33  E(vib)   ...       0.03 
freq.     985.90  E(vib)   ...       0.02 
freq.    1004.58  E(vib)   ...       0.02 
freq.    1028.74  E(vib)   ...       0.02 
freq.    1059.69  E(vib)   ...       0.02 
freq.    1124.48  E(vib)   ...       0.01 
freq.    1217.70  E(vib)   ...       0.01 
freq.    1238.13  E(vib)   ...       0.01 
freq.    1255.86  E(vib)   ...       0.01 
freq.    1278.81  E(vib)   ...       0.01 
freq.    1328.07  E(vib)   ...       0.01 
freq.    1364.84  E(vib)   ...       0.01 
freq.    1421.72  E(vib)   ...       0.00 
freq.    1449.01  E(vib)   ...       0.00 
freq.    1531.35  E(vib)   ...       0.00 
freq.    1564.39  E(vib)   ...       0.00 
freq.    3048.49  E(vib)   ...       0.00 
freq.    3057.76  E(vib)   ...       0.00 
freq.    3075.49  E(vib)   ...       0.00 
freq.    3077.03  E(vib)   ...       0.00 
freq.    3083.31  E(vib)   ...       0.00 
freq.    3100.52  E(vib)   ...       0.00 
freq.    3109.93  E(vib)   ...       0.00 
freq.    3111.96  E(vib)   ...       0.00 
freq.    3151.81  E(vib)   ...       0.00 

------------
INNER ENERGY
------------

The inner energy is: U= E(el) + E(ZPE) + E(vib) + E(rot) + E(trans)
    E(el)   - is the total energy from the electronic structure calculation
              = E(kin-el) + E(nuc-el) + E(el-el) + E(nuc-nuc)
    E(ZPE)  - the the zero temperature vibrational energy from the frequency calculation
    E(vib)  - the the finite temperature correction to E(ZPE) due to population
              of excited vibrational states
    E(rot)  - is the rotational thermal energy
    E(trans)- is the translational thermal energy

Summary of contributions to the inner energy U:
Electronic energy                ...    -22.02274801 Eh
Zero point energy                ...      0.12919631 Eh      81.07 kcal/mol
Thermal vibrational correction   ...      0.00433784 Eh       2.72 kcal/mol
Thermal rotational correction    ...      0.00141627 Eh       0.89 kcal/mol
Thermal translational correction ...      0.00141627 Eh       0.89 kcal/mol
-----------------------------------------------------------------------
Total thermal energy                    -21.88638131 Eh


Summary of corrections to the electronic energy:
(perhaps to be used in another calculation)
Total thermal correction                  0.00717039 Eh       4.50 kcal/mol
Non-thermal (ZPE) correction              0.12919631 Eh      81.07 kcal/mol
-----------------------------------------------------------------------
Total correction                          0.13636669 Eh      85.57 kcal/mol


--------
ENTHALPY
--------

The enthalpy is H = U + kB*T
                kB is Boltzmann's constant
Total thermal energy              ...    -21.88638131 Eh 
Thermal Enthalpy correction       ...      0.00094421 Eh       0.59 kcal/mol
-----------------------------------------------------------------------
Total Enthalpy                    ...    -21.88543711 Eh


WARNING (ORCA/SYM): The number of Z matrix atoms does not agree with
the number of centers in the basis set. The point group will therefore
be determined without considering basis set information.


Note: Only C1 symmetry has been detected, increase convergence thresholds 
      if your molecule has a higher symmetry. Symmetry factor of 1.0 is   
      used for the rotational entropy correction. 
 

Note: Rotational entropy computed according to Herzberg 
Infrared and Raman Spectra, Chapter V,1, Van Nostrand Reinhold, 1945 
Point Group:  C1, Symmetry Number:   1  
Rotational constants in cm-1:     0.122657     0.080447     0.058284 

Vibrational entropy computed according to the QRRHO of S. Grimme
Chem.Eur.J. 2012 18 9955 using a reference frequency of 100.0 cm-1


-------
ENTROPY
-------

The entropy contributions are T*S = T*(S(el)+S(vib)+S(rot)+S(trans))
     S(el)   - electronic entropy
     S(vib)  - vibrational entropy
     S(rot)  - rotational entropy
     S(trans)- translational entropy
The entropies will be listed as multiplied by the temperature to get
units of energy

Electronic entropy                ...      0.00000000 Eh      0.00 kcal/mol
Vibrational entropy               ...      0.00699989 Eh      4.39 kcal/mol
Rotational entropy                ...      0.01303305 Eh      8.18 kcal/mol
Translational entropy             ...      0.01887317 Eh     11.84 kcal/mol
-----------------------------------------------------------------------
Final entropy term                ...      0.03890611 Eh     24.41 kcal/mol

In case the symmetry of your molecule has not been determined correctly
or in case you have a reason to use a different symmetry number we print 
out the resulting rotational entropy values for sn=1,12:

 non-linear molecules -----------------------------------
|  sn= 1 | S(rot)=       0.01303305 Eh      8.18 kcal/mol|
|  sn= 2 | S(rot)=       0.01237860 Eh      7.77 kcal/mol|
|  sn= 3 | S(rot)=       0.01199576 Eh      7.53 kcal/mol|
|  sn= 4 | S(rot)=       0.01172414 Eh      7.36 kcal/mol|
|  sn= 5 | S(rot)=       0.01151345 Eh      7.22 kcal/mol|
|  sn= 6 | S(rot)=       0.01134131 Eh      7.12 kcal/mol|
|  sn= 7 | S(rot)=       0.01119576 Eh      7.03 kcal/mol|
|  sn= 8 | S(rot)=       0.01106968 Eh      6.95 kcal/mol|
|  sn= 9 | S(rot)=       0.01095847 Eh      6.88 kcal/mol|
|  sn=10 | S(rot)=       0.01085900 Eh      6.81 kcal/mol|
|  sn=11 | S(rot)=       0.01076901 Eh      6.76 kcal/mol|
|  sn=12 | S(rot)=       0.01068685 Eh      6.71 kcal/mol|
 linear molecules ---------------------------------------
|  Dinfh | S(rot)=       0.00800957 Eh      5.03 kcal/mol|
|  Cinfv | S(rot)=       0.00866403 Eh      5.44 kcal/mol|
 --------------------------------------------------------


-------------------
GIBBS FREE ENERGY
-------------------

The Gibbs free energy is G = H - T*S

Total enthalpy                    ...    -21.88543711 Eh 
Total entropy correction          ...     -0.03890611 Eh    -24.41 kcal/mol
-----------------------------------------------------------------------
Final Gibbs free energy         ...    -21.92434322 Eh

For completeness - the Gibbs free energy minus the electronic energy
G-E(el)                           ...      0.09840479 Eh     61.75 kcal/mol


--------------------------------
SUGGESTED CITATIONS FOR THIS RUN
--------------------------------

Below you find a list of papers that are relevant to this ORCA run
We neither can nor want to force you to cite these papers, but we appreciate if you do
You receive ORCA, which is the product of decades of hard work by many enthusiastic individuals, for free
The only thing we kindly ask in return is that you cite our papers,
We deeply appreciate it, if you show your appreciation for ORCA by not just citing the generic ORCA reference.

Please note that relegating all ORCA citations to the supporting information does *not* help us.
SI sections are not indexed - citations you put there will not count into any citation statistics
But we need these citations in order to attract the funding resources that allow us to do what we are doing

Therefore, if you are a happy ORCA user, please consider citing a few of the papers listed below in the main body of your paper

In addition to the list printed below, the program has created the file da_f.bibtex that contains the list in bibtex format
You can import this file easily into all common literature databanks and citation aid programs


List of essential papers. We consider these as the minimum necessary citations

  1. Bannwarth, C.; Ehlert, S.; Grimme, S.
     GFN2-xTB—An Accurate and Broadly Parametrized Self-Consistent Tight-Binding Quantum Chemical Method with Multipole Electrostatics and Density-Dependent Dispersion Contributions
     J. Chem. Theory Comput. 2019 15(3), 1652-1671
     doi.org/10.1021/acs.jctc.8b01176
  2. Neese, F.
     Software update: the ORCA program system, version 6.0
     WIRES Comput. Molec. Sci. 2025 15(1), e70019
     doi.org/10.1002/wcms.7019

List of papers to cite with high priority. The work reported in these papers was absolutely
necessary for this run to complete.
Our perspective: the developers of density functionals and basis sets usually get cited in chemistry papers
Good! But without the algorithms to do something with them, the functionals or basis sets would not do anything.
Hence, in our opinion, the algorithm design and method developments papers are equally worthy of getting cited

  1. Bykov, D.; Petrenko, T.; Izsak, R.; Kossmann, S.; Becker, U.; Valeev, E.; Neese, F.
     Efficient implementation of the analytic second derivatives of Hartree-Fock and hybrid DFT energies: a detailed analysis of different approximations
     Molec. Phys. 2015 113 , 1961-1977
     doi.org/10.1080/00268976.2015.1025114
  2. Bannwarth, C.; Caldeweyher, E.; Ehlert, S.; Hansen, A.; Pracht, P.; Seibert, J.; Spicher, S.; Grimme, S.
     Extended tight-binding quantum chemistry methods
     WIRES Comput. Molec. Sci. 2020 11(2), e1493
     doi.org/10.1002/wcms.1493

List of suggested additional citations. These are papers that are important in the 'surrounding' of 
of this run, or papers that preceded the highly important papers. If you like your results we are grateful for a citation.

  1. Neese, F.
     The ORCA program system
     WIRES Comput. Molec. Sci. 2012 2(1), 73-78
     doi.org/10.1002/wcms.81
  2. Neese, F.
     Software update: the ORCA program system, version 4.0
     WIRES Comput. Molec. Sci. 2018 8(1), 1-6
     doi.org/10.1002/wcms.1327
  3. Neese, F.; Wennmohs, F.; Becker, U.; Riplinger, C.
     The ORCA quantum chemistry program package
     J. Chem. Phys. 2020 152(22), 224108
     doi.org/10.1063/5.0004608
  4. Neese, F.
     Software update: The ORCA program system—Version 5.0
     WIRES Comput. Molec. Sci. 2022 12(1), e1606
     doi.org/10.1002/wcms.1606

List of optional additional citations

  1. Neese, F.
     Approximate second-order SCF convergence for spin unrestricted wavefunctions
     Chem. Phys. Lett. 2000 325(1-3), 93-98
     doi.org/10.1016/s0009-2614(00)00662-x

Timings for individual modules:

Sum of individual times          ...       22.392 sec (=   0.373 min)
Geometry relaxation              ...        1.351 sec (=   0.023 min)   6.0 %
XTB module                       ...       21.041 sec (=   0.351 min)  94.0 %
                             ****ORCA TERMINATED NORMALLY****
TOTAL RUN TIME: 0 days 0 hours 0 minutes 39 seconds 316 msec
