
                                 *****************
                                 * O   R   C   A *
                                 *****************

                                            #,                                       
                                            ###                                      
                                            ####                                     
                                            #####                                    
                                            ######                                   
                                           ########,                                 
                                     ,,################,,,,,                         
                               ,,#################################,,                 
                          ,,##########################################,,             
                       ,#########################################, ''#####,          
                    ,#############################################,,   '####,        
                  ,##################################################,,,,####,       
                ,###########''''           ''''###############################       
              ,#####''   ,,,,##########,,,,          '''####'''          '####       
            ,##' ,,,,###########################,,,                        '##       
           ' ,,###''''                  '''############,,,                           
         ,,##''                                '''############,,,,        ,,,,,,###''
      ,#''                                            '''#######################'''  
     '                                                          ''''####''''         
             ,#######,   #######,   ,#######,      ##                                
            ,#'     '#,  ##    ##  ,#'     '#,    #''#        ,####,    ,#,          
            ##       ##  ##   ,#'  ##            #'  '#       #'       ,# #          
            ##       ##  #######   ##           ,######,      #####,      #          
            '#,     ,#'  ##    ##  '#,     ,#' ,#      #,     #,   #      #          
             '#######'   ##     ##  '#######'  #'      '#     '####' #    #          



                #########################################################
                #                        -***-                          #
                #          Department of theory and spectroscopy        #
                #                                                       #
                #                      Frank Neese                      #
                #                                                       #
                #     Directorship, Architecture, Infrastructure        #
                #                    SHARK, DRIVERS                     #
                #        Core code/Algorithms in most modules           #
                #                                                       #
                #        Max Planck Institute fuer Kohlenforschung      #
                #                Kaiser Wilhelm Platz 1                 #
                #                 D-45470 Muelheim/Ruhr                 #
                #                      Germany                          #
                #                                                       #
                #                  All rights reserved                  #
                #                        -***-                          #
                #########################################################


                         Program Version 6.1.0  -  RELEASE   -
                                (GIT: $679e74b$)
                          ($2025-06-10 18:02:51 +0200$)


 With contributions from (in alphabetic order):
[Max-Planck-Institut fuer Kohlenforschung]                               
  Daniel Aravena         : Magnetic Suceptibility                        
  Michael Atanasov       : Ab Initio Ligand Field Theory (pilot matlab implementation)
  Alexander A. Auer      : GIAO ZORA, VPT2 properties, NMR spectrum      
  Ute Becker             : All parallelization in ORCA, NUMFREQ, NUMCALC 
  Giovanni Bistoni       : ED, misc. LED, open-shell LED, HFLD           
  Dmytro Bykov           : pre 5.0 version of the SCF Hessian            
  Marcos Casanova-Páez   : Triplet and SCS-CIS(D). UHF-(DLPNO)-IP/EA/STEOM-CCSD. UHF-CVS-IP/STEOM-CCSD   
  Vijay G. Chilkuri      : MRCI spin determinant printing, contributions to CSF-ICE 
  Pauline Colinet        : FMM embedding                                 
  Dipayan Datta          : RHF DLPNO-CCSD density                        
  Achintya Kumar Dutta   : EOM-CC, STEOM-CC                              
  Nicolas Foglia         : Exact transition moments, OPA infrastructure, MCD improvements    
  Dmitry Ganyushin       : Spin-Orbit,Spin-Spin,Magnetic field MRCI      
  Miquel Garcia-Rates    : C-PCM and meta-GGA Hessian, CCSD/C-PCM, Gaussian charge scheme 
  Tiago L. C. Gouveia    : GS-ROHF, GS-ROCIS                             
  Yang Guo               : DLPNO-NEVPT2, F12-NEVPT2, CIM, IAO-localization        
  Andreas Hansen         : Spin unrestricted coupled pair/coupled cluster methods 
  Ingolf Harden          : AUTO-CI MPn and infrastructure                
  Benjamin Helmich-Paris : MC-RPA, TRAH-(SCF,CASSCF), AVAS, COSX integrals, SCF dyn. polar., MC-PDFT, srDFT 
  Lee Huntington         : MR-EOM, pCC                                   
  Robert Izsak           : Overlap fitted RIJCOSX, COSX-SCS-MP3, EOM     
  Riya Kayal             : Wick's Theorem for AUTO-CI, AUTO-CI UHF-CCSDT 
  Emily Kempfer          : AUTO-CI RHF CISDT and CCSDT, approximate NEVPT4
  Christian Kollmar      : KDIIS, OOCD, Brueckner-CCSD(T), CCSD density, CASPT2, CASPT2-K, improved NEVPT2 
  Axel Koslowski         : Symmetry handling                             
  Simone Kossmann        : meta-GGA functionals, TD-DFT gradient, OOMP2, (MP2 Hessian; deprecated post 5.0) 
  Lucas Lang             : DCDCAS, Hyperfine gauge corrections, ICE-SOC+SSC
  Marvin Lechner         : AUTO-CI (C++ implementation), FIC-MRCC        
  Spencer Leger          : CASSCF response                               
  Dagmar Lenk            : GEPOL surface, SMD, ORCA-2-JSON               
  Dimitrios Liakos       : Extrapolation schemes; Compound Job, Property file
  Dimitrios Manganas     : Further ROCIS development; embedding schemes. LFT, Crystal Embedding 
  Dimitrios Pantazis     : SARC Basis sets                               
  Anastasios Papadopoulos: AUTO-CI, single reference methods and gradients 
  Taras Petrenko         : pre 6.0 DFT Hessian and TD-DFT gradient,  ECA, NRVS 
  Petra Pikulova         : Analytic Raman intensities                    
  Peter Pinski           : DLPNO-MP2, DLPNO-MP2 Gradient                 
  Shashank Vittal Rao    : ES-AILFT, MagRelax                            
  Christoph Reimann      : Effective Core Potentials                     
  Marius Retegan         : Local ZFS, SOC                                
  Christoph Riplinger    : Optimizer, TS searches, QM/MM, DLPNO-CCSD(T), (RO)-DLPNO pert. Triples 
  Michael Roemelt        : Original ROCIS implementation, recursive CI coupling coefficients
  Masaaki Saitow         : Open-shell DLPNO-CCSD energy and density      
  Barbara Sandhoefer     : DKH picture change effects                    
  Yorick L. A. Schmerwitz: GMF and freeze-and-release deltaSCF, NEB S-IDPP initial path                    
  Kantharuban Sivalingam : CASSCF convergence/infrastructure, NEVPT2, NEVPT3, NEVPT4(SD), FIC-MRCI and CEPA variants
  Bernardo de Souza      : ESD, SOC TD-DFT                               
  Georgi L. Stoychev     : AutoAux, RI-MP2 NMR, DLPNO-MP2 response, X2C  
  Van Anh Tran           : RI-MP2 g-tensors                              
  Willem Van den Heuvel  : Paramagnetic NMR                              
  Zikuan Wang            : NOTCH, Electric field optimization            
  Frank Wennmohs         : Technical directorship and infrastructure     
  Hang Xu                : AUTO-CI-Response properties                   
                                                                         
[FACCTs GmbH]                                                            
  Markus Bursch, Nicolas Foglia, Miquel Garcia-Rates, Ingolf Harden, Hagen Neugebauer, Anastasios Papadopoulos, 
  Christoph Riplinger, Bernardo de Souza, Georgi L. Stoychev                                                    
                                                                 
  APM, various basis sets, CI-OPT, improved COSX, DLPNO-Multilevel,           
  DOCKER, DRACO, updates on ESD, Fragmentator, GOAT, IRC, LR-CPCM, L-BFGS, MBIS, meta-GGA TD-DFT gradient, ML-optimized integration grids, 
  MM, NACMEs, nearIR, NEB, NEB-TS, NL-DFT gradient (VV10), 2- and 3-layer-ONIOM, interface openCOSMO-RS, QMMM,   
  Crystal-QMMM, RESP, rigid body optimization, SF, symmetry and pop. for TD-DFT, various functionals, SOLVATOR                                   
                                                                         
[Other institutions]                                                     
  V. Asgeirsson          : NEB                                           
  Christoph Bannwarth    : sTDA-DFT, sTD-DFT, PBEh-3c, B97-3c, D3        
  Giovanni Bistoni       : ETS/NOCV, ADLD/ADEX, COVALED                  
  Martin Brehm           : Molecular dynamics                            
  Ronald Cardenas        : ETS/NOCV                                      
  Martina Colucci        : COVALED                                       
  Sebastian Ehlert       : rSCAN, r2SCAN, r2SCAN-3c, D4, dhf basis sets  
  Marvin Friede          : D4 for Fr, Ra, Ac-Lr                          
  Lars Goerigk           : TD-DFT with DH, B97 family of functionals     
  Stefan Grimme          : VdW corrections, initial TS optimization, DFT functionals, gCP, sTDA/sTD-DF 
  Waldemar Hujo          : DFT-NL                                        
  H. Jonsson             : NEB                                           
  Holger Kruse           : gCP                                           
  Marcel Mueller         : wB97X-3c, vDZP basis set                      
  Hagen Neugebauer       : wr2SCAN, Native XTB                           
  Gianluca Regni         : ADLD/ADEX                                     
  Tobias Risthaus        : pre 6.0 range-separated hybrid DFT and stability analysis
  Lukas Wittmann         : regularized MP2, r2SCAN double-hybrids, wr2SCAN        
                                                                         
We gratefully acknowledge several colleagues who have allowed us to      
interface, adapt or use parts of their codes:                            
  Ed Valeev, F. Pavosevic, A. Kumar             : LibInt (2-el integral package), F12 methods 
  Garnet Chan, S. Sharma, J. Yang, R. Olivares  : DMRG                   
  Ulf Ekstrom                                   : XCFun DFT Library      
  Mihaly Kallay                                 : mrcc  (arbitrary order and MRCC methods)
  Frank Weinhold                                : gennbo (NPA and NBO analysis)           
  Simon Mueller                                 : openCOSMO-RS                            
  Christopher J. Cramer and Donald G. Truhlar   : smd solvation model                     
  S Lehtola, MJT Oliveira, MAL Marques          : LibXC Library                           
  Liviu Ungur et al                             : ANISO software                          


 Your calculation uses the libint2 library for the computation of 2-el integrals
 For citations please refer to: http://libint.valeyev.net

 Your ORCA version has been built with support for libXC version: 7.0.0
 For citations please refer to: https://libxc.gitlab.io

 This ORCA versions uses:
   CBLAS   interface :  Fast vector & matrix operations
   LAPACKE interface :  Fast linear algebra routines
   SCALAPACK package :  Parallel linear algebra routines
   Shared memory     :  Shared parallel matrices
   BLAS/LAPACK       :  OpenBLAS 0.3.29  USE64BITINT DYNAMIC_ARCH NO_AFFINITY SkylakeX SINGLE_THREADED
        Core in use  :  SkylakeX
   Copyright (c) 2011-2014, The OpenBLAS Project


  ***********************************
  * Starting time: Sun Mar 15 21:59:11 2026
  * Host name:     midway3-login3.rcc.local
  * Process ID:    3189216
  * Working dir.:  /home/rzhu16/orca_TS_search/runs/da_cl/TS_search
  ***********************************

Your calculation utilizes the semiempirical GFN2-xTB method
Please cite in your paper:
Bannwarth, C.; Ehlert S.; Grimme, S. J. Chem. Theory Comput. 2019, 15, 1652.
   

================================================================================

================================================================================
                                        WARNINGS
                       Please study these warnings very carefully!
================================================================================


WARNING: Analytical Hessian for XTB is limited in the analysis of the data.
       : If you want to obtain extensive IR and deltaG analysis, please use ! XTB NumFreq. 


WARNING: Geometry Optimization
  ===> : Switching off AutoStart
         For restart on a previous wavefunction, please use MOREAD

WARNING: Found dipole moment calculation with XTB calculation
  ===> : Switching off dipole moment calculation


WARNING: Found frequency calculation in combination with XTB calculation
  ===> : Need to redirect dipole moment calculation to properties.out


================================================================================
                                       INPUT FILE
================================================================================
NAME = da_cl.inp
|  1> ! XTB2 OptTS Freq PAL8
|  2> 
|  3> %geom
|  4>   Calc_Hess true
|  5>   Recalc_Hess 3
|  6>   MaxIter 200
|  7>   Trust -0.1
|  8> end
|  9> 
| 10> * xyz 0 1
| 11> C    0.000000   0.000000   0.000000
| 12> C    1.400000   0.000000   0.000000
| 13> C    2.100000   1.212436   0.000000
| 14> C    3.500000   1.212436   0.000000
| 15> C    2.401989   0.832073   1.868073
| 16> C    1.098011   0.380362   1.868073
| 17> H   -0.794681  -0.649304  -0.336581
| 18> H   -0.794681   0.466002  -0.563671
| 19> H    1.940000  -0.935307   0.000000
| 20> H    1.560000   2.147743   0.000000
| 21> H    4.294681   1.861739  -0.336581
| 22> H    4.294681   0.746434  -0.563671
| 23> H    0.490471   0.772177   2.670429
| 24> H    0.863031  -0.303311   2.670429
| 25> H    3.009529   0.440258   2.670429
| 26> Cl   2.789272   1.958868   3.190474
| 27> *
| 28> 
| 29>                          ****END OF INPUT****
================================================================================

                       *****************************
                       * Geometry Optimization Run *
                       *****************************

Geometry optimization settings:
Update method            Update   .... Bofill
Choice of coordinates    CoordSys .... (2022) Redundant Internals
Initial Hessian          InHess   .... Almloef's Model
Max. no of cycles        MaxIter  .... 200

Convergence Tolerances:
Energy Change            TolE     ....  5.0000e-06 Eh
Max. Gradient            TolMAXG  ....  3.0000e-04 Eh/bohr
RMS Gradient             TolRMSG  ....  1.0000e-04 Eh/bohr
Max. Displacement        TolMAXD  ....  4.0000e-03 bohr
RMS Displacement         TolRMSD  ....  2.0000e-03 bohr
Strict Convergence                .... False

------------------------------------------------------------------------------
                        ORCA OPTIMIZATION COORDINATE SETUP
------------------------------------------------------------------------------

The optimization will be done in redundant internal coordinates (2022)
Making redundant internal coordinates   ...  (2022 redundants) done
Following TS mode number                ...     0
Evaluating the initial hessian          ...  (Is done on the fly) done
Evaluating the coordinates              ...  done
Calculating the B-matrix                .... done
Calculating the G-matrix                .... done
The number of degrees of freedom        ....   87

    -----------------------------------------------------------------
                    Redundant Internal Coordinates


    -----------------------------------------------------------------
         Definition                    Initial Value    d2E/dq (diagonal element)
    -----------------------------------------------------------------
      1. B(C   1,C   0)                  1.4000         0.000000   
      2. B(C   2,C   1)                  1.4000         0.000000   
      3. B(C   3,C   2)                  1.4000         0.000000   
      4. B(C   4,C   2)                  1.9302         0.000000   
      5. B(C   5,C   4)                  1.3800         0.000000   
      6. B(C   5,C   1)                  1.9302         0.000000   
      7. B(H   6,C   0)                  1.0800         0.000000   
      8. B(H   7,C   0)                  1.0800         0.000000   
      9. B(H   8,C   1)                  1.0800         0.000000   
     10. B(H   9,C   2)                  1.0800         0.000000   
     11. B(H  10,C   3)                  1.0800         0.000000   
     12. B(H  11,C   3)                  1.0800         0.000000   
     13. B(H  12,C   5)                  1.0800         0.000000   
     14. B(H  13,C   5)                  1.0800         0.000000   
     15. B(H  14,C   4)                  1.0800         0.000000   
     16. B(Cl 15,H  14)                  1.6202         0.000000   
     17. B(Cl 15,C   4)                  1.7800         0.000000   
     18. A(C   1,C   0,H   6)          137.3762         0.000000   
     19. A(H   6,C   0,H   7)           63.5979         0.000000   
     20. A(C   1,C   0,H   7)          137.3762         0.000000   
     21. A(C   0,C   1,C   5)           80.9987         0.000000   
     22. A(C   5,C   1,H   8)          104.4117         0.000000   
     23. A(C   0,C   1,H   8)          120.0000         0.000000   
     24. A(C   2,C   1,C   5)           84.6965         0.000000   
     25. A(C   0,C   1,C   2)          120.0000         0.000000   
     26. A(C   2,C   1,H   8)          120.0000         0.000000   
     27. A(C   1,C   2,H   9)          120.0000         0.000000   
     28. A(C   3,C   2,H   9)          120.0000         0.000000   
     29. A(C   1,C   2,C   4)           84.6965         0.000000   
     30. A(C   3,C   2,C   4)           80.9987         0.000000   
     31. A(C   1,C   2,C   3)          120.0000         0.000000   
     32. A(C   4,C   2,H   9)          104.4118         0.000000   
     33. A(H  10,C   3,H  11)           63.5978         0.000000   
     34. A(C   2,C   3,H  11)          137.3762         0.000000   
     35. A(C   2,C   3,H  10)          137.3762         0.000000   
     36. A(C   2,C   4,C   5)           85.2197         0.000000   
     37. A(C   5,C   4,Cl 15)          114.3806         0.000000   
     38. A(C   2,C   4,Cl 15)          128.9259         0.000000   
     39. A(C   2,C   4,H  14)          151.4650         0.000000   
     40. A(C   5,C   4,H  14)          114.3806         0.000000   
     41. A(H  14,C   4,Cl 15)           63.5978         0.000000   
     42. A(H  12,C   5,H  13)           63.5978         0.000000   
     43. A(C   4,C   5,H  13)          114.3806         0.000000   
     44. A(C   1,C   5,H  13)          128.9259         0.000000   
     45. A(C   4,C   5,H  12)          114.3806         0.000000   
     46. A(C   1,C   5,H  12)          151.4650         0.000000   
     47. A(C   1,C   5,C   4)           85.2197         0.000000   
     48. A(C   4,H  14,Cl 15)           79.7435         0.000000   
     49. A(C   4,Cl 15,H  14)           36.6586         0.000000   
     50. D(C   5,C   1,C   0,H   6)   -128.9097         0.000000   
     51. D(H   8,C   1,C   0,H   6)    -27.4010         0.000000   
     52. D(C   2,C   1,C   0,H   6)    152.5990         0.000000   
     53. D(C   2,C   1,C   0,H   7)     50.4185         0.000000   
     54. D(C   5,C   1,C   0,H   7)    128.9098         0.000000   
     55. D(C   3,C   2,C   1,C   0)    180.0000         0.000000   
     56. D(C   3,C   2,C   1,C   5)    103.5935         0.000000   
     57. D(C   4,C   2,C   1,C   5)     27.1871         0.000000   
     58. D(C   4,C   2,C   1,H   8)    -76.4065         0.000000   
     59. D(C   3,C   2,C   1,H   8)      0.0000         0.000000   
     60. D(C   4,C   2,C   1,C   0)    103.5935         0.000000   
     61. D(H  11,C   3,C   2,C   1)     50.4185         0.000000   
     62. D(H  10,C   3,C   2,C   4)   -128.9098         0.000000   
     63. D(H  10,C   3,C   2,C   1)    152.5990         0.000000   
     64. D(H  10,C   3,C   2,H   9)    -27.4010         0.000000   
     65. D(H  11,C   3,C   2,C   4)    128.9097         0.000000   
     66. D(H  14,C   4,C   2,H   9)   -144.5296         0.000000   
     67. D(H  14,C   4,C   2,C   3)    -25.7151         0.000000   
     68. D(H  14,C   4,C   2,C   1)     95.8264         0.000000   
     69. D(C   5,C   4,C   2,H   9)     79.9613         0.000000   
     70. D(C   5,C   4,C   2,C   3)   -161.2242         0.000000   
     71. D(C   5,C   4,C   2,C   1)    -39.6828         0.000000   
     72. D(C   1,C   5,C   4,H  14)   -130.8696         0.000000   
     73. D(C   1,C   5,C   4,C   2)     27.5662         0.000000   
     74. D(H  12,C   5,C   1,H   8)   -144.5296         0.000000   
     75. D(H  12,C   5,C   1,C   2)     95.8263         0.000000   
     76. D(H  12,C   5,C   1,C   0)    -25.7151         0.000000   
     77. D(C   4,C   5,C   1,H   8)     79.9613         0.000000   
     78. D(C   4,C   5,C   1,C   2)    -39.6828         0.000000   
     79. D(C   1,C   5,C   4,Cl 15)    158.4357         0.000000   
     80. D(C   4,C   5,C   1,C   0)   -161.2242         0.000000   
     81. D(H  12,C   5,C   4,Cl 15)     -0.0000         0.000000   
     82. D(H  12,C   5,C   4,H  14)     70.6946         0.000000   
     83. D(H  12,C   5,C   4,C   2)   -130.8696         0.000000   
     84. D(Cl 15,H  14,C   4,C   5)   -106.3194         0.000000   
     85. D(Cl 15,H  14,C   4,C   2)    123.7419         0.000000   
     86. D(H  14,Cl 15,C   4,C   5)    106.3194         0.000000   
     87. D(H  14,Cl 15,C   4,C   2)   -149.2961         0.000000   
    -----------------------------------------------------------------

Number of atoms                         .... 16
Number of degrees of freedom            .... 87


         *************************************************************
         *                GEOMETRY OPTIMIZATION CYCLE   1            *
         *************************************************************
---------------------------------
CARTESIAN COORDINATES (ANGSTROEM)
---------------------------------
  C     0.000000    0.000000    0.000000
  C     1.400000    0.000000    0.000000
  C     2.100000    1.212436    0.000000
  C     3.500000    1.212436    0.000000
  C     2.401989    0.832073    1.868073
  C     1.098011    0.380362    1.868073
  H    -0.794681   -0.649304   -0.336581
  H    -0.794681    0.466002   -0.563671
  H     1.940000   -0.935307    0.000000
  H     1.560000    2.147743    0.000000
  H     4.294681    1.861739   -0.336581
  H     4.294681    0.746434   -0.563671
  H     0.490471    0.772177    2.670429
  H     0.863031   -0.303311    2.670429
  H     3.009529    0.440258    2.670429
  Cl    2.789272    1.958868    3.190474

----------------------------
CARTESIAN COORDINATES (A.U.)
----------------------------
  NO LB    ZA    FRAG    MASS        X           Y           Z
   0 C   6.0000    0    12.011    0.000000    0.000000    0.000000
   1 C   6.0000    0    12.011    2.645617    0.000000    0.000000
   2 C   6.0000    0    12.011    3.968425    2.291172    0.000000
   3 C   6.0000    0    12.011    6.614041    2.291172    0.000000
   4 C   6.0000    0    12.011    4.539101    1.572390    3.530146
   5 C   6.0000    0    12.011    2.074940    0.718780    3.530146
   6 H   1.0000    0     1.008   -1.501729   -1.227007   -0.636046
   7 H   1.0000    0     1.008   -1.501729    0.880616   -1.065184
   8 H   1.0000    0     1.008    3.666069   -1.767474    0.000000
   9 H   1.0000    0     1.008    2.947973    4.058646    0.000000
  10 H   1.0000    0     1.008    8.115771    3.518177   -0.636046
  11 H   1.0000    0     1.008    8.115771    1.410556   -1.065184
  12 H   1.0000    0     1.008    0.926856    1.459203    5.046379
  13 H   1.0000    0     1.008    1.630892   -0.573175    5.046379
  14 H   1.0000    0     1.008    5.687186    0.831967    5.046379
  15 Cl 17.0000    0    35.453    5.270960    3.701724    6.029122

      -----------------------------------------------------------      
     |                   =====================                   |     
     |                           x T B                           |     
     |                   =====================                   |     
     |                         S. Grimme                         |     
     |          Mulliken Center for Theoretical Chemistry        |     
     |                    University of Bonn                     |     
      -----------------------------------------------------------      

   * xtb version 6.7.1 (edcfbbe) compiled by 'albert@albert-system' on 2024-07-22

   xtb is free software: you can redistribute it and/or modify it under
   the terms of the GNU Lesser General Public License as published by
   the Free Software Foundation, either version 3 of the License, or
   (at your option) any later version.
   
   xtb is distributed in the hope that it will be useful,
   but WITHOUT ANY WARRANTY; without even the implied warranty of
   MERCHANTABILITY or FITNESS FOR A PARTICULAR PURPOSE.  See the
   GNU Lesser General Public License for more details.
   
   Cite this work as:
   * C. Bannwarth, E. Caldeweyher, S. Ehlert, A. Hansen, P. Pracht,
     J. Seibert, S. Spicher, S. Grimme, WIREs Comput. Mol. Sci., 2020, 11,
     e01493. DOI: 10.1002/wcms.1493
   
   for GFN2-xTB:
   * C. Bannwarth, S. Ehlert and S. Grimme., J. Chem. Theory Comput., 2019,
     15, 1652-1671. DOI: 10.1021/acs.jctc.8b01176
   for GFN1-xTB:
   * S. Grimme, C. Bannwarth, P. Shushkov, J. Chem. Theory Comput., 2017,
     13, 1989-2009. DOI: 10.1021/acs.jctc.7b00118
   for GFN0-xTB:
   * P. Pracht, E. Caldeweyher, S. Ehlert, S. Grimme, ChemRxiv, 2019, preprint.
     DOI: 10.26434/chemrxiv.8326202.v1
   for GFN-FF:
   * S. Spicher and S. Grimme, Angew. Chem. Int. Ed., 2020, 59, 15665-15673.
     DOI: 10.1002/anie.202004239
   
   for ALPB and GBSA implicit solvation:
   * S. Ehlert, M. Stahn, S. Spicher, S. Grimme, J. Chem. Theory Comput.,
     2021, 17, 4250-4261. DOI: 10.1021/acs.jctc.1c00471
   
   for ddCOSMO and CPCM-X implicit solvation:
   * M. Stahn, S. Ehlert, S. Grimme, J. Phys. Chem. A,
     2023, XX, XXXX-XXXX. DOI: 10.1021/acs.jpca.3c04382
   
   for DFT-D4:
   * E. Caldeweyher, C. Bannwarth and S. Grimme, J. Chem. Phys., 2017,
     147, 034112. DOI: 10.1063/1.4993215
   * E. Caldeweyher, S. Ehlert, A. Hansen, H. Neugebauer, S. Spicher,
     C. Bannwarth and S. Grimme, J. Chem. Phys., 2019, 150, 154122.
     DOI: 10.1063/1.5090222
   * E. Caldeweyher, J.-M. Mewes, S. Ehlert and S. Grimme, Phys. Chem. Chem. Phys.
     2020, 22, 8499-8512. DOI: 10.1039/D0CP00502A
   
   for sTDA-xTB:
   * S. Grimme and C. Bannwarth, J. Chem. Phys., 2016, 145, 054103.
     DOI: 10.1063/1.4959605
   
   in the mass-spec context:
   * V. Asgeirsson, C. Bauer and S. Grimme, Chem. Sci., 2017, 8, 4879.
     DOI: 10.1039/c7sc00601b
   * J. Koopman and S. Grimme, ACS Omega 2019, 4, 12, 15120-15133.
     DOI: 10.1021/acsomega.9b02011
   
   for metadynamics refer to:
   * S. Grimme, J. Chem. Theory Comput., 2019, 155, 2847-2862
     DOI: 10.1021/acs.jctc.9b00143
   
   for SPH calculations refer to:
   * S. Spicher and S. Grimme, J. Chem. Theory Comput., 2021, 17, 1701-1714
     DOI: 10.1021/acs.jctc.0c01306
   
   for ONIOM refer to:
   * C. Plett, A. Katbashev, S. Ehlert, S. Grimme, M. Bursch,
     Phys. Chem. Chem. Phys., 2023, 25, 17860-17868. DOI: 10.1039/D3CP02178E
   
   for DIPRO refer to:
   * J. Kohn, N. Gildemeister, S. Grimme, D. Fazzi, A. Hansen,
     J. Chem. Phys., 2023, just accepted.
   
   for PTB refer to:
   * S. Grimme, M. Mueller, A. Hansen, J. Chem. Phys., 2023, 158, 124111.
     DOI: 10.1063/5.0137838
   
   with help from (in alphabetical order)
   P. Atkinson, C. Bannwarth, F. Bohle, G. Brandenburg, E. Caldeweyher
   M. Checinski, S. Dohm, S. Ehlert, S. Ehrlich, I. Gerasimov, C. Hölzer
   A. Katbashev, J. Kohn, J. Koopman, C. Lavigne, S. Lehtola, F. März, M. Müller,
   F. Musil, H. Neugebauer, J. Pisarek, C. Plett, P. Pracht, F. Pultar,
   J. Seibert, P. Shushkov, S. Spicher, M. Stahn, M. Steiner, T. Strunk,
   J. Stückrath, T. Rose, and J. Unsleber
   
 * started run on 2026/03/15 at 21:59:12.042     
   ID    Z sym.   atoms
    1    6 C      1-6
    2    1 H      7-15
    3   17 Cl     16

           -------------------------------------------------
          |                Calculation Setup                |
           -------------------------------------------------

          program call               : /software/orca-6.1.0-el8-x86_64/bin/otool_xtb da_cl_XTB.xyz --grad -c 0 -u 0 -P 8 --namespace da_cl --input da_cl_XTB.input.tmp --acc 0.200000
          hostname                   : midway3-login3.rcc.local
          calculation namespace      : da_cl
          coordinate file            : da_cl_XTB.xyz
          omp threads                :                     8


           -------------------------------------------------
          |                 G F N 2 - x T B                 |
           -------------------------------------------------

        Reference                      10.1021/acs.jctc.8b01176
      * Hamiltonian:
        H0-scaling (s, p, d)           1.850000    2.230000    2.230000
        zeta-weighting                 0.500000
      * Dispersion:
        s8                             2.700000
        a1                             0.520000
        a2                             5.000000
        s9                             5.000000
      * Repulsion:
        kExp                           1.500000    1.000000
        rExp                           1.000000
      * Coulomb:
        alpha                          2.000000
        third order                    shell-resolved
        anisotropic                    true
        a3                             3.000000
        a5                             4.000000
        cn-shift                       1.200000
        cn-exp                         4.000000
        max-rad                        5.000000


          ...................................................
          :                      SETUP                      :
          :.................................................:
          :  # basis functions                  43          :
          :  # atomic orbitals                  42          :
          :  # shells                           24          :
          :  # electrons                        40          :
          :  max. iterations                   250          :
          :  Hamiltonian                  GFN2-xTB          :
          :  restarted?                      false          :
          :  GBSA solvation                  false          :
          :  PC potential                    false          :
          :  electronic temp.          300.0000000     K    :
          :  accuracy                    0.2000000          :
          :  -> integral cutoff          0.3198970E+02      :
          :  -> integral neglect         0.2000000E-08      :
          :  -> SCF convergence          0.2000000E-06 Eh   :
          :  -> wf. convergence          0.2000000E-04 e    :
          :  Broyden damping             0.4000000          :
          :  net charge                          0          :
          :  unpaired electrons                  0          :
          ...................................................

 iter      E             dE          RMSdq      gap      omega  full diag
   1    -21.5964328 -0.215964E+02  0.499E+00    0.47       0.0  T
   2    -21.4167521  0.179681E+00  0.503E+00    0.63       1.0  T
   3    -21.5047735 -0.880214E-01  0.320E+00    0.67       1.0  T
   4    -21.3931244  0.111649E+00  0.362E+00    0.78       1.0  T
   5    -21.4887369 -0.956125E-01  0.284E+00    0.68       1.0  T
   6    -21.6364515 -0.147715E+00  0.127E+00    0.48       1.0  T
   7    -21.6683647 -0.319132E-01  0.542E-01    0.44       1.0  T
   8    -21.6637487  0.461600E-02  0.583E-01    0.43       1.0  T
   9    -21.6689354 -0.518671E-02  0.269E-01    0.43       1.0  T
  10    -21.6701275 -0.119211E-02  0.140E-01    0.42       1.0  T
  11    -21.6702855 -0.157939E-03  0.730E-02    0.40       1.0  T
  12    -21.6702046  0.808599E-04  0.908E-02    0.41       1.0  T
  13    -21.6702952 -0.906157E-04  0.528E-02    0.41       1.0  T
  14    -21.6703207 -0.254560E-04  0.336E-02    0.41       1.0  T
  15    -21.6703400 -0.193411E-04  0.183E-02    0.41       1.4  T
  16    -21.6703451 -0.506026E-05  0.392E-03    0.41       6.4  T
  17    -21.6703453 -0.193733E-06  0.858E-04    0.41      29.2  T
  18    -21.6703453 -0.998575E-09  0.793E-04    0.41      31.5  T
  19    -21.6703453  0.462975E-09  0.561E-04    0.41      44.6  T
  20    -21.6703453 -0.610626E-08  0.237E-04    0.41     105.5  T
  21    -21.6703453 -0.123715E-08  0.711E-05    0.41     351.6  T
  22    -21.6703453 -0.900862E-10  0.492E-05    0.41     507.8  T

   *** convergence criteria satisfied after 22 iterations ***

         #    Occupation            Energy/Eh            Energy/eV
      -------------------------------------------------------------
         1        2.0000           -1.0467481             -28.4835
       ...           ...                  ...                  ...
        14        2.0000           -0.4217175             -11.4755
        15        2.0000           -0.4087612             -11.1230
        16        2.0000           -0.4003920             -10.8952
        17        2.0000           -0.3799073             -10.3378
        18        2.0000           -0.3708281             -10.0907
        19        2.0000           -0.3453653              -9.3979
        20        1.9992           -0.2701058              -7.3500 (HOMO)
        21        0.0006           -0.2549572              -6.9377 (LUMO)
        22        0.0002           -0.2537806              -6.9057
        23                         -0.1555046              -4.2315
        24                         -0.1281661              -3.4876
        25                          0.0170678               0.4644
       ...                                ...                  ...
        42                          0.5948155              16.1858
      -------------------------------------------------------------
                  HL-Gap            0.0151486 Eh            0.4122 eV
             Fermi-level           -0.2626525 Eh           -7.1471 eV

 SCC (total)                   0 d,  0 h,  0 min,  0.018 sec
 SCC setup                      ...        0 min,  0.000 sec (  1.294%)
 Dispersion                     ...        0 min,  0.000 sec (  0.503%)
 classical contributions        ...        0 min,  0.000 sec (  0.186%)
 integral evaluation            ...        0 min,  0.009 sec ( 48.893%)
 iterations                     ...        0 min,  0.008 sec ( 41.154%)
 molecular gradient             ...        0 min,  0.001 sec (  6.920%)
 printout                       ...        0 min,  0.000 sec (  0.944%)

         :::::::::::::::::::::::::::::::::::::::::::::::::::::
         ::                     SUMMARY                     ::
         :::::::::::::::::::::::::::::::::::::::::::::::::::::
         :: total energy             -21.356929229966 Eh    ::
         :: gradient norm              0.359981828489 Eh/a0 ::
         :: HOMO-LUMO gap              0.412215430656 eV    ::
         ::.................................................::
         :: SCC energy               -21.670311068084 Eh    ::
         :: -> isotropic ES            0.018255940034 Eh    ::
         :: -> anisotropic ES          0.009747556778 Eh    ::
         :: -> anisotropic XC          0.017322753365 Eh    ::
         :: -> dispersion             -0.011182995916 Eh    ::
         :: repulsion energy           0.313381838117 Eh    ::
         :: add. restraining           0.000000000000 Eh    ::
         :: total charge              -0.000000000000 e     ::
         :::::::::::::::::::::::::::::::::::::::::::::::::::::


Property printout bound to 'properties.out'

           -------------------------------------------------
          | TOTAL ENERGY              -21.356929229966 Eh   |
          | GRADIENT NORM               0.359981828489 Eh/α |
          | HOMO-LUMO GAP               0.412215430656 eV   |
           -------------------------------------------------

------------------------------------------------------------------------
 * finished run on 2026/03/15 at 21:59:12.128     
------------------------------------------------------------------------
 total:
 * wall-time:     0 d,  0 h,  0 min,  0.085 sec
 *  cpu-time:     0 d,  0 h,  0 min,  0.401 sec
 * ratio c/w:     4.692 speedup
 SCF:
 * wall-time:     0 d,  0 h,  0 min,  0.019 sec
 *  cpu-time:     0 d,  0 h,  0 min,  0.140 sec
 * ratio c/w:     7.564 speedup


-------------------------   --------------------
FINAL SINGLE POINT ENERGY       -21.356929229970
-------------------------   --------------------


-------------
DIPOLE MOMENT
-------------
                                X             Y             Z
Total Dipole Moment    :     -0.44100      -0.71800      -0.73100
                        -----------------------------------------
Magnitude (a.u.)       :      1.11551
Magnitude (Debye)      :      2.83541


------------------
CARTESIAN GRADIENT
------------------

   1   C   :    0.050341992    0.015158394    0.051740641
   2   C   :    0.084220070    0.029091835    0.002894353
   3   C   :   -0.087583542   -0.033754778    0.011696885
   4   C   :   -0.047875047   -0.020726564    0.060570824
   5   C   :   -0.011791103    0.006088691   -0.088251136
   6   C   :    0.015916262    0.021799392   -0.075670449
   7   H   :   -0.027749522    0.096972508   -0.034514855
   8   H   :   -0.026278020   -0.103464451    0.003636334
   9   H   :   -0.003587093    0.000371289    0.006191797
  10   H   :    0.003329188   -0.000538876    0.006377740
  11   H   :    0.028140132   -0.096972056   -0.033354129
  12   H   :    0.025657361    0.103090397    0.001641012
  13   H   :    0.043467523   -0.085064099    0.034594773
  14   H   :   -0.026934808    0.091802736    0.021793316
  15   H   :   -0.029937871    0.076179448    0.058499250
  16   Cl  :    0.010664478   -0.100033866   -0.027846355

Difference to translation invariance:
           :    0.0000000000   -0.0000000000   -0.0000000000

Difference to rotation invariance:
           :   -0.0127030775    0.0305022950   -0.0271073448

Norm of the Cartesian gradient     ...    0.3599818285
RMS gradient                       ...    0.0519589014
MAX gradient                       ...    0.1034644514
      -----------------------------------------------------------      
     |                   =====================                   |     
     |                           x T B                           |     
     |                   =====================                   |     
     |                         S. Grimme                         |     
     |          Mulliken Center for Theoretical Chemistry        |     
     |                    University of Bonn                     |     
      -----------------------------------------------------------      

   * xtb version 6.7.1 (edcfbbe) compiled by 'albert@albert-system' on 2024-07-22

   xtb is free software: you can redistribute it and/or modify it under
   the terms of the GNU Lesser General Public License as published by
   the Free Software Foundation, either version 3 of the License, or
   (at your option) any later version.
   
   xtb is distributed in the hope that it will be useful,
   but WITHOUT ANY WARRANTY; without even the implied warranty of
   MERCHANTABILITY or FITNESS FOR A PARTICULAR PURPOSE.  See the
   GNU Lesser General Public License for more details.
   
   Cite this work as:
   * C. Bannwarth, E. Caldeweyher, S. Ehlert, A. Hansen, P. Pracht,
     J. Seibert, S. Spicher, S. Grimme, WIREs Comput. Mol. Sci., 2020, 11,
     e01493. DOI: 10.1002/wcms.1493
   
   for GFN2-xTB:
   * C. Bannwarth, S. Ehlert and S. Grimme., J. Chem. Theory Comput., 2019,
     15, 1652-1671. DOI: 10.1021/acs.jctc.8b01176
   for GFN1-xTB:
   * S. Grimme, C. Bannwarth, P. Shushkov, J. Chem. Theory Comput., 2017,
     13, 1989-2009. DOI: 10.1021/acs.jctc.7b00118
   for GFN0-xTB:
   * P. Pracht, E. Caldeweyher, S. Ehlert, S. Grimme, ChemRxiv, 2019, preprint.
     DOI: 10.26434/chemrxiv.8326202.v1
   for GFN-FF:
   * S. Spicher and S. Grimme, Angew. Chem. Int. Ed., 2020, 59, 15665-15673.
     DOI: 10.1002/anie.202004239
   
   for ALPB and GBSA implicit solvation:
   * S. Ehlert, M. Stahn, S. Spicher, S. Grimme, J. Chem. Theory Comput.,
     2021, 17, 4250-4261. DOI: 10.1021/acs.jctc.1c00471
   
   for ddCOSMO and CPCM-X implicit solvation:
   * M. Stahn, S. Ehlert, S. Grimme, J. Phys. Chem. A,
     2023, XX, XXXX-XXXX. DOI: 10.1021/acs.jpca.3c04382
   
   for DFT-D4:
   * E. Caldeweyher, C. Bannwarth and S. Grimme, J. Chem. Phys., 2017,
     147, 034112. DOI: 10.1063/1.4993215
   * E. Caldeweyher, S. Ehlert, A. Hansen, H. Neugebauer, S. Spicher,
     C. Bannwarth and S. Grimme, J. Chem. Phys., 2019, 150, 154122.
     DOI: 10.1063/1.5090222
   * E. Caldeweyher, J.-M. Mewes, S. Ehlert and S. Grimme, Phys. Chem. Chem. Phys.
     2020, 22, 8499-8512. DOI: 10.1039/D0CP00502A
   
   for sTDA-xTB:
   * S. Grimme and C. Bannwarth, J. Chem. Phys., 2016, 145, 054103.
     DOI: 10.1063/1.4959605
   
   in the mass-spec context:
   * V. Asgeirsson, C. Bauer and S. Grimme, Chem. Sci., 2017, 8, 4879.
     DOI: 10.1039/c7sc00601b
   * J. Koopman and S. Grimme, ACS Omega 2019, 4, 12, 15120-15133.
     DOI: 10.1021/acsomega.9b02011
   
   for metadynamics refer to:
   * S. Grimme, J. Chem. Theory Comput., 2019, 155, 2847-2862
     DOI: 10.1021/acs.jctc.9b00143
   
   for SPH calculations refer to:
   * S. Spicher and S. Grimme, J. Chem. Theory Comput., 2021, 17, 1701-1714
     DOI: 10.1021/acs.jctc.0c01306
   
   for ONIOM refer to:
   * C. Plett, A. Katbashev, S. Ehlert, S. Grimme, M. Bursch,
     Phys. Chem. Chem. Phys., 2023, 25, 17860-17868. DOI: 10.1039/D3CP02178E
   
   for DIPRO refer to:
   * J. Kohn, N. Gildemeister, S. Grimme, D. Fazzi, A. Hansen,
     J. Chem. Phys., 2023, just accepted.
   
   for PTB refer to:
   * S. Grimme, M. Mueller, A. Hansen, J. Chem. Phys., 2023, 158, 124111.
     DOI: 10.1063/5.0137838
   
   with help from (in alphabetical order)
   P. Atkinson, C. Bannwarth, F. Bohle, G. Brandenburg, E. Caldeweyher
   M. Checinski, S. Dohm, S. Ehlert, S. Ehrlich, I. Gerasimov, C. Hölzer
   A. Katbashev, J. Kohn, J. Koopman, C. Lavigne, S. Lehtola, F. März, M. Müller,
   F. Musil, H. Neugebauer, J. Pisarek, C. Plett, P. Pracht, F. Pultar,
   J. Seibert, P. Shushkov, S. Spicher, M. Stahn, M. Steiner, T. Strunk,
   J. Stückrath, T. Rose, and J. Unsleber
   
 * started run on 2026/03/15 at 21:59:12.138     
   ID    Z sym.   atoms
    1    6 C      1-6
    2    1 H      7-15
    3   17 Cl     16

           -------------------------------------------------
          |                Calculation Setup                |
           -------------------------------------------------

          program call               : /software/orca-6.1.0-el8-x86_64/bin/otool_xtb da_cl_XTB.xyz --hess -c 0 -u 0 -P 8 --namespace da_cl --input da_cl_XTB.input.tmp --acc 0.200000
          hostname                   : midway3-login3.rcc.local
          calculation namespace      : da_cl
          coordinate file            : da_cl_XTB.xyz
          omp threads                :                     8


           -------------------------------------------------
          |                 G F N 2 - x T B                 |
           -------------------------------------------------

        Reference                      10.1021/acs.jctc.8b01176
      * Hamiltonian:
        H0-scaling (s, p, d)           1.850000    2.230000    2.230000
        zeta-weighting                 0.500000
      * Dispersion:
        s8                             2.700000
        a1                             0.520000
        a2                             5.000000
        s9                             5.000000
      * Repulsion:
        kExp                           1.500000    1.000000
        rExp                           1.000000
      * Coulomb:
        alpha                          2.000000
        third order                    shell-resolved
        anisotropic                    true
        a3                             3.000000
        a5                             4.000000
        cn-shift                       1.200000
        cn-exp                         4.000000
        max-rad                        5.000000

q/qsh data taken from xtbrestart
CAMM data taken from xtbrestart

          ...................................................
          :                      SETUP                      :
          :.................................................:
          :  # basis functions                  43          :
          :  # atomic orbitals                  42          :
          :  # shells                           24          :
          :  # electrons                        40          :
          :  max. iterations                   250          :
          :  Hamiltonian                  GFN2-xTB          :
          :  restarted?                       true          :
          :  GBSA solvation                  false          :
          :  PC potential                    false          :
          :  electronic temp.          300.0000000     K    :
          :  accuracy                    0.2000000          :
          :  -> integral cutoff          0.3198970E+02      :
          :  -> integral neglect         0.2000000E-08      :
          :  -> SCF convergence          0.2000000E-06 Eh   :
          :  -> wf. convergence          0.2000000E-04 e    :
          :  Broyden damping             0.4000000          :
          :  net charge                          0          :
          :  unpaired electrons                  0          :
          ...................................................

 iter      E             dE          RMSdq      gap      omega  full diag
   1    -21.6703453 -0.216703E+02  0.488E-06    0.41       0.0  T
   2    -21.6703453  0.122711E-10  0.246E-05    0.41    1016.5  T
   3    -21.6703453 -0.108180E-10  0.826E-06    0.41    3028.3  T

   *** convergence criteria satisfied after 3 iterations ***

         #    Occupation            Energy/Eh            Energy/eV
      -------------------------------------------------------------
         1        2.0000           -1.0467482             -28.4835
       ...           ...                  ...                  ...
        14        2.0000           -0.4217176             -11.4755
        15        2.0000           -0.4087613             -11.1230
        16        2.0000           -0.4003920             -10.8952
        17        2.0000           -0.3799072             -10.3378
        18        2.0000           -0.3708279             -10.0907
        19        2.0000           -0.3453654              -9.3979
        20        1.9992           -0.2701058              -7.3500 (HOMO)
        21        0.0006           -0.2549573              -6.9377 (LUMO)
        22        0.0002           -0.2537805              -6.9057
        23                         -0.1555047              -4.2315
        24                         -0.1281662              -3.4876
        25                          0.0170677               0.4644
       ...                                ...                  ...
        42                          0.5948156              16.1858
      -------------------------------------------------------------
                  HL-Gap            0.0151485 Eh            0.4122 eV
             Fermi-level           -0.2626525 Eh           -7.1471 eV

 SCC (total)                   0 d,  0 h,  0 min,  0.015 sec
 SCC setup                      ...        0 min,  0.000 sec (  1.271%)
 Dispersion                     ...        0 min,  0.000 sec (  0.554%)
 classical contributions        ...        0 min,  0.000 sec (  0.270%)
 integral evaluation            ...        0 min,  0.012 sec ( 76.310%)
 iterations                     ...        0 min,  0.002 sec ( 11.132%)
 molecular gradient             ...        0 min,  0.001 sec (  9.612%)
 printout                       ...        0 min,  0.000 sec (  0.737%)

         :::::::::::::::::::::::::::::::::::::::::::::::::::::
         ::                     SUMMARY                     ::
         :::::::::::::::::::::::::::::::::::::::::::::::::::::
         :: total energy             -21.356929229997 Eh    ::
         :: gradient norm              0.359982367945 Eh/a0 ::
         :: HOMO-LUMO gap              0.412212351368 eV    ::
         ::.................................................::
         :: SCC energy               -21.670311068114 Eh    ::
         :: -> isotropic ES            0.018255626732 Eh    ::
         :: -> anisotropic ES          0.009747501557 Eh    ::
         :: -> anisotropic XC          0.017322802709 Eh    ::
         :: -> dispersion             -0.011182994778 Eh    ::
         :: repulsion energy           0.313381838117 Eh    ::
         :: add. restraining           0.000000000000 Eh    ::
         :: total charge              -0.000000000000 e     ::
         :::::::::::::::::::::::::::::::::::::::::::::::::::::

           ------------------------------------------------- 
          |                Numerical Hessian                |
           ------------------------------------------------- 
step length          :   0.00500
SCC accuracy         :   0.30000
Hessian scale factor :   1.00000
frozen atoms in %    :   0.00000    0
RMS gradient         :   0.36989 !! INCOMPLETELY OPTIMIZED GEOMETRY !!
estimated CPU  time      0.03 min
estimated wall time      0.01 min

writing file <hessian>.

 projected vibrational frequencies (cm⁻¹)
eigval :       -0.00    -0.00    -0.00    -0.00    -0.00     0.00
eigval :    -1349.67 -1298.92 -1168.74  -846.48  -689.16  -536.60
eigval :     -514.46  -492.44  -357.63  -299.20  -158.02   132.84
eigval :      375.48   418.63   456.71   522.93   623.44   704.61
eigval :      771.35   802.32   881.92   923.68   974.67  1166.88
eigval :     1174.24  1181.29  1218.05  1297.84  1422.86  1456.25
eigval :     1548.37  1686.70  1703.65  2645.04  2659.63  2686.88
eigval :     2888.17  3044.50  3053.88  3294.55  3335.26  3345.44

Property printout bound to 'properties.out'
Molecule has no symmetry elements
It seems to be the C1 point group
imag cut-off (cm-1) :    5.00
 found           11  significant imaginary frequencies
 writing imag mode distorted coords to xtbhess.xyz
 for further optimization.

           -------------------------------------------------
          | TOTAL ENERGY              -21.356929229755 Eh   |
          | TOTAL ENTHALPY            -21.240453602676 Eh   |
          | TOTAL FREE ENERGY         -21.276782391315 Eh   |
          | GRADIENT NORM               0.369886402198 Eh/α |
          | HOMO-LUMO GAP               0.412210572301 eV   |
           -------------------------------------------------
########################################################################
[WARNING] Runtime exception occurred
-1- hessian_numhess: Hessian on incompletely optimized geometry!
########################################################################

------------------------------------------------------------------------
 * finished run on 2026/03/15 at 21:59:12.346     
------------------------------------------------------------------------
 total:
 * wall-time:     0 d,  0 h,  0 min,  0.207 sec
 *  cpu-time:     0 d,  0 h,  0 min,  0.901 sec
 * ratio c/w:     4.344 speedup
 SCF:
 * wall-time:     0 d,  0 h,  0 min,  0.015 sec
 *  cpu-time:     0 d,  0 h,  0 min,  0.112 sec
 * ratio c/w:     7.313 speedup
 analytical hessian:
 * wall-time:     0 d,  0 h,  0 min,  0.174 sec
 *  cpu-time:     0 d,  0 h,  0 min,  0.692 sec
 * ratio c/w:     3.975 speedup


-------------------------   --------------------
FINAL SINGLE POINT ENERGY       -21.356929229970
-------------------------   --------------------


-------------
DIPOLE MOMENT
-------------
                                X             Y             Z
Total Dipole Moment    :     -0.44100      -0.71800      -0.73100
                        -----------------------------------------
Magnitude (a.u.)       :      1.11551
Magnitude (Debye)      :      2.83541


-----------------------
VIBRATIONAL FREQUENCIES
-----------------------

Scaling factor for frequencies =  1.000000000  (already applied!)

     0:       0.00 cm**-1
     1:       0.00 cm**-1
     2:       0.00 cm**-1
     3:       0.00 cm**-1
     4:       0.00 cm**-1
     5:       0.00 cm**-1
     6:   -1349.64 cm**-1  ***imaginary mode***
     7:   -1298.88 cm**-1  ***imaginary mode***
     8:   -1168.70 cm**-1  ***imaginary mode***
     9:    -846.47 cm**-1  ***imaginary mode***
    10:    -689.15 cm**-1  ***imaginary mode***
    11:    -536.58 cm**-1  ***imaginary mode***
    12:    -514.45 cm**-1  ***imaginary mode***
    13:    -492.43 cm**-1  ***imaginary mode***
    14:    -357.62 cm**-1  ***imaginary mode***
    15:    -299.20 cm**-1  ***imaginary mode***
    16:    -158.02 cm**-1  ***imaginary mode***
    17:     132.84 cm**-1
    18:     375.48 cm**-1
    19:     418.62 cm**-1
    20:     456.70 cm**-1
    21:     522.92 cm**-1
    22:     623.43 cm**-1
    23:     704.59 cm**-1
    24:     771.33 cm**-1
    25:     802.30 cm**-1
    26:     881.90 cm**-1
    27:     923.65 cm**-1
    28:     974.65 cm**-1
    29:    1166.86 cm**-1
    30:    1174.21 cm**-1
    31:    1181.25 cm**-1
    32:    1218.02 cm**-1
    33:    1297.82 cm**-1
    34:    1422.84 cm**-1
    35:    1456.21 cm**-1
    36:    1548.35 cm**-1
    37:    1686.66 cm**-1
    38:    1703.61 cm**-1
    39:    2644.96 cm**-1
    40:    2659.55 cm**-1
    41:    2686.80 cm**-1
    42:    2888.08 cm**-1
    43:    3044.42 cm**-1
    44:    3053.79 cm**-1
    45:    3294.45 cm**-1
    46:    3335.16 cm**-1
    47:    3345.35 cm**-1


------------
NORMAL MODES
------------

These modes are the Cartesian displacements weighted by the diagonal matrix
M(i,i)=1/sqrt(m[i]) where m[i] is the mass of the displaced atom
Thus, these vectors are normalized but *not* orthogonal

                  0          1          2          3          4          5    
      0       0.000000   0.000000   0.000000   0.000000   0.000000   0.000000
      1       0.000000   0.000000   0.000000   0.000000   0.000000   0.000000
      2       0.000000   0.000000   0.000000   0.000000   0.000000   0.000000
      3       0.000000   0.000000   0.000000   0.000000   0.000000   0.000000
      4       0.000000   0.000000   0.000000   0.000000   0.000000   0.000000
      5       0.000000   0.000000   0.000000   0.000000   0.000000   0.000000
      6       0.000000   0.000000   0.000000   0.000000   0.000000   0.000000
      7       0.000000   0.000000   0.000000   0.000000   0.000000   0.000000
      8       0.000000   0.000000   0.000000   0.000000   0.000000   0.000000
      9       0.000000   0.000000   0.000000   0.000000   0.000000   0.000000
     10       0.000000   0.000000   0.000000   0.000000   0.000000   0.000000
     11       0.000000   0.000000   0.000000   0.000000   0.000000   0.000000
     12       0.000000   0.000000   0.000000   0.000000   0.000000   0.000000
     13       0.000000   0.000000   0.000000   0.000000   0.000000   0.000000
     14       0.000000   0.000000   0.000000   0.000000   0.000000   0.000000
     15       0.000000   0.000000   0.000000   0.000000   0.000000   0.000000
     16       0.000000   0.000000   0.000000   0.000000   0.000000   0.000000
     17       0.000000   0.000000   0.000000   0.000000   0.000000   0.000000
     18       0.000000   0.000000   0.000000   0.000000   0.000000   0.000000
     19       0.000000   0.000000   0.000000   0.000000   0.000000   0.000000
     20       0.000000   0.000000   0.000000   0.000000   0.000000   0.000000
     21       0.000000   0.000000   0.000000   0.000000   0.000000   0.000000
     22       0.000000   0.000000   0.000000   0.000000   0.000000   0.000000
     23       0.000000   0.000000   0.000000   0.000000   0.000000   0.000000
     24       0.000000   0.000000   0.000000   0.000000   0.000000   0.000000
     25       0.000000   0.000000   0.000000   0.000000   0.000000   0.000000
     26       0.000000   0.000000   0.000000   0.000000   0.000000   0.000000
     27       0.000000   0.000000   0.000000   0.000000   0.000000   0.000000
     28       0.000000   0.000000   0.000000   0.000000   0.000000   0.000000
     29       0.000000   0.000000   0.000000   0.000000   0.000000   0.000000
     30       0.000000   0.000000   0.000000   0.000000   0.000000   0.000000
     31       0.000000   0.000000   0.000000   0.000000   0.000000   0.000000
     32       0.000000   0.000000   0.000000   0.000000   0.000000   0.000000
     33       0.000000   0.000000   0.000000   0.000000   0.000000   0.000000
     34       0.000000   0.000000   0.000000   0.000000   0.000000   0.000000
     35       0.000000   0.000000   0.000000   0.000000   0.000000   0.000000
     36       0.000000   0.000000   0.000000   0.000000   0.000000   0.000000
     37       0.000000   0.000000   0.000000   0.000000   0.000000   0.000000
     38       0.000000   0.000000   0.000000   0.000000   0.000000   0.000000
     39       0.000000   0.000000   0.000000   0.000000   0.000000   0.000000
     40       0.000000   0.000000   0.000000   0.000000   0.000000   0.000000
     41       0.000000   0.000000   0.000000   0.000000   0.000000   0.000000
     42       0.000000   0.000000   0.000000   0.000000   0.000000   0.000000
     43       0.000000   0.000000   0.000000   0.000000   0.000000   0.000000
     44       0.000000   0.000000   0.000000   0.000000   0.000000   0.000000
     45       0.000000   0.000000   0.000000   0.000000   0.000000   0.000000
     46       0.000000   0.000000   0.000000   0.000000   0.000000   0.000000
     47       0.000000   0.000000   0.000000   0.000000   0.000000   0.000000
                  6          7          8          9         10         11    
      0      -0.018945   0.005189  -0.042223  -0.000574   0.119192  -0.011427
      1       0.015993  -0.028755   0.004595  -0.010096   0.013378   0.007734
      2       0.005074  -0.000679   0.008871  -0.005121  -0.031917   0.011984
      3       0.005342  -0.004028   0.000788  -0.013555   0.023215   0.001883
      4      -0.007301   0.006892   0.000727  -0.021631  -0.042087   0.023507
      5       0.033428  -0.019091   0.070637  -0.013633  -0.290996   0.041065
      6      -0.003060  -0.002946   0.000334   0.008846  -0.028306   0.004897
      7       0.009067   0.005432  -0.000803  -0.020802  -0.029665   0.031873
      8       0.028080   0.021883   0.031990   0.227281  -0.017322  -0.036983
      9       0.016322   0.006989   0.018654   0.107290  -0.027819  -0.007687
     10      -0.018904  -0.025151   0.008561  -0.008249  -0.018405  -0.030338
     11       0.002474   0.000765   0.014380   0.022760   0.019092  -0.018465
     12      -0.001593   0.000249   0.000204  -0.067486  -0.099620   0.000547
     13       0.019630   0.010794   0.035692   0.099049   0.051364   0.067023
     14      -0.033472  -0.009247  -0.037792  -0.215372   0.037366   0.032506
     15       0.004957  -0.000025   0.024037  -0.040234  -0.049844   0.022759
     16      -0.019435   0.007514  -0.049028   0.005762   0.010223  -0.010367
     17      -0.033656   0.010914  -0.055451   0.022478   0.237064  -0.045449
     18      -0.140567   0.213185  -0.001208  -0.000903  -0.185042   0.001314
     19       0.020607  -0.083018   0.044804  -0.020793   0.215779   0.024890
     20       0.364611  -0.493763  -0.194767   0.022031   0.252112  -0.053177
     21       0.156026  -0.215766  -0.008653  -0.028822   0.135560  -0.000907
     22      -0.129630   0.109452   0.108910  -0.017608   0.181192   0.036183
     23      -0.418241   0.493268   0.067403   0.039409   0.119849   0.015406
     24       0.028693  -0.024197  -0.018230  -0.015900   0.014753   0.000989
     25       0.001088  -0.005674  -0.005538  -0.025118  -0.035918   0.022217
     26       0.034007  -0.036416  -0.087104   0.026411  -0.062815   0.001466
     27      -0.029210  -0.012011   0.020290   0.011474  -0.014742   0.015056
     28      -0.000833  -0.003171   0.010367  -0.017708  -0.022427   0.034138
     29       0.060112   0.024817  -0.030559  -0.086639   0.038916  -0.007651
     30       0.169037   0.180668  -0.065668  -0.020912   0.024243   0.262973
     31      -0.027719  -0.082951   0.001054  -0.013787  -0.056231  -0.314975
     32       0.446961   0.387737  -0.245932  -0.324017   0.043883  -0.060598
     33      -0.187315  -0.177691   0.075862  -0.008894  -0.034137  -0.240006
     34       0.150242   0.061655  -0.087864  -0.074908  -0.039664  -0.338223
     35      -0.494776  -0.386327   0.202083  -0.077556   0.024575  -0.000619
     36      -0.139292  -0.032150  -0.465050   0.269433  -0.368449  -0.005283
     37      -0.064837   0.074510  -0.155885   0.051237  -0.254268  -0.501328
     38      -0.142468  -0.068348  -0.452184   0.284275   0.072486   0.271721
     39       0.126493   0.011752   0.407648  -0.051437   0.517495   0.306159
     40       0.075694   0.062867   0.205238  -0.002189  -0.040826  -0.333092
     41       0.135513   0.071749   0.377736   0.013529   0.320877  -0.301108
     42       0.013434  -0.001923  -0.032418   0.431035  -0.030336   0.081711
     43       0.036001   0.036335  -0.007600   0.240994  -0.064558  -0.002916
     44      -0.030070   0.011002  -0.025172  -0.581437  -0.105388  -0.082459
     45      -0.000947  -0.000186   0.001878  -0.014699   0.019718  -0.015716
     46      -0.001401   0.003051  -0.003140  -0.018333   0.008471   0.008742
     47       0.000608  -0.001646  -0.000011   0.006440  -0.004204   0.011369
                 12         13         14         15         16         17    
      0      -0.006974  -0.013671  -0.076742  -0.044669   0.077969   0.060805
      1       0.006152  -0.014852  -0.081806  -0.015818  -0.202904  -0.007735
      2      -0.045027  -0.004299  -0.261544  -0.030347  -0.057282   0.011964
      3      -0.020387  -0.012687  -0.106590  -0.046392   0.085624   0.055492
      4       0.008768  -0.048066  -0.022505   0.022738  -0.079394   0.037506
      5      -0.035567   0.040989  -0.009368  -0.007063   0.089776   0.113981
      6      -0.041968  -0.012082  -0.115785   0.019169  -0.068661   0.015543
      7       0.020591  -0.043688   0.002519  -0.036159   0.028462   0.073908
      8      -0.093409  -0.055327   0.138500  -0.065731  -0.075124   0.098605
      9      -0.064069  -0.021313  -0.084002   0.012026  -0.074513  -0.014773
     10      -0.014513  -0.042666   0.021919  -0.059756   0.086688   0.085005
     11       0.028350  -0.004953   0.223989   0.052183  -0.058050   0.153763
     12       0.059062   0.033001   0.118077  -0.045385  -0.119555  -0.095049
     13       0.038999   0.056960  -0.052551   0.128511   0.118372   0.049276
     14       0.036694   0.024019  -0.064139   0.029388  -0.027099   0.206459
     15       0.112601   0.058836   0.069988  -0.015381  -0.150583  -0.052199
     16      -0.011829   0.003137   0.043465   0.053579   0.198673  -0.030269
     17       0.035513  -0.009894   0.044335  -0.026331  -0.053797   0.017406
     18       0.072660  -0.326911  -0.096635   0.247374  -0.097870   0.023072
     19      -0.121168   0.378109  -0.015178  -0.347391   0.041458   0.054313
     20       0.093320  -0.221580  -0.363409   0.058608  -0.233933  -0.013573
     21      -0.097409   0.304064   0.088293  -0.314144   0.359733   0.098673
     22      -0.149962   0.443394   0.006808  -0.375357   0.061646   0.064069
     23      -0.088683   0.052700  -0.383390  -0.038023  -0.157677   0.027483
     24      -0.018620  -0.016542  -0.052383  -0.080121   0.214206   0.097281
     25       0.010610  -0.048191   0.007786  -0.000254  -0.003174   0.062866
     26       0.017825   0.051159   0.082370  -0.015917   0.267141   0.087865
     27      -0.034750  -0.009145  -0.119045   0.074936  -0.173327  -0.019757
     28       0.020174  -0.041627   0.000960  -0.000775  -0.036621   0.054444
     29      -0.061760  -0.055864   0.068263  -0.121424  -0.138955   0.226268
     30       0.157662  -0.210193   0.012803  -0.218240   0.137269   0.104775
     31      -0.253445   0.211633  -0.060241   0.250889  -0.158898  -0.022083
     32       0.004208   0.185385   0.245272   0.229884  -0.126564   0.187493
     33      -0.172104   0.196620  -0.092048   0.311155  -0.257247  -0.088794
     34      -0.277920   0.268014  -0.058706   0.290519  -0.193119  -0.025198
     35       0.146225  -0.047380   0.303495   0.103250  -0.013990   0.177422
     36       0.101459   0.117878   0.097027  -0.085131  -0.176330  -0.068166
     37       0.361275  -0.034756  -0.096241  -0.170238   0.213966   0.059811
     38      -0.219554   0.067880   0.142724   0.052804  -0.078466  -0.068495
     39      -0.106501   0.029668   0.256059   0.157574  -0.187504  -0.210446
     40       0.248468  -0.037579  -0.160516  -0.065920   0.218862  -0.018677
     41       0.216063  -0.056155  -0.127884  -0.095669  -0.042865  -0.022051
     42       0.479272   0.263068  -0.137855   0.028281  -0.220944   0.263230
     43       0.065818  -0.000247   0.147504  -0.137040  -0.080229  -0.525772
     44      -0.350742  -0.218265   0.316073  -0.225589  -0.094037  -0.492938
     45      -0.023815  -0.020779   0.067327   0.037409   0.096031   0.004542
     46      -0.013585  -0.002166   0.036616  -0.015744  -0.052600  -0.061941
     47       0.031794   0.010091  -0.032377   0.017709   0.079125  -0.207122
                 18         19         20         21         22         23    
      0      -0.060550   0.046047  -0.059459  -0.000587  -0.188603   0.052291
      1      -0.075418  -0.038508  -0.061435   0.252096  -0.209575  -0.001066
      2       0.314601  -0.047157   0.103899  -0.032238  -0.087258  -0.108235
      3       0.013067  -0.012419  -0.015535   0.014186  -0.174905  -0.000815
      4       0.013811   0.066329  -0.090668  -0.214885   0.065111  -0.000530
      5      -0.075554   0.123579  -0.216394   0.073787  -0.012963   0.050270
      6      -0.011312   0.023970  -0.000622   0.019051   0.187348  -0.020464
      7       0.044541   0.029082  -0.085897  -0.219943  -0.041773   0.004889
      8      -0.216257   0.041764   0.177904  -0.050789  -0.068464  -0.051813
      9       0.093602   0.012030  -0.007476  -0.002570   0.205967   0.031585
     10       0.083737  -0.045576   0.030856   0.265609   0.206332  -0.017084
     11       0.328329  -0.164483   0.013351  -0.000013  -0.066764   0.119837
     12       0.038698   0.204151   0.114146   0.015049  -0.024202   0.012499
     13      -0.049855   0.050047   0.064656   0.010172  -0.080945  -0.014108
     14      -0.217660  -0.034817   0.140532  -0.009109   0.084766   0.023719
     15       0.007140   0.065910   0.066634  -0.000644  -0.039407  -0.004507
     16       0.131422   0.290815   0.195822   0.044747  -0.002201   0.007210
     17      -0.020870   0.198128  -0.226134   0.025485   0.072765  -0.039582
     18      -0.142437   0.081918  -0.191064   0.266539  -0.472882  -0.155178
     19       0.072560  -0.114461   0.035783  -0.041653   0.058992   0.028826
     20       0.123976   0.104088   0.176600  -0.087060   0.076848   0.427473
     21       0.128525  -0.043064  -0.050149  -0.187825  -0.117066  -0.218041
     22       0.064545  -0.120045  -0.024741  -0.035039   0.061106   0.097305
     23       0.168992  -0.008001   0.098439  -0.022206   0.058753   0.420704
     24       0.079498   0.004980  -0.038172  -0.297001  -0.237325  -0.048623
     25       0.047953   0.077947  -0.105548  -0.391126   0.014431  -0.022262
     26      -0.025426   0.305498  -0.424492   0.141242   0.165668   0.099974
     27      -0.048836   0.126570  -0.060361  -0.279020   0.258731  -0.076342
     28       0.024070   0.089797  -0.116568  -0.389267   0.015708  -0.023549
     29      -0.443147   0.093955   0.429452  -0.101514   0.137957  -0.091956
     30       0.231842  -0.070033  -0.037739   0.236102   0.437727  -0.205388
     31      -0.069280   0.049503  -0.023706   0.011067  -0.044740   0.040930
     32       0.268154  -0.139210  -0.164451   0.086233  -0.025234  -0.435070
     33      -0.005725   0.112515  -0.145769  -0.155502   0.076692  -0.232750
     34      -0.029519   0.044741  -0.075917   0.011589  -0.020662   0.108726
     35       0.263810  -0.106861  -0.063038   0.006394  -0.060889  -0.424384
     36       0.016648  -0.052397  -0.009649   0.022762  -0.070345   0.004051
     37      -0.014549   0.085177   0.045399  -0.094459   0.004146   0.008912
     38       0.077522   0.182041  -0.210413   0.155164   0.036152  -0.057617
     39       0.130655   0.537213   0.016014   0.126701   0.030975   0.061880
     40       0.042162   0.107867   0.139621   0.011461   0.028626  -0.018940
     41      -0.061328   0.135668  -0.251001   0.031939   0.118035  -0.044120
     42      -0.114279  -0.226851  -0.003112  -0.002687   0.213212   0.008126
     43       0.276042  -0.143005  -0.298545  -0.028075  -0.091980   0.008194
     44       0.134506   0.259344   0.019575  -0.028078  -0.143983   0.058418
     45      -0.035166  -0.128470  -0.018311  -0.007396   0.008047   0.000601
     46      -0.061991  -0.121521  -0.006007  -0.019801   0.020632   0.000522
     47      -0.052560  -0.063143   0.013387  -0.007591   0.016069   0.003291
                 24         25         26         27         28         29    
      0      -0.010492   0.062999  -0.003082   0.016526  -0.013287   0.087428
      1       0.011043  -0.003650   0.012548   0.010421   0.007567  -0.018933
      2       0.022712  -0.037586   0.042990   0.022333   0.006516   0.025314
      3       0.035087   0.018845  -0.015706  -0.016017   0.016069  -0.084860
      4       0.016720  -0.006464   0.019912   0.003429   0.005183   0.087562
      5       0.006032   0.038993  -0.070185  -0.000984  -0.045364   0.016419
      6      -0.016046  -0.009992   0.001966   0.013293  -0.011003   0.033773
      7       0.004977   0.016997   0.000438  -0.022688   0.011059  -0.060876
      8      -0.041158   0.036906   0.055484  -0.059236  -0.009953   0.006843
      9      -0.000995  -0.066251  -0.006549  -0.002879  -0.005653  -0.045870
     10      -0.020230   0.004208   0.004403  -0.010371  -0.007319   0.008799
     11       0.033296  -0.057498  -0.011414   0.033115   0.004705   0.022412
     12      -0.002199  -0.011289   0.007251  -0.015989   0.003967   0.022171
     13      -0.176600  -0.143929  -0.044402   0.009605   0.017567  -0.043224
     14       0.043240  -0.057096   0.046970  -0.073006  -0.002893  -0.090073
     15      -0.067664  -0.024913   0.023967   0.023951  -0.030963   0.036869
     16       0.095875   0.078603   0.013987   0.005738  -0.055236  -0.006454
     17      -0.013359  -0.070399  -0.012328   0.026829  -0.094515   0.011984
     18       0.192239  -0.082505   0.089906   0.087583  -0.019692   0.117245
     19      -0.079279   0.008064  -0.026727  -0.019496   0.012243   0.010257
     20      -0.333859   0.398101  -0.129917  -0.076009   0.005666   0.009166
     21       0.109422  -0.166967   0.055833   0.036150  -0.052394   0.193727
     22      -0.104666   0.067510  -0.032945  -0.008188   0.016170   0.057763
     23      -0.281715   0.383066  -0.092510  -0.026795   0.064495  -0.032646
     24       0.064117  -0.019053  -0.043528  -0.041936   0.039891  -0.209967
     25       0.031829  -0.022780   0.005488  -0.010327   0.024278   0.008451
     26      -0.180752   0.094430   0.726087   0.300684   0.578400  -0.077185
     27      -0.005985   0.034098  -0.004332   0.041505   0.004404  -0.011922
     28       0.009866   0.034405  -0.002284  -0.008526   0.016848  -0.075650
     29       0.133725   0.068872  -0.425968   0.836454   0.198297  -0.182542
     30      -0.168588   0.089566  -0.073901  -0.079116   0.016562  -0.019219
     31       0.069584   0.006271   0.040115   0.019036  -0.019323  -0.043201
     32      -0.240854   0.445862  -0.092516  -0.101476   0.048886  -0.001667
     33      -0.096776   0.195944  -0.041472  -0.025611   0.044318  -0.133210
     34       0.107629  -0.042248   0.043732   0.011430  -0.026338  -0.024894
     35      -0.244755   0.382344  -0.105237  -0.025985   0.089653  -0.052797
     36       0.021574  -0.149828  -0.250215  -0.188273   0.419157   0.017303
     37      -0.205215  -0.134119  -0.063358  -0.002680   0.072467   0.031568
     38       0.262135  -0.066984  -0.220821  -0.187874   0.257323  -0.075492
     39       0.224150   0.106779  -0.041265  -0.117682   0.304287  -0.012958
     40       0.175719   0.003164  -0.120616  -0.141229   0.235360  -0.038794
     41       0.247508  -0.085808  -0.199876  -0.203038   0.329371  -0.062584
     42       0.388166   0.281684   0.158464   0.025762  -0.181080  -0.274956
     43      -0.032490   0.079024   0.087606   0.080776  -0.222202  -0.766563
     44      -0.237136  -0.207373  -0.015431  -0.073567   0.002901  -0.332156
     45       0.000402   0.002130   0.001621   0.001041  -0.002515  -0.007279
     46       0.023879   0.018394  -0.000372   0.003562   0.004062   0.035136
     47       0.007700   0.009533  -0.001639   0.004683   0.003159   0.025376
                 30         31         32         33         34         35    
      0      -0.062226  -0.064946  -0.004082  -0.192679  -0.013541  -0.005584
      1       0.013793   0.045679  -0.004018  -0.025471  -0.020296  -0.013363
      2      -0.009706  -0.014426   0.006568  -0.023412  -0.002646  -0.024174
      3       0.047288   0.018571   0.026152   0.267599   0.120948   0.019364
      4      -0.067884  -0.085027  -0.118694   0.036134   0.131240   0.040902
      5      -0.008113   0.001129  -0.002739  -0.019838  -0.028076  -0.010110
      6      -0.089604  -0.020340  -0.035816   0.276075  -0.119850  -0.038606
      7       0.137577  -0.023591   0.115298   0.048304  -0.129527  -0.030846
      8      -0.010091  -0.003458  -0.003852   0.018165  -0.018648   0.004048
      9       0.127442  -0.001487   0.007462  -0.195503   0.007842   0.013815
     10      -0.052444   0.019805   0.006748  -0.028659   0.019604   0.001421
     11      -0.021605   0.007540   0.007376   0.027683   0.009540  -0.000817
     12       0.041773   0.020428   0.005296  -0.003065   0.373735  -0.041521
     13      -0.026148  -0.014964  -0.005990  -0.003038   0.103355   0.006855
     14      -0.011347  -0.030619  -0.008719  -0.071342  -0.024638  -0.007836
     15       0.006851   0.016913   0.007252   0.018514  -0.328968   0.127384
     16       0.006590   0.006904  -0.000191   0.008769  -0.098619   0.031390
     17       0.045471   0.034047   0.007745   0.068298   0.012078  -0.015080
     18      -0.072780  -0.106369   0.029878  -0.359191  -0.033582   0.022849
     19       0.005154   0.045128  -0.022336   0.088369   0.009751  -0.041439
     20      -0.033844  -0.027480  -0.020466  -0.053401   0.065045   0.062869
     21      -0.127826  -0.194085   0.016010  -0.338104  -0.024338   0.016337
     22      -0.040734  -0.047358  -0.009312  -0.082993   0.047949   0.074144
     23       0.002104   0.053324  -0.038198  -0.006687   0.037309   0.052623
     24      -0.015850   0.697840  -0.508717  -0.202492  -0.222056  -0.071158
     25      -0.095454   0.306151  -0.416751  -0.235875  -0.054318  -0.004843
     26       0.063832   0.049183   0.000353   0.047331   0.054810   0.088977
     27      -0.683687   0.391446   0.550919  -0.210171   0.209891   0.030065
     28      -0.208654   0.211840   0.444206  -0.232037   0.051344   0.005661
     29       0.044223  -0.058692  -0.028382  -0.060091   0.018564   0.010274
     30       0.205910  -0.004960  -0.022650  -0.359637   0.006901   0.004364
     31      -0.058053   0.009977   0.021452   0.077028   0.010148   0.004698
     32      -0.055682  -0.008753  -0.023485   0.044000   0.096010   0.003491
     33       0.290445  -0.059402  -0.020894  -0.343548  -0.018697  -0.004583
     34       0.094883  -0.003610   0.011753  -0.081025  -0.078361  -0.025418
     35       0.027788  -0.049248  -0.049042   0.001016   0.062791   0.000599
     36      -0.119902  -0.077789   0.002366  -0.031180  -0.376817  -0.169896
     37      -0.052621  -0.045225  -0.000185  -0.016615  -0.246900  -0.539584
     38      -0.051575  -0.029567   0.006438   0.040862   0.079496   0.303681
     39      -0.128054  -0.102683  -0.033180  -0.067361  -0.466862  -0.569775
     40      -0.075773  -0.051076  -0.005903  -0.026987  -0.046380   0.316466
     41      -0.072806  -0.056738  -0.014877  -0.000071   0.112430   0.306560
     42      -0.064517  -0.074798  -0.057399  -0.075639   0.287731  -0.108491
     43      -0.404005  -0.290329  -0.145937  -0.115712  -0.088112   0.003172
     44      -0.169359  -0.134875  -0.043266  -0.094467  -0.033757   0.052542
     45      -0.003867  -0.002885  -0.000880  -0.001409   0.004527  -0.001183
     46       0.019858   0.013491   0.005817   0.005584   0.009277  -0.006428
     47       0.012189   0.009434   0.003836   0.002469   0.003741  -0.006782
                 36         37         38         39         40         41    
      0       0.082592  -0.061445   0.101541  -0.001214   0.002124   0.000523
      1       0.014302  -0.002075   0.000828   0.032017  -0.057543   0.016050
      2       0.007288  -0.012580   0.027619  -0.006577   0.011772  -0.003729
      3      -0.257388   0.024594  -0.030304  -0.001053  -0.000908  -0.000340
      4      -0.197700  -0.004122   0.008074   0.003801  -0.009126   0.000624
      5      -0.020175  -0.008158   0.010162  -0.000495  -0.000480  -0.001321
      6       0.249963   0.033957   0.014234   0.002026   0.001223   0.003245
      7       0.202469  -0.008695  -0.004425  -0.008283  -0.003188   0.003887
      8      -0.011459   0.013423   0.006134  -0.000810  -0.001148  -0.001531
      9      -0.077613  -0.101782  -0.059410   0.001976  -0.000617  -0.002307
     10      -0.018715  -0.002383  -0.000039  -0.054061  -0.017795   0.036790
     11       0.015517   0.026001   0.019683  -0.012207  -0.004765   0.006441
     12       0.139643   0.004303   0.008274  -0.000575  -0.005644  -0.003548
     13       0.047084   0.005663   0.005182   0.002032   0.004713   0.003662
     14      -0.017044  -0.005147  -0.007402   0.000408  -0.002230   0.001739
     15      -0.102657  -0.008635   0.000445  -0.009447  -0.009247  -0.016738
     16      -0.030023  -0.000622  -0.002550   0.026904   0.029014   0.050494
     17      -0.027007   0.000719  -0.014656   0.000262   0.002118   0.002903
     18       0.209245   0.227791  -0.387497  -0.229530   0.424193  -0.110697
[...]
     43       0.007992  -0.029411  -0.112037   0.226214   0.009043  -0.040446
     44       0.048485  -0.021149  -0.182497   0.145537  -0.010453  -0.071774
     45       0.000118  -0.000222  -0.001479   0.001933   0.000164  -0.000643
     46       0.000588   0.000152  -0.001499   0.003626  -0.000514  -0.000267
     47       0.000381  -0.000055  -0.001413   0.002883  -0.000181  -0.000728
                 36         37         38         39         40         41    
      0       0.056822   0.235256  -0.059765   0.001016  -0.007621  -0.057205
      1      -0.018346   0.000667  -0.003946  -0.010118   0.018330   0.012045
      2      -0.013901  -0.130331   0.034361  -0.001115   0.001756   0.011848
      3       0.035203  -0.215693   0.159813  -0.026330   0.020517  -0.003377
      4       0.048722  -0.046165   0.080943   0.055844  -0.039697   0.008441
      5       0.002966   0.119682  -0.047169   0.011554  -0.008327   0.000155
      6      -0.024892  -0.054182  -0.366515   0.019503   0.029117  -0.003838
      7      -0.048666   0.030817  -0.081111  -0.041553  -0.056846   0.008086
      8       0.004189  -0.045304  -0.137975   0.003809   0.005129  -0.000628
      9      -0.053150   0.126617   0.301216  -0.000352  -0.003989   0.002406
     10       0.016421  -0.009200  -0.009784   0.002523   0.011831  -0.003118
     11      -0.016692   0.057401   0.134767  -0.000658  -0.000745   0.000655
     12      -0.062029   0.043343  -0.087073  -0.000041  -0.000639   0.001633
     13      -0.044890   0.030999  -0.051323   0.000059   0.000059  -0.000717
     14      -0.014946   0.005121   0.019887  -0.000047  -0.000426   0.000376
     15       0.103287  -0.064094   0.090842   0.000299   0.000526   0.009375
     16       0.070039  -0.033863   0.051070  -0.000530   0.001612   0.004368
     17      -0.017616  -0.016116   0.020039  -0.000281  -0.000268  -0.006107
     18      -0.342432  -0.289626   0.016607   0.046708  -0.027884   0.357458
     19       0.285582   0.401813  -0.061274   0.056789  -0.023034   0.513735
     20       0.107148   0.066128  -0.008908  -0.010159   0.005977  -0.070624
     21      -0.333321  -0.447731   0.094492  -0.049667   0.109233   0.313671
     22      -0.202890  -0.354751   0.076921   0.089772  -0.213621  -0.657300
     23       0.056127   0.131983  -0.009783   0.012215  -0.019086  -0.050664
     24      -0.070090   0.162369  -0.226640   0.334298  -0.231987   0.048496
     25      -0.002182   0.166786  -0.109869  -0.708588   0.489072  -0.103740
     26       0.008561  -0.025853   0.007379  -0.126949   0.092956  -0.018105
     27       0.078170  -0.040294   0.285437  -0.251791  -0.336160   0.045310
     28      -0.000184   0.046381   0.249172   0.530370   0.702211  -0.095282
     29      -0.000096   0.004615  -0.004932  -0.033519  -0.051197   0.006456
     30       0.260034  -0.170899  -0.177570  -0.019422  -0.033428  -0.002619
     31      -0.223527   0.218799   0.360500  -0.026035  -0.036942  -0.007581
     32       0.077877  -0.023966  -0.023460  -0.007236  -0.011354  -0.002006
     33       0.241902  -0.204945  -0.350668   0.013839   0.064770  -0.022828
     34       0.152207  -0.175478  -0.345093  -0.022117  -0.126579   0.047747
     35       0.060702  -0.076003  -0.101324   0.004591   0.008967  -0.002383
     36      -0.091372   0.030900  -0.016120  -0.004787  -0.006951  -0.126103
     37      -0.403568   0.081863  -0.088541   0.002167   0.004146   0.067056
     38       0.118159   0.044975  -0.047686   0.002221   0.002774   0.057868
     39      -0.398247   0.104949  -0.099547  -0.000218   0.002453   0.013421
     40       0.032534  -0.016428   0.030775   0.002893  -0.023008  -0.119899
     41       0.154685   0.006332  -0.009827   0.000001   0.001608   0.010526
     42      -0.032522   0.018716  -0.018078   0.001459   0.008664  -0.019566
     43       0.070984  -0.035717   0.050518  -0.000804  -0.004510   0.010428
     44       0.059813  -0.004302  -0.073513   0.000119   0.002595  -0.005677
     45       0.000843  -0.000352   0.000941  -0.000002  -0.000013   0.000015
     46       0.000388  -0.000415   0.000157   0.000039   0.000095  -0.000056
     47       0.000691  -0.000289  -0.000365   0.000020   0.000031  -0.000013
                 42         43         44         45         46         47    
      0       0.006895  -0.004640  -0.017142   0.000554  -0.001681   0.001237
      1      -0.020204  -0.005036  -0.087419   0.008430   0.005915  -0.013380
      2      -0.002302   0.001075   0.005051  -0.000434   0.000502  -0.000693
      3       0.001240  -0.001090   0.007236  -0.000727   0.000442   0.002227
      4      -0.003672   0.003271  -0.017588   0.000960   0.000148  -0.005314
      5      -0.000326   0.000456  -0.003593  -0.000042  -0.000387  -0.001052
      6       0.000381  -0.001059   0.002622   0.000023   0.003513   0.003802
      7      -0.000388   0.005989  -0.004823  -0.000252  -0.009009  -0.009296
      8       0.000447   0.001082   0.000604  -0.000327   0.000814   0.000932
      9      -0.008214  -0.054379   0.006131   0.010836  -0.018726  -0.009341
     10       0.003193   0.025219   0.003358   0.002304  -0.071852  -0.055210
     11      -0.001774  -0.012810   0.001941   0.003257  -0.010149  -0.006142
     12       0.007852   0.012236  -0.000583   0.066046  -0.012446   0.024804
     13      -0.003069  -0.005315   0.000517  -0.027910   0.006376  -0.012718
     14       0.001918   0.003579  -0.000003   0.018914  -0.002878   0.006218
     15       0.025902  -0.005474  -0.015438  -0.024259  -0.034292   0.041540
     16       0.050400  -0.008639   0.001961   0.018056   0.040405  -0.052477
     17      -0.019429   0.003761   0.007844   0.010691   0.012809  -0.014759
     18       0.028014   0.053165   0.464518  -0.035737  -0.011575   0.044199
     19       0.023567   0.070581   0.592247  -0.044466  -0.012477   0.053197
     20      -0.005672  -0.009815  -0.091339   0.007330   0.003143  -0.007984
     21      -0.113712   0.001810  -0.267062   0.031628   0.031103  -0.059061
     22       0.220933  -0.007796   0.474506  -0.058230  -0.059639   0.109177
     23       0.020961  -0.001080   0.042935  -0.005972  -0.005792   0.010707
     24      -0.017203   0.017264  -0.081495   0.005124  -0.001474  -0.028647
     25       0.036708  -0.038018   0.176446  -0.010546   0.007468   0.063679
     26       0.005644  -0.006573   0.029426  -0.001244   0.001698   0.011040
     27      -0.002554   0.031154  -0.029945  -0.002983  -0.034279  -0.040389
     28       0.005768  -0.068051   0.067390   0.005297   0.075361   0.088381
     29      -0.000432   0.003185  -0.005088   0.000068  -0.003111  -0.004634
     30       0.043695   0.275609  -0.055289  -0.084938   0.403591   0.274417
     31       0.067279   0.426457  -0.078862  -0.123793   0.543007   0.364831
     32       0.015210   0.096370  -0.020180  -0.029053   0.136665   0.092312
     33       0.050586   0.349728  -0.015983  -0.043585  -0.189410  -0.170374
     34      -0.106688  -0.731652   0.036474   0.095889   0.336971   0.310462
     35       0.004885   0.036727  -0.001623  -0.006431  -0.023031  -0.021235
     36      -0.365142   0.073692   0.193727   0.284706   0.404510  -0.484813
     37       0.215847  -0.041887  -0.103075  -0.142938  -0.200472   0.239264
     38       0.169018  -0.034006  -0.091850  -0.136487  -0.193650   0.231670
     39       0.074563  -0.013173  -0.012478  -0.001211   0.011661  -0.017414
     40      -0.821790   0.138891   0.076299  -0.103887  -0.290491   0.396969
     41       0.075495  -0.012855  -0.006141   0.014563   0.035083  -0.047727
     42      -0.106584  -0.142511   0.008574  -0.787721   0.139350  -0.284562
     43       0.050637   0.068158  -0.004134   0.387116  -0.069935   0.140635
     44      -0.029507  -0.038129   0.002487  -0.222146   0.039230  -0.080569
     45       0.000072   0.000044   0.000002   0.000269  -0.000015   0.000024
     46      -0.000147  -0.000035   0.000053  -0.000664   0.000116   0.000046
     47       0.000005   0.000006   0.000007  -0.000075   0.000037   0.000030


The first frequency considered to be a vibration is 7
The total number of vibrations considered is 41


--------------------------
THERMOCHEMISTRY AT 298.15K
--------------------------

Temperature         ...   298.15 K
Pressure            ...     1.00 atm
Total Mass          ...   116.59 AMU
Quasi RRHO          ...     True
Cut-Off Frequency   ...     1.00 cm^-1

Throughout the following assumptions are being made:
  (1) The electronic state is orbitally nondegenerate
  (2) There are no thermally accessible electronically excited states
  (3) Hindered rotations indicated by low frequency modes are not
      treated as such but are treated as vibrations and this may
      cause some error
  (4) All equations used are the standard statistical mechanics
      equations for an ideal gas
  (5) All vibrations are strictly harmonic

freq.      92.30  E(vib)   ...       0.47 
freq.     151.60  E(vib)   ...       0.40 
freq.     188.79  E(vib)   ...       0.36 
freq.     282.50  E(vib)   ...       0.28 
freq.     351.77  E(vib)   ...       0.23 
freq.     368.98  E(vib)   ...       0.21 
freq.     413.54  E(vib)   ...       0.19 
freq.     514.27  E(vib)   ...       0.13 
freq.     534.49  E(vib)   ...       0.13 
freq.     661.14  E(vib)   ...       0.08 
freq.     740.96  E(vib)   ...       0.06 
freq.     792.04  E(vib)   ...       0.05 
freq.     800.68  E(vib)   ...       0.05 
freq.     871.65  E(vib)   ...       0.04 
freq.     923.74  E(vib)   ...       0.03 
freq.     939.11  E(vib)   ...       0.03 
freq.     966.58  E(vib)   ...       0.03 
freq.     988.32  E(vib)   ...       0.02 
freq.    1014.57  E(vib)   ...       0.02 
freq.    1041.89  E(vib)   ...       0.02 
freq.    1067.52  E(vib)   ...       0.02 
freq.    1083.17  E(vib)   ...       0.02 
freq.    1198.45  E(vib)   ...       0.01 
freq.    1237.98  E(vib)   ...       0.01 
freq.    1256.41  E(vib)   ...       0.01 
freq.    1273.26  E(vib)   ...       0.01 
freq.    1300.15  E(vib)   ...       0.01 
freq.    1362.64  E(vib)   ...       0.01 
freq.    1420.14  E(vib)   ...       0.00 
freq.    1438.66  E(vib)   ...       0.00 
freq.    1520.77  E(vib)   ...       0.00 
freq.    1562.71  E(vib)   ...       0.00 
freq.    3049.05  E(vib)   ...       0.00 
freq.    3054.82  E(vib)   ...       0.00 
freq.    3066.13  E(vib)   ...       0.00 
freq.    3078.07  E(vib)   ...       0.00 
freq.    3082.64  E(vib)   ...       0.00 
freq.    3088.84  E(vib)   ...       0.00 
freq.    3098.28  E(vib)   ...       0.00 
freq.    3112.38  E(vib)   ...       0.00 
freq.    3115.70  E(vib)   ...       0.00 

------------
INNER ENERGY
------------

The inner energy is: U= E(el) + E(ZPE) + E(vib) + E(rot) + E(trans)
    E(el)   - is the total energy from the electronic structure calculation
              = E(kin-el) + E(nuc-el) + E(el-el) + E(nuc-nuc)
    E(ZPE)  - the the zero temperature vibrational energy from the frequency calculation
    E(vib)  - the the finite temperature correction to E(ZPE) due to population
              of excited vibrational states
    E(rot)  - is the rotational thermal energy
    E(trans)- is the translational thermal energy

Summary of contributions to the inner energy U:
Electronic energy                ...    -21.84300843 Eh
Zero point energy                ...      0.12782046 Eh      80.21 kcal/mol
Thermal vibrational correction   ...      0.00466283 Eh       2.93 kcal/mol
Thermal rotational correction    ...      0.00141627 Eh       0.89 kcal/mol
Thermal translational correction ...      0.00141627 Eh       0.89 kcal/mol
-----------------------------------------------------------------------
Total thermal energy                    -21.70769260 Eh


Summary of corrections to the electronic energy:
(perhaps to be used in another calculation)
Total thermal correction                  0.00749537 Eh       4.70 kcal/mol
Non-thermal (ZPE) correction              0.12782046 Eh      80.21 kcal/mol
-----------------------------------------------------------------------
Total correction                          0.13531583 Eh      84.91 kcal/mol


--------
ENTHALPY
--------

The enthalpy is H = U + kB*T
                kB is Boltzmann's constant
Total thermal energy              ...    -21.70769260 Eh 
Thermal Enthalpy correction       ...      0.00094421 Eh       0.59 kcal/mol
-----------------------------------------------------------------------
Total Enthalpy                    ...    -21.70674839 Eh


WARNING (ORCA/SYM): The number of Z matrix atoms does not agree with
the number of centers in the basis set. The point group will therefore
be determined without considering basis set information.


Note: Only C1 symmetry has been detected, increase convergence thresholds 
      if your molecule has a higher symmetry. Symmetry factor of 1.0 is   
      used for the rotational entropy correction. 
 

Note: Rotational entropy computed according to Herzberg 
Infrared and Raman Spectra, Chapter V,1, Van Nostrand Reinhold, 1945 
Point Group:  C1, Symmetry Number:   1  
Rotational constants in cm-1:     0.112654     0.054537     0.044201 

Vibrational entropy computed according to the QRRHO of S. Grimme
Chem.Eur.J. 2012 18 9955 using a reference frequency of 100.0 cm-1


-------
ENTROPY
-------

The entropy contributions are T*S = T*(S(el)+S(vib)+S(rot)+S(trans))
     S(el)   - electronic entropy
     S(vib)  - vibrational entropy
     S(rot)  - rotational entropy
     S(trans)- translational entropy
The entropies will be listed as multiplied by the temperature to get
units of energy

Electronic entropy                ...      0.00000000 Eh      0.00 kcal/mol
Vibrational entropy               ...      0.00767676 Eh      4.82 kcal/mol
Rotational entropy                ...      0.01338730 Eh      8.40 kcal/mol
Translational entropy             ...      0.01908864 Eh     11.98 kcal/mol
-----------------------------------------------------------------------
Final entropy term                ...      0.04015271 Eh     25.20 kcal/mol

In case the symmetry of your molecule has not been determined correctly
or in case you have a reason to use a different symmetry number we print 
out the resulting rotational entropy values for sn=1,12:

 non-linear molecules -----------------------------------
|  sn= 1 | S(rot)=       0.01338730 Eh      8.40 kcal/mol|
|  sn= 2 | S(rot)=       0.01273285 Eh      7.99 kcal/mol|
|  sn= 3 | S(rot)=       0.01235001 Eh      7.75 kcal/mol|
|  sn= 4 | S(rot)=       0.01207839 Eh      7.58 kcal/mol|
|  sn= 5 | S(rot)=       0.01186770 Eh      7.45 kcal/mol|
|  sn= 6 | S(rot)=       0.01169556 Eh      7.34 kcal/mol|
|  sn= 7 | S(rot)=       0.01155001 Eh      7.25 kcal/mol|
|  sn= 8 | S(rot)=       0.01142393 Eh      7.17 kcal/mol|
|  sn= 9 | S(rot)=       0.01131273 Eh      7.10 kcal/mol|
|  sn=10 | S(rot)=       0.01121325 Eh      7.04 kcal/mol|
|  sn=11 | S(rot)=       0.01112326 Eh      6.98 kcal/mol|
|  sn=12 | S(rot)=       0.01104110 Eh      6.93 kcal/mol|
 linear molecules ---------------------------------------
|  Dinfh | S(rot)=       0.00827072 Eh      5.19 kcal/mol|
|  Cinfv | S(rot)=       0.00892518 Eh      5.60 kcal/mol|
 --------------------------------------------------------


-------------------
GIBBS FREE ENERGY
-------------------

The Gibbs free energy is G = H - T*S

Total enthalpy                    ...    -21.70674839 Eh 
Total entropy correction          ...     -0.04015271 Eh    -25.20 kcal/mol
-----------------------------------------------------------------------
Final Gibbs free energy         ...    -21.74690110 Eh

For completeness - the Gibbs free energy minus the electronic energy
G-E(el)                           ...      0.09610733 Eh     60.31 kcal/mol


--------------------------------
SUGGESTED CITATIONS FOR THIS RUN
--------------------------------

Below you find a list of papers that are relevant to this ORCA run
We neither can nor want to force you to cite these papers, but we appreciate if you do
You receive ORCA, which is the product of decades of hard work by many enthusiastic individuals, for free
The only thing we kindly ask in return is that you cite our papers,
We deeply appreciate it, if you show your appreciation for ORCA by not just citing the generic ORCA reference.

Please note that relegating all ORCA citations to the supporting information does *not* help us.
SI sections are not indexed - citations you put there will not count into any citation statistics
But we need these citations in order to attract the funding resources that allow us to do what we are doing

Therefore, if you are a happy ORCA user, please consider citing a few of the papers listed below in the main body of your paper

In addition to the list printed below, the program has created the file da_cl.bibtex that contains the list in bibtex format
You can import this file easily into all common literature databanks and citation aid programs


List of essential papers. We consider these as the minimum necessary citations

  1. Bannwarth, C.; Ehlert, S.; Grimme, S.
     GFN2-xTB—An Accurate and Broadly Parametrized Self-Consistent Tight-Binding Quantum Chemical Method with Multipole Electrostatics and Density-Dependent Dispersion Contributions
     J. Chem. Theory Comput. 2019 15(3), 1652-1671
     doi.org/10.1021/acs.jctc.8b01176
  2. Neese, F.
     Software update: the ORCA program system, version 6.0
     WIRES Comput. Molec. Sci. 2025 15(1), e70019
     doi.org/10.1002/wcms.7019

List of papers to cite with high priority. The work reported in these papers was absolutely
necessary for this run to complete.
Our perspective: the developers of density functionals and basis sets usually get cited in chemistry papers
Good! But without the algorithms to do something with them, the functionals or basis sets would not do anything.
Hence, in our opinion, the algorithm design and method developments papers are equally worthy of getting cited

  1. Bykov, D.; Petrenko, T.; Izsak, R.; Kossmann, S.; Becker, U.; Valeev, E.; Neese, F.
     Efficient implementation of the analytic second derivatives of Hartree-Fock and hybrid DFT energies: a detailed analysis of different approximations
     Molec. Phys. 2015 113 , 1961-1977
     doi.org/10.1080/00268976.2015.1025114
  2. Bannwarth, C.; Caldeweyher, E.; Ehlert, S.; Hansen, A.; Pracht, P.; Seibert, J.; Spicher, S.; Grimme, S.
     Extended tight-binding quantum chemistry methods
     WIRES Comput. Molec. Sci. 2020 11(2), e1493
     doi.org/10.1002/wcms.1493

List of suggested additional citations. These are papers that are important in the 'surrounding' of 
of this run, or papers that preceded the highly important papers. If you like your results we are grateful for a citation.

  1. Neese, F.
     The ORCA program system
     WIRES Comput. Molec. Sci. 2012 2(1), 73-78
     doi.org/10.1002/wcms.81
  2. Neese, F.
     Software update: the ORCA program system, version 4.0
     WIRES Comput. Molec. Sci. 2018 8(1), 1-6
     doi.org/10.1002/wcms.1327
  3. Neese, F.; Wennmohs, F.; Becker, U.; Riplinger, C.
     The ORCA quantum chemistry program package
     J. Chem. Phys. 2020 152(22), 224108
     doi.org/10.1063/5.0004608
  4. Neese, F.
     Software update: The ORCA program system—Version 5.0
     WIRES Comput. Molec. Sci. 2022 12(1), e1606
     doi.org/10.1002/wcms.1606

List of optional additional citations

  1. Neese, F.
     Approximate second-order SCF convergence for spin unrestricted wavefunctions
     Chem. Phys. Lett. 2000 325(1-3), 93-98
     doi.org/10.1016/s0009-2614(00)00662-x

Timings for individual modules:

Sum of individual times          ...        9.481 sec (=   0.158 min)
Geometry relaxation              ...        0.670 sec (=   0.011 min)   7.1 %
XTB module                       ...        8.811 sec (=   0.147 min)  92.9 %
                             ****ORCA TERMINATED NORMALLY****
TOTAL RUN TIME: 0 days 0 hours 0 minutes 17 seconds 925 msec
