
                                 *****************
                                 * O   R   C   A *
                                 *****************

                                            #,                                       
                                            ###                                      
                                            ####                                     
                                            #####                                    
                                            ######                                   
                                           ########,                                 
                                     ,,################,,,,,                         
                               ,,#################################,,                 
                          ,,##########################################,,             
                       ,#########################################, ''#####,          
                    ,#############################################,,   '####,        
                  ,##################################################,,,,####,       
                ,###########''''           ''''###############################       
              ,#####''   ,,,,##########,,,,          '''####'''          '####       
            ,##' ,,,,###########################,,,                        '##       
           ' ,,###''''                  '''############,,,                           
         ,,##''                                '''############,,,,        ,,,,,,###''
      ,#''                                            '''#######################'''  
     '                                                          ''''####''''         
             ,#######,   #######,   ,#######,      ##                                
            ,#'     '#,  ##    ##  ,#'     '#,    #''#        ,####,    ,#,          
            ##       ##  ##   ,#'  ##            #'  '#       #'       ,# #          
            ##       ##  #######   ##           ,######,      #####,      #          
            '#,     ,#'  ##    ##  '#,     ,#' ,#      #,     #,   #      #          
             '#######'   ##     ##  '#######'  #'      '#     '####' #    #          



                #########################################################
                #                        -***-                          #
                #          Department of theory and spectroscopy        #
                #                                                       #
                #                      Frank Neese                      #
                #                                                       #
                #     Directorship, Architecture, Infrastructure        #
                #                    SHARK, DRIVERS                     #
                #        Core code/Algorithms in most modules           #
                #                                                       #
                #        Max Planck Institute fuer Kohlenforschung      #
                #                Kaiser Wilhelm Platz 1                 #
                #                 D-45470 Muelheim/Ruhr                 #
                #                      Germany                          #
                #                                                       #
                #                  All rights reserved                  #
                #                        -***-                          #
                #########################################################


                         Program Version 6.1.0  -  RELEASE   -
                                (GIT: $679e74b$)
                          ($2025-06-10 18:02:51 +0200$)


 With contributions from (in alphabetic order):
[Max-Planck-Institut fuer Kohlenforschung]                               
  Daniel Aravena         : Magnetic Suceptibility                        
  Michael Atanasov       : Ab Initio Ligand Field Theory (pilot matlab implementation)
  Alexander A. Auer      : GIAO ZORA, VPT2 properties, NMR spectrum      
  Ute Becker             : All parallelization in ORCA, NUMFREQ, NUMCALC 
  Giovanni Bistoni       : ED, misc. LED, open-shell LED, HFLD           
  Dmytro Bykov           : pre 5.0 version of the SCF Hessian            
  Marcos Casanova-Páez   : Triplet and SCS-CIS(D). UHF-(DLPNO)-IP/EA/STEOM-CCSD. UHF-CVS-IP/STEOM-CCSD   
  Vijay G. Chilkuri      : MRCI spin determinant printing, contributions to CSF-ICE 
  Pauline Colinet        : FMM embedding                                 
  Dipayan Datta          : RHF DLPNO-CCSD density                        
  Achintya Kumar Dutta   : EOM-CC, STEOM-CC                              
  Nicolas Foglia         : Exact transition moments, OPA infrastructure, MCD improvements    
  Dmitry Ganyushin       : Spin-Orbit,Spin-Spin,Magnetic field MRCI      
  Miquel Garcia-Rates    : C-PCM and meta-GGA Hessian, CCSD/C-PCM, Gaussian charge scheme 
  Tiago L. C. Gouveia    : GS-ROHF, GS-ROCIS                             
  Yang Guo               : DLPNO-NEVPT2, F12-NEVPT2, CIM, IAO-localization        
  Andreas Hansen         : Spin unrestricted coupled pair/coupled cluster methods 
  Ingolf Harden          : AUTO-CI MPn and infrastructure                
  Benjamin Helmich-Paris : MC-RPA, TRAH-(SCF,CASSCF), AVAS, COSX integrals, SCF dyn. polar., MC-PDFT, srDFT 
  Lee Huntington         : MR-EOM, pCC                                   
  Robert Izsak           : Overlap fitted RIJCOSX, COSX-SCS-MP3, EOM     
  Riya Kayal             : Wick's Theorem for AUTO-CI, AUTO-CI UHF-CCSDT 
  Emily Kempfer          : AUTO-CI RHF CISDT and CCSDT, approximate NEVPT4
  Christian Kollmar      : KDIIS, OOCD, Brueckner-CCSD(T), CCSD density, CASPT2, CASPT2-K, improved NEVPT2 
  Axel Koslowski         : Symmetry handling                             
  Simone Kossmann        : meta-GGA functionals, TD-DFT gradient, OOMP2, (MP2 Hessian; deprecated post 5.0) 
  Lucas Lang             : DCDCAS, Hyperfine gauge corrections, ICE-SOC+SSC
  Marvin Lechner         : AUTO-CI (C++ implementation), FIC-MRCC        
  Spencer Leger          : CASSCF response                               
  Dagmar Lenk            : GEPOL surface, SMD, ORCA-2-JSON               
  Dimitrios Liakos       : Extrapolation schemes; Compound Job, Property file
  Dimitrios Manganas     : Further ROCIS development; embedding schemes. LFT, Crystal Embedding 
  Dimitrios Pantazis     : SARC Basis sets                               
  Anastasios Papadopoulos: AUTO-CI, single reference methods and gradients 
  Taras Petrenko         : pre 6.0 DFT Hessian and TD-DFT gradient,  ECA, NRVS 
  Petra Pikulova         : Analytic Raman intensities                    
  Peter Pinski           : DLPNO-MP2, DLPNO-MP2 Gradient                 
  Shashank Vittal Rao    : ES-AILFT, MagRelax                            
  Christoph Reimann      : Effective Core Potentials                     
  Marius Retegan         : Local ZFS, SOC                                
  Christoph Riplinger    : Optimizer, TS searches, QM/MM, DLPNO-CCSD(T), (RO)-DLPNO pert. Triples 
  Michael Roemelt        : Original ROCIS implementation, recursive CI coupling coefficients
  Masaaki Saitow         : Open-shell DLPNO-CCSD energy and density      
  Barbara Sandhoefer     : DKH picture change effects                    
  Yorick L. A. Schmerwitz: GMF and freeze-and-release deltaSCF, NEB S-IDPP initial path                    
  Kantharuban Sivalingam : CASSCF convergence/infrastructure, NEVPT2, NEVPT3, NEVPT4(SD), FIC-MRCI and CEPA variants
  Bernardo de Souza      : ESD, SOC TD-DFT                               
  Georgi L. Stoychev     : AutoAux, RI-MP2 NMR, DLPNO-MP2 response, X2C  
  Van Anh Tran           : RI-MP2 g-tensors                              
  Willem Van den Heuvel  : Paramagnetic NMR                              
  Zikuan Wang            : NOTCH, Electric field optimization            
  Frank Wennmohs         : Technical directorship and infrastructure     
  Hang Xu                : AUTO-CI-Response properties                   
                                                                         
[FACCTs GmbH]                                                            
  Markus Bursch, Nicolas Foglia, Miquel Garcia-Rates, Ingolf Harden, Hagen Neugebauer, Anastasios Papadopoulos, 
  Christoph Riplinger, Bernardo de Souza, Georgi L. Stoychev                                                    
                                                                 
  APM, various basis sets, CI-OPT, improved COSX, DLPNO-Multilevel,           
  DOCKER, DRACO, updates on ESD, Fragmentator, GOAT, IRC, LR-CPCM, L-BFGS, MBIS, meta-GGA TD-DFT gradient, ML-optimized integration grids, 
  MM, NACMEs, nearIR, NEB, NEB-TS, NL-DFT gradient (VV10), 2- and 3-layer-ONIOM, interface openCOSMO-RS, QMMM,   
  Crystal-QMMM, RESP, rigid body optimization, SF, symmetry and pop. for TD-DFT, various functionals, SOLVATOR                                   
                                                                         
[Other institutions]                                                     
  V. Asgeirsson          : NEB                                           
  Christoph Bannwarth    : sTDA-DFT, sTD-DFT, PBEh-3c, B97-3c, D3        
  Giovanni Bistoni       : ETS/NOCV, ADLD/ADEX, COVALED                  
  Martin Brehm           : Molecular dynamics                            
  Ronald Cardenas        : ETS/NOCV                                      
  Martina Colucci        : COVALED                                       
  Sebastian Ehlert       : rSCAN, r2SCAN, r2SCAN-3c, D4, dhf basis sets  
  Marvin Friede          : D4 for Fr, Ra, Ac-Lr                          
  Lars Goerigk           : TD-DFT with DH, B97 family of functionals     
  Stefan Grimme          : VdW corrections, initial TS optimization, DFT functionals, gCP, sTDA/sTD-DF 
  Waldemar Hujo          : DFT-NL                                        
  H. Jonsson             : NEB                                           
  Holger Kruse           : gCP                                           
  Marcel Mueller         : wB97X-3c, vDZP basis set                      
  Hagen Neugebauer       : wr2SCAN, Native XTB                           
  Gianluca Regni         : ADLD/ADEX                                     
  Tobias Risthaus        : pre 6.0 range-separated hybrid DFT and stability analysis
  Lukas Wittmann         : regularized MP2, r2SCAN double-hybrids, wr2SCAN        
                                                                         
We gratefully acknowledge several colleagues who have allowed us to      
interface, adapt or use parts of their codes:                            
  Ed Valeev, F. Pavosevic, A. Kumar             : LibInt (2-el integral package), F12 methods 
  Garnet Chan, S. Sharma, J. Yang, R. Olivares  : DMRG                   
  Ulf Ekstrom                                   : XCFun DFT Library      
  Mihaly Kallay                                 : mrcc  (arbitrary order and MRCC methods)
  Frank Weinhold                                : gennbo (NPA and NBO analysis)           
  Simon Mueller                                 : openCOSMO-RS                            
  Christopher J. Cramer and Donald G. Truhlar   : smd solvation model                     
  S Lehtola, MJT Oliveira, MAL Marques          : LibXC Library                           
  Liviu Ungur et al                             : ANISO software                          


 Your calculation uses the libint2 library for the computation of 2-el integrals
 For citations please refer to: http://libint.valeyev.net

 Your ORCA version has been built with support for libXC version: 7.0.0
 For citations please refer to: https://libxc.gitlab.io

 This ORCA versions uses:
   CBLAS   interface :  Fast vector & matrix operations
   LAPACKE interface :  Fast linear algebra routines
   SCALAPACK package :  Parallel linear algebra routines
   Shared memory     :  Shared parallel matrices
   BLAS/LAPACK       :  OpenBLAS 0.3.29  USE64BITINT DYNAMIC_ARCH NO_AFFINITY SkylakeX SINGLE_THREADED
        Core in use  :  SkylakeX
   Copyright (c) 2011-2014, The OpenBLAS Project


  ***********************************
  * Starting time: Thu Mar 12 12:47:43 2026
  * Host name:     midway3-login4.rcc.local
  * Process ID:    2799773
  * Working dir.:  /home/rzhu16/orca_TS_search/sn2_i_cl/TS_search
  ***********************************

Your calculation utilizes the semiempirical GFN2-xTB method
Please cite in your paper:
Bannwarth, C.; Ehlert S.; Grimme, S. J. Chem. Theory Comput. 2019, 15, 1652.
   

================================================================================

cite the ECPs for I  [Def2-ECP] as follows:
Ce-Yb(ecp-28): M. Dolg, H. Stoll, H.Preuss, J. Chem. Phys., 1989, 90, 1730-1734.
Y-Cd(ecp-28), Hf-Hg(ecp-46): D. Andrae,U. Haeussermann, M. Dolg, H. Stoll, H. Preuss, Theor. Chim. Acta, 1990, 77, 123-141.
In-Sb(ecp-28), Tl-Bi(ecp-46): B. Metz, H. Stoll, M. Dolg, J. Chem. Phys., 2000, 113, 2563-2569.
Te-Xe(ecp-28), Po-Rn(ecp-46): K. A. Peterson, D. Figgen, E. Goll, H. Stoll, M. Dolg, J. Chem. Phys., 2003, 119, 11113-11123.
Rb(ecp-28), Cs(ecp-46): T. Leininger, A. Nicklass, W. Kuechle, H. Stoll, M. Dolg, A. Bergner, Chem. Phys. Lett., 1996, 255, 274-280.
Sr(ecp-28), Ba(ecp-46): M. Kaupp, P. V. Schleyer, H. Stoll and H. Preuss, J. Chem. Phys., 1991, 94, 1360-1366.
La(ecp-46): M. Dolg, H. Stoll, A. Savin, H. Preuss, Theor. Chim. Acta, 1989, 75, 173-194.
Lu(ecp-28): X. Cao, M. Dolg, J. Chem. Phys., 2001, 115, 7348-7355.

ECP parameters for I  [Def2-ECP] have been obtained from:
TURBOMOLE (7.0.2)

================================================================================
                                        WARNINGS
                       Please study these warnings very carefully!
================================================================================


WARNING: Analytical Hessian for XTB is limited in the analysis of the data.
       : If you want to obtain extensive IR and deltaG analysis, please use ! XTB NumFreq. 


WARNING: Geometry Optimization
  ===> : Switching off AutoStart
         For restart on a previous wavefunction, please use MOREAD

WARNING: Found dipole moment calculation with XTB calculation
  ===> : Switching off dipole moment calculation


WARNING: Found frequency calculation in combination with XTB calculation
  ===> : Need to redirect dipole moment calculation to properties.out


================================================================================
                                       INPUT FILE
================================================================================
NAME = sn2_i_cl.inp
|  1> ! XTB2 OptTS Freq PAL8
|  2> 
|  3> %geom
|  4>   Calc_Hess true
|  5>   Recalc_Hess 5
|  6>   MaxIter 100
|  7> end
|  8> 
|  9> * xyz -1 1
| 10> C    0.000000   0.000000  -0.073200
| 11> H    0.000000   1.085000   0.000000
| 12> H    0.939638  -0.542500   0.000000
| 13> H   -0.939638  -0.542500   0.000000
| 14> I    0.000000   0.000000   2.601800
| 15> Cl   0.000000   0.000000  -2.565200
| 16> *
| 17> 
| 18>                          ****END OF INPUT****
================================================================================

                       *****************************
                       * Geometry Optimization Run *
                       *****************************

Geometry optimization settings:
Update method            Update   .... Bofill
Choice of coordinates    CoordSys .... (2022) Redundant Internals
Initial Hessian          InHess   .... Almloef's Model
Max. no of cycles        MaxIter  .... 100

Convergence Tolerances:
Energy Change            TolE     ....  5.0000e-06 Eh
Max. Gradient            TolMAXG  ....  3.0000e-04 Eh/bohr
RMS Gradient             TolRMSG  ....  1.0000e-04 Eh/bohr
Max. Displacement        TolMAXD  ....  4.0000e-03 bohr
RMS Displacement         TolRMSD  ....  2.0000e-03 bohr
Strict Convergence                .... False

------------------------------------------------------------------------------
                        ORCA OPTIMIZATION COORDINATE SETUP
------------------------------------------------------------------------------

The optimization will be done in redundant internal coordinates (2022)
Making redundant internal coordinates   ...  (2022 redundants) done
Following TS mode number                ...     0
Evaluating the initial hessian          ...  (Is done on the fly) done
Evaluating the coordinates              ...  done
Calculating the B-matrix                .... done
Calculating the G-matrix                .... done
The number of degrees of freedom        ....   20

    -----------------------------------------------------------------
                    Redundant Internal Coordinates


    -----------------------------------------------------------------
         Definition                    Initial Value    d2E/dq (diagonal element)
    -----------------------------------------------------------------
      1. B(H   1,C   0)                  1.0875         0.000000   
      2. B(H   2,C   0)                  1.0875         0.000000   
      3. B(H   3,C   0)                  1.0875         0.000000   
      4. B(I   4,H   1)                  2.8190         0.000000   
      5. B(I   4,H   2)                  2.8190         0.000000   
      6. B(I   4,C   0)                  2.6750         0.000000   
      7. B(I   4,H   3)                  2.8190         0.000000   
      8. B(Cl  5,H   3)                  2.7852         0.000000   
      9. B(Cl  5,H   2)                  2.7852         0.000000   
     10. B(Cl  5,H   1)                  2.7852         0.000000   
     11. B(Cl  5,C   0)                  2.4920         0.000000   
     12. A(H   1,C   0,H   3)          119.5513         0.000000   
     13. A(H   2,C   0,H   3)          119.5514         0.000000   
     14. A(H   1,C   0,Cl  5)           93.8596         0.000000   
     15. A(H   2,C   0,Cl  5)           93.8596         0.000000   
     16. A(H   3,C   0,Cl  5)           93.8596         0.000000   
     17. A(H   1,C   0,I   4)           86.1404         0.000000   
     18. A(H   2,C   0,I   4)           86.1404         0.000000   
     19. A(H   3,C   0,I   4)           86.1404         0.000000   
     20. A(H   1,C   0,H   2)          119.5513         0.000000   
    -----------------------------------------------------------------

Number of atoms                         .... 6
Number of degrees of freedom            .... 20


         *************************************************************
         *                GEOMETRY OPTIMIZATION CYCLE   1            *
         *************************************************************
---------------------------------
CARTESIAN COORDINATES (ANGSTROEM)
---------------------------------
  C     0.000000    0.000000   -0.073200
  H     0.000000    1.085000    0.000000
  H     0.939638   -0.542500    0.000000
  H    -0.939638   -0.542500    0.000000
  I     0.000000    0.000000    2.601800
  Cl    0.000000    0.000000   -2.565200

----------------------------
CARTESIAN COORDINATES (A.U.)
----------------------------
  NO LB    ZA    FRAG    MASS        X           Y           Z
   0 C   6.0000    0    12.011    0.000000    0.000000   -0.138328
   1 H   1.0000    0     1.008    0.000000    2.050353    0.000000
   2 H   1.0000    0     1.008    1.775658   -1.025176    0.000000
   3 H   1.0000    0     1.008   -1.775658   -1.025176    0.000000
   4 I  53.0000    0   126.900    0.000000    0.000000    4.916689
   5 Cl 17.0000    0    35.453    0.000000    0.000000   -4.847525

      -----------------------------------------------------------      
     |                   =====================                   |     
     |                           x T B                           |     
     |                   =====================                   |     
     |                         S. Grimme                         |     
     |          Mulliken Center for Theoretical Chemistry        |     
     |                    University of Bonn                     |     
      -----------------------------------------------------------      

   * xtb version 6.7.1 (edcfbbe) compiled by 'albert@albert-system' on 2024-07-22

   xtb is free software: you can redistribute it and/or modify it under
   the terms of the GNU Lesser General Public License as published by
   the Free Software Foundation, either version 3 of the License, or
   (at your option) any later version.
   
   xtb is distributed in the hope that it will be useful,
   but WITHOUT ANY WARRANTY; without even the implied warranty of
   MERCHANTABILITY or FITNESS FOR A PARTICULAR PURPOSE.  See the
   GNU Lesser General Public License for more details.
   
   Cite this work as:
   * C. Bannwarth, E. Caldeweyher, S. Ehlert, A. Hansen, P. Pracht,
     J. Seibert, S. Spicher, S. Grimme, WIREs Comput. Mol. Sci., 2020, 11,
     e01493. DOI: 10.1002/wcms.1493
   
   for GFN2-xTB:
   * C. Bannwarth, S. Ehlert and S. Grimme., J. Chem. Theory Comput., 2019,
     15, 1652-1671. DOI: 10.1021/acs.jctc.8b01176
   for GFN1-xTB:
   * S. Grimme, C. Bannwarth, P. Shushkov, J. Chem. Theory Comput., 2017,
     13, 1989-2009. DOI: 10.1021/acs.jctc.7b00118
   for GFN0-xTB:
   * P. Pracht, E. Caldeweyher, S. Ehlert, S. Grimme, ChemRxiv, 2019, preprint.
     DOI: 10.26434/chemrxiv.8326202.v1
   for GFN-FF:
   * S. Spicher and S. Grimme, Angew. Chem. Int. Ed., 2020, 59, 15665-15673.
     DOI: 10.1002/anie.202004239
   
   for ALPB and GBSA implicit solvation:
   * S. Ehlert, M. Stahn, S. Spicher, S. Grimme, J. Chem. Theory Comput.,
     2021, 17, 4250-4261. DOI: 10.1021/acs.jctc.1c00471
   
   for ddCOSMO and CPCM-X implicit solvation:
   * M. Stahn, S. Ehlert, S. Grimme, J. Phys. Chem. A,
     2023, XX, XXXX-XXXX. DOI: 10.1021/acs.jpca.3c04382
   
   for DFT-D4:
   * E. Caldeweyher, C. Bannwarth and S. Grimme, J. Chem. Phys., 2017,
     147, 034112. DOI: 10.1063/1.4993215
   * E. Caldeweyher, S. Ehlert, A. Hansen, H. Neugebauer, S. Spicher,
     C. Bannwarth and S. Grimme, J. Chem. Phys., 2019, 150, 154122.
     DOI: 10.1063/1.5090222
   * E. Caldeweyher, J.-M. Mewes, S. Ehlert and S. Grimme, Phys. Chem. Chem. Phys.
     2020, 22, 8499-8512. DOI: 10.1039/D0CP00502A
   
   for sTDA-xTB:
   * S. Grimme and C. Bannwarth, J. Chem. Phys., 2016, 145, 054103.
     DOI: 10.1063/1.4959605
   
   in the mass-spec context:
   * V. Asgeirsson, C. Bauer and S. Grimme, Chem. Sci., 2017, 8, 4879.
     DOI: 10.1039/c7sc00601b
   * J. Koopman and S. Grimme, ACS Omega 2019, 4, 12, 15120-15133.
     DOI: 10.1021/acsomega.9b02011
   
   for metadynamics refer to:
   * S. Grimme, J. Chem. Theory Comput., 2019, 155, 2847-2862
     DOI: 10.1021/acs.jctc.9b00143
   
   for SPH calculations refer to:
   * S. Spicher and S. Grimme, J. Chem. Theory Comput., 2021, 17, 1701-1714
     DOI: 10.1021/acs.jctc.0c01306
   
   for ONIOM refer to:
   * C. Plett, A. Katbashev, S. Ehlert, S. Grimme, M. Bursch,
     Phys. Chem. Chem. Phys., 2023, 25, 17860-17868. DOI: 10.1039/D3CP02178E
   
   for DIPRO refer to:
   * J. Kohn, N. Gildemeister, S. Grimme, D. Fazzi, A. Hansen,
     J. Chem. Phys., 2023, just accepted.
   
   for PTB refer to:
   * S. Grimme, M. Mueller, A. Hansen, J. Chem. Phys., 2023, 158, 124111.
     DOI: 10.1063/5.0137838
   
   with help from (in alphabetical order)
   P. Atkinson, C. Bannwarth, F. Bohle, G. Brandenburg, E. Caldeweyher
   M. Checinski, S. Dohm, S. Ehlert, S. Ehrlich, I. Gerasimov, C. Hölzer
   A. Katbashev, J. Kohn, J. Koopman, C. Lavigne, S. Lehtola, F. März, M. Müller,
   F. Musil, H. Neugebauer, J. Pisarek, C. Plett, P. Pracht, F. Pultar,
   J. Seibert, P. Shushkov, S. Spicher, M. Stahn, M. Steiner, T. Strunk,
   J. Stückrath, T. Rose, and J. Unsleber
   
 * started run on 2026/03/12 at 12:47:43.856     
   ID    Z sym.   atoms
    1    6 C      1
    2    1 H      2-4
    3   53 I      5
    4   17 Cl     6

           -------------------------------------------------
          |                Calculation Setup                |
           -------------------------------------------------

          program call               : /software/orca-6.1.0-el8-x86_64/bin/otool_xtb sn2_i_cl_XTB.xyz --grad -c -1 -u 0 -P 8 --namespace sn2_i_cl --input sn2_i_cl_XTB.input.tmp --acc 0.200000
          hostname                   : midway3-login4.rcc.local
          calculation namespace      : sn2_i_cl
          coordinate file            : sn2_i_cl_XTB.xyz
          omp threads                :                     8


molecular fragmentation (1/2 indicates fragments):
111112
# atoms in fragment 1/2:     5     1
 fragment masses (1/2) :      141.94       35.45
CMA distance (Bohr)    :   9.232
constraining FC (au)   :  0.0500

           -------------------------------------------------
          |                 G F N 2 - x T B                 |
           -------------------------------------------------

        Reference                      10.1021/acs.jctc.8b01176
      * Hamiltonian:
        H0-scaling (s, p, d)           1.850000    2.230000    2.230000
        zeta-weighting                 0.500000
      * Dispersion:
        s8                             2.700000
        a1                             0.520000
        a2                             5.000000
        s9                             5.000000
      * Repulsion:
        kExp                           1.500000    1.000000
        rExp                           1.000000
      * Coulomb:
        alpha                          2.000000
        third order                    shell-resolved
        anisotropic                    true
        a3                             3.000000
        a5                             4.000000
        cn-shift                       1.200000
        cn-exp                         4.000000
        max-rad                        5.000000


          ...................................................
          :                      SETUP                      :
          :.................................................:
          :  # basis functions                  27          :
          :  # atomic orbitals                  25          :
          :  # shells                           11          :
          :  # electrons                        22          :
          :  max. iterations                   250          :
          :  Hamiltonian                  GFN2-xTB          :
          :  restarted?                      false          :
          :  GBSA solvation                  false          :
          :  PC potential                    false          :
          :  electronic temp.          300.0000000     K    :
          :  accuracy                    0.2000000          :
          :  -> integral cutoff          0.3198970E+02      :
          :  -> integral neglect         0.2000000E-08      :
          :  -> SCF convergence          0.2000000E-06 Eh   :
          :  -> wf. convergence          0.2000000E-04 e    :
          :  Broyden damping             0.4000000          :
          :  net charge                         -1          :
          :  unpaired electrons                  0          :
          ...................................................

 iter      E             dE          RMSdq      gap      omega  full diag
   1    -12.2704369 -0.122704E+02  0.114E+01    2.10       0.0  T
   2    -12.3055095 -0.350726E-01  0.364E+00    2.58       1.0  T
   3    -12.3056487 -0.139194E-03  0.230E+00    2.17       1.0  T
   4    -12.3111446 -0.549588E-02  0.144E+00    2.51       1.0  T
   5    -12.3122179 -0.107331E-02  0.561E-01    2.52       1.0  T
   6    -12.3125694 -0.351534E-03  0.308E-01    2.45       1.0  T
   7    -12.3125771 -0.770777E-05  0.177E-01    2.43       1.0  T
   8    -12.3126141 -0.369341E-04  0.520E-02    2.44       1.0  T
   9    -12.3126116  0.241790E-05  0.567E-02    2.46       1.0  T
  10    -12.3126188 -0.714482E-05  0.100E-02    2.45       4.1  T
  11    -12.3126188 -0.232355E-07  0.785E-03    2.45       5.2  T
  12    -12.3126189 -0.102589E-06  0.447E-04    2.45      91.3  T
  13    -12.3126189 -0.470550E-09  0.164E-04    2.45     248.7  T
  14    -12.3126189 -0.457767E-10  0.137E-05    2.45    2973.3  T

   *** convergence criteria satisfied after 14 iterations ***

         #    Occupation            Energy/Eh            Energy/eV
      -------------------------------------------------------------
         1        2.0000           -0.8515763             -23.1726
       ...           ...                  ...                  ...
         5        2.0000           -0.3565861              -9.7032
         6        2.0000           -0.2818983              -7.6708
         7        2.0000           -0.2344116              -6.3787
         8        2.0000           -0.2344116              -6.3787
         9        2.0000           -0.2316621              -6.3038
        10        2.0000           -0.2316621              -6.3038
        11        2.0000           -0.2299685              -6.2578 (HOMO)
        12                         -0.1397617              -3.8031 (LUMO)
        13                          0.2161427               5.8815
        14                          0.2365307               6.4363
        15                          0.2365307               6.4363
        16                          0.2495837               6.7915
       ...                                ...                  ...
        25                          0.4100222              11.1573
      -------------------------------------------------------------
                  HL-Gap            0.0902067 Eh            2.4547 eV
             Fermi-level           -0.1848651 Eh           -5.0304 eV

 SCC (total)                   0 d,  0 h,  0 min,  0.089 sec
 SCC setup                      ...        0 min,  0.000 sec (  0.203%)
 Dispersion                     ...        0 min,  0.000 sec (  0.059%)
 classical contributions        ...        0 min,  0.000 sec (  0.048%)
 integral evaluation            ...        0 min,  0.085 sec ( 95.404%)
 iterations                     ...        0 min,  0.003 sec (  2.980%)
 molecular gradient             ...        0 min,  0.001 sec (  1.079%)
 printout                       ...        0 min,  0.000 sec (  0.201%)

         :::::::::::::::::::::::::::::::::::::::::::::::::::::
         ::                     SUMMARY                     ::
         :::::::::::::::::::::::::::::::::::::::::::::::::::::
         :: total energy             -12.261014823777 Eh    ::
         :: gradient norm              0.039032233185 Eh/a0 ::
         :: HOMO-LUMO gap              2.454650486297 eV    ::
         ::.................................................::
         :: SCC energy               -12.312620037121 Eh    ::
         :: -> isotropic ES            0.125795090676 Eh    ::
         :: -> anisotropic ES         -0.001140841801 Eh    ::
         :: -> anisotropic XC          0.003755918393 Eh    ::
         :: -> dispersion             -0.003061357275 Eh    ::
         :: repulsion energy           0.051605213344 Eh    ::
         :: add. restraining           0.000000000000 Eh    ::
         :: total charge              -1.000000000000 e     ::
         :::::::::::::::::::::::::::::::::::::::::::::::::::::


Property printout bound to 'properties.out'

           -------------------------------------------------
          | TOTAL ENERGY              -12.261014823777 Eh   |
          | GRADIENT NORM               0.039032233185 Eh/α |
          | HOMO-LUMO GAP               2.454650486297 eV   |
           -------------------------------------------------

------------------------------------------------------------------------
 * finished run on 2026/03/12 at 12:47:43.961     
------------------------------------------------------------------------
 total:
 * wall-time:     0 d,  0 h,  0 min,  0.105 sec
 *  cpu-time:     0 d,  0 h,  0 min,  0.453 sec
 * ratio c/w:     4.326 speedup
 SCF:
 * wall-time:     0 d,  0 h,  0 min,  0.089 sec
 *  cpu-time:     0 d,  0 h,  0 min,  0.388 sec
 * ratio c/w:     4.350 speedup


-------------------------   --------------------
FINAL SINGLE POINT ENERGY       -12.261014823780
-------------------------   --------------------


-------------
DIPOLE MOMENT
-------------
                                X             Y             Z
Total Dipole Moment    :      0.00000       0.00000      -0.06200
                        -----------------------------------------
Magnitude (a.u.)       :      0.06200
Magnitude (Debye)      :      0.15759


------------------
CARTESIAN GRADIENT
------------------

   1   C   :    0.000000000    0.000000178   -0.012940818
   2   H   :   -0.000000000    0.013072012    0.009455745
   3   H   :    0.011320916   -0.006536094    0.009455755
   4   H   :   -0.011320916   -0.006536094    0.009455755
   5   I   :    0.000000000   -0.000000001    0.007389504
   6   Cl  :    0.000000000   -0.000000001   -0.022815941

Difference to translation invariance:
           :    0.0000000000   -0.0000000000   -0.0000000000

Difference to rotation invariance:
           :    0.0000000048   -0.0000000000    0.0000000000

Norm of the Cartesian gradient     ...    0.0390322332
RMS gradient                       ...    0.0091999856
MAX gradient                       ...    0.0228159405
      -----------------------------------------------------------      
     |                   =====================                   |     
     |                           x T B                           |     
     |                   =====================                   |     
     |                         S. Grimme                         |     
     |          Mulliken Center for Theoretical Chemistry        |     
     |                    University of Bonn                     |     
      -----------------------------------------------------------      

   * xtb version 6.7.1 (edcfbbe) compiled by 'albert@albert-system' on 2024-07-22

   xtb is free software: you can redistribute it and/or modify it under
   the terms of the GNU Lesser General Public License as published by
   the Free Software Foundation, either version 3 of the License, or
   (at your option) any later version.
   
   xtb is distributed in the hope that it will be useful,
   but WITHOUT ANY WARRANTY; without even the implied warranty of
   MERCHANTABILITY or FITNESS FOR A PARTICULAR PURPOSE.  See the
   GNU Lesser General Public License for more details.
   
   Cite this work as:
   * C. Bannwarth, E. Caldeweyher, S. Ehlert, A. Hansen, P. Pracht,
     J. Seibert, S. Spicher, S. Grimme, WIREs Comput. Mol. Sci., 2020, 11,
     e01493. DOI: 10.1002/wcms.1493
   
   for GFN2-xTB:
   * C. Bannwarth, S. Ehlert and S. Grimme., J. Chem. Theory Comput., 2019,
     15, 1652-1671. DOI: 10.1021/acs.jctc.8b01176
   for GFN1-xTB:
   * S. Grimme, C. Bannwarth, P. Shushkov, J. Chem. Theory Comput., 2017,
     13, 1989-2009. DOI: 10.1021/acs.jctc.7b00118
   for GFN0-xTB:
   * P. Pracht, E. Caldeweyher, S. Ehlert, S. Grimme, ChemRxiv, 2019, preprint.
     DOI: 10.26434/chemrxiv.8326202.v1
   for GFN-FF:
   * S. Spicher and S. Grimme, Angew. Chem. Int. Ed., 2020, 59, 15665-15673.
     DOI: 10.1002/anie.202004239
   
   for ALPB and GBSA implicit solvation:
   * S. Ehlert, M. Stahn, S. Spicher, S. Grimme, J. Chem. Theory Comput.,
     2021, 17, 4250-4261. DOI: 10.1021/acs.jctc.1c00471
   
   for ddCOSMO and CPCM-X implicit solvation:
   * M. Stahn, S. Ehlert, S. Grimme, J. Phys. Chem. A,
     2023, XX, XXXX-XXXX. DOI: 10.1021/acs.jpca.3c04382
   
   for DFT-D4:
   * E. Caldeweyher, C. Bannwarth and S. Grimme, J. Chem. Phys., 2017,
     147, 034112. DOI: 10.1063/1.4993215
   * E. Caldeweyher, S. Ehlert, A. Hansen, H. Neugebauer, S. Spicher,
     C. Bannwarth and S. Grimme, J. Chem. Phys., 2019, 150, 154122.
     DOI: 10.1063/1.5090222
   * E. Caldeweyher, J.-M. Mewes, S. Ehlert and S. Grimme, Phys. Chem. Chem. Phys.
     2020, 22, 8499-8512. DOI: 10.1039/D0CP00502A
   
   for sTDA-xTB:
   * S. Grimme and C. Bannwarth, J. Chem. Phys., 2016, 145, 054103.
     DOI: 10.1063/1.4959605
   
   in the mass-spec context:
   * V. Asgeirsson, C. Bauer and S. Grimme, Chem. Sci., 2017, 8, 4879.
     DOI: 10.1039/c7sc00601b
   * J. Koopman and S. Grimme, ACS Omega 2019, 4, 12, 15120-15133.
     DOI: 10.1021/acsomega.9b02011
   
   for metadynamics refer to:
   * S. Grimme, J. Chem. Theory Comput., 2019, 155, 2847-2862
     DOI: 10.1021/acs.jctc.9b00143
   
   for SPH calculations refer to:
   * S. Spicher and S. Grimme, J. Chem. Theory Comput., 2021, 17, 1701-1714
     DOI: 10.1021/acs.jctc.0c01306
   
   for ONIOM refer to:
   * C. Plett, A. Katbashev, S. Ehlert, S. Grimme, M. Bursch,
     Phys. Chem. Chem. Phys., 2023, 25, 17860-17868. DOI: 10.1039/D3CP02178E
   
   for DIPRO refer to:
   * J. Kohn, N. Gildemeister, S. Grimme, D. Fazzi, A. Hansen,
     J. Chem. Phys., 2023, just accepted.
   
   for PTB refer to:
   * S. Grimme, M. Mueller, A. Hansen, J. Chem. Phys., 2023, 158, 124111.
     DOI: 10.1063/5.0137838
   
   with help from (in alphabetical order)
   P. Atkinson, C. Bannwarth, F. Bohle, G. Brandenburg, E. Caldeweyher
   M. Checinski, S. Dohm, S. Ehlert, S. Ehrlich, I. Gerasimov, C. Hölzer
   A. Katbashev, J. Kohn, J. Koopman, C. Lavigne, S. Lehtola, F. März, M. Müller,
   F. Musil, H. Neugebauer, J. Pisarek, C. Plett, P. Pracht, F. Pultar,
   J. Seibert, P. Shushkov, S. Spicher, M. Stahn, M. Steiner, T. Strunk,
   J. Stückrath, T. Rose, and J. Unsleber
   
 * started run on 2026/03/12 at 12:47:43.970     
   ID    Z sym.   atoms
    1    6 C      1
    2    1 H      2-4
    3   53 I      5
    4   17 Cl     6

           -------------------------------------------------
          |                Calculation Setup                |
           -------------------------------------------------

          program call               : /software/orca-6.1.0-el8-x86_64/bin/otool_xtb sn2_i_cl_XTB.xyz --hess -c -1 -u 0 -P 8 --namespace sn2_i_cl --input sn2_i_cl_XTB.input.tmp --acc 0.200000
          hostname                   : midway3-login4.rcc.local
          calculation namespace      : sn2_i_cl
          coordinate file            : sn2_i_cl_XTB.xyz
          omp threads                :                     8


molecular fragmentation (1/2 indicates fragments):
111112
# atoms in fragment 1/2:     5     1
 fragment masses (1/2) :      141.94       35.45
CMA distance (Bohr)    :   9.232
constraining FC (au)   :  0.0500

           -------------------------------------------------
          |                 G F N 2 - x T B                 |
           -------------------------------------------------

        Reference                      10.1021/acs.jctc.8b01176
      * Hamiltonian:
        H0-scaling (s, p, d)           1.850000    2.230000    2.230000
        zeta-weighting                 0.500000
      * Dispersion:
        s8                             2.700000
        a1                             0.520000
        a2                             5.000000
        s9                             5.000000
      * Repulsion:
        kExp                           1.500000    1.000000
        rExp                           1.000000
      * Coulomb:
        alpha                          2.000000
        third order                    shell-resolved
        anisotropic                    true
        a3                             3.000000
        a5                             4.000000
        cn-shift                       1.200000
        cn-exp                         4.000000
        max-rad                        5.000000

q/qsh data taken from xtbrestart
CAMM data taken from xtbrestart

          ...................................................
          :                      SETUP                      :
          :.................................................:
          :  # basis functions                  27          :
          :  # atomic orbitals                  25          :
          :  # shells                           11          :
          :  # electrons                        22          :
          :  max. iterations                   250          :
          :  Hamiltonian                  GFN2-xTB          :
          :  restarted?                       true          :
          :  GBSA solvation                  false          :
          :  PC potential                    false          :
          :  electronic temp.          300.0000000     K    :
          :  accuracy                    0.2000000          :
          :  -> integral cutoff          0.3198970E+02      :
          :  -> integral neglect         0.2000000E-08      :
          :  -> SCF convergence          0.2000000E-06 Eh   :
          :  -> wf. convergence          0.2000000E-04 e    :
          :  Broyden damping             0.4000000          :
          :  net charge                         -1          :
          :  unpaired electrons                  0          :
          ...................................................

 iter      E             dE          RMSdq      gap      omega  full diag
   1    -12.3126189 -0.123126E+02  0.916E-06    2.45       0.0  T
   2    -12.3126189 -0.568434E-13  0.862E-06    2.45    4738.8  T
   3    -12.3126189 -0.131450E-12  0.101E-06    2.45   40472.5  T

   *** convergence criteria satisfied after 3 iterations ***

         #    Occupation            Energy/Eh            Energy/eV
      -------------------------------------------------------------
         1        2.0000           -0.8515764             -23.1726
       ...           ...                  ...                  ...
         5        2.0000           -0.3565860              -9.7032
         6        2.0000           -0.2818983              -7.6708
         7        2.0000           -0.2344116              -6.3787
         8        2.0000           -0.2344116              -6.3787
         9        2.0000           -0.2316621              -6.3038
        10        2.0000           -0.2316621              -6.3038
        11        2.0000           -0.2299685              -6.2578 (HOMO)
        12                         -0.1397617              -3.8031 (LUMO)
        13                          0.2161428               5.8815
        14                          0.2365307               6.4363
        15                          0.2365307               6.4363
        16                          0.2495838               6.7915
       ...                                ...                  ...
        25                          0.4100222              11.1573
      -------------------------------------------------------------
                  HL-Gap            0.0902068 Eh            2.4547 eV
             Fermi-level           -0.1848651 Eh           -5.0304 eV

 SCC (total)                   0 d,  0 h,  0 min,  0.084 sec
 SCC setup                      ...        0 min,  0.000 sec (  0.228%)
 Dispersion                     ...        0 min,  0.000 sec (  0.064%)
 classical contributions        ...        0 min,  0.000 sec (  0.026%)
 integral evaluation            ...        0 min,  0.081 sec ( 97.150%)
 iterations                     ...        0 min,  0.001 sec (  1.358%)
 molecular gradient             ...        0 min,  0.001 sec (  0.941%)
 printout                       ...        0 min,  0.000 sec (  0.207%)

         :::::::::::::::::::::::::::::::::::::::::::::::::::::
         ::                     SUMMARY                     ::
         :::::::::::::::::::::::::::::::::::::::::::::::::::::
         :: total energy             -12.261014823777 Eh    ::
         :: gradient norm              0.039032244339 Eh/a0 ::
         :: HOMO-LUMO gap              2.454652920991 eV    ::
         ::.................................................::
         :: SCC energy               -12.312620037121 Eh    ::
         :: -> isotropic ES            0.125795153008 Eh    ::
         :: -> anisotropic ES         -0.001140851303 Eh    ::
         :: -> anisotropic XC          0.003755918907 Eh    ::
         :: -> dispersion             -0.003061357260 Eh    ::
         :: repulsion energy           0.051605213344 Eh    ::
         :: add. restraining           0.000000000000 Eh    ::
         :: total charge              -1.000000000000 e     ::
         :::::::::::::::::::::::::::::::::::::::::::::::::::::

           ------------------------------------------------- 
          |                Numerical Hessian                |
           ------------------------------------------------- 
step length          :   0.00500
SCC accuracy         :   0.30000
Hessian scale factor :   1.00000
frozen atoms in %    :   0.00000    0
RMS gradient         :   0.03903 !! INCOMPLETELY OPTIMIZED GEOMETRY !!
estimated CPU  time      0.00 min
estimated wall time      0.00 min

writing file <hessian>.

 projected vibrational frequencies (cm⁻¹)
eigval :       -0.00    -0.00    -0.00    -0.00     0.00     0.00
eigval :     -322.58   122.38   185.04   185.04   931.79   931.79
eigval :      947.44  1367.50  1367.53  2940.63  3022.31  3022.33

Property printout bound to 'properties.out'
Molecule has the following symmetry elements: (C3) 3*(sigma) 
It seems to be the C3v point group
imag cut-off (cm-1) :    5.00
 found            1  significant imaginary frequency
 writing imag mode distorted coords to xtbhess.xyz
 for further optimization.

           -------------------------------------------------
          | TOTAL ENERGY              -12.261014823777 Eh   |
          | TOTAL ENTHALPY            -12.220991649817 Eh   |
          | TOTAL FREE ENERGY         -12.255823420936 Eh   |
          | GRADIENT NORM               0.039032245100 Eh/α |
          | HOMO-LUMO GAP               2.454652933030 eV   |
           -------------------------------------------------
########################################################################
[WARNING] Runtime exception occurred
-1- hessian_numhess: Hessian on incompletely optimized geometry!
########################################################################

------------------------------------------------------------------------
 * finished run on 2026/03/12 at 12:47:44.156     
------------------------------------------------------------------------
 total:
 * wall-time:     0 d,  0 h,  0 min,  0.185 sec
 *  cpu-time:     0 d,  0 h,  0 min,  0.616 sec
 * ratio c/w:     3.323 speedup
 SCF:
 * wall-time:     0 d,  0 h,  0 min,  0.084 sec
 *  cpu-time:     0 d,  0 h,  0 min,  0.383 sec
 * ratio c/w:     4.562 speedup
 analytical hessian:
 * wall-time:     0 d,  0 h,  0 min,  0.073 sec
 *  cpu-time:     0 d,  0 h,  0 min,  0.146 sec
 * ratio c/w:     2.012 speedup


-------------------------   --------------------
FINAL SINGLE POINT ENERGY       -12.261014823780
-------------------------   --------------------


-------------
DIPOLE MOMENT
-------------
                                X             Y             Z
Total Dipole Moment    :      0.00000       0.00000      -0.06200
                        -----------------------------------------
Magnitude (a.u.)       :      0.06200
Magnitude (Debye)      :      0.15759


-----------------------
VIBRATIONAL FREQUENCIES
-----------------------

Scaling factor for frequencies =  1.000000000  (already applied!)

     0:       0.00 cm**-1
     1:       0.00 cm**-1
     2:       0.00 cm**-1
     3:       0.00 cm**-1
     4:       0.00 cm**-1
     5:       0.00 cm**-1
     6:    -322.57 cm**-1  ***imaginary mode***
     7:     122.38 cm**-1
     8:     185.04 cm**-1
     9:     185.04 cm**-1
    10:     931.77 cm**-1
    11:     931.77 cm**-1
    12:     947.41 cm**-1
    13:    1367.46 cm**-1
    14:    1367.49 cm**-1
    15:    2940.54 cm**-1
    16:    3022.23 cm**-1
    17:    3022.24 cm**-1


------------
NORMAL MODES
------------

These modes are the Cartesian displacements weighted by the diagonal matrix
M(i,i)=1/sqrt(m[i]) where m[i] is the mass of the displaced atom
Thus, these vectors are normalized but *not* orthogonal

                  0          1          2          3          4          5    
      0       0.000000   0.000000   0.000000   0.000000   0.000000   0.000000
      1       0.000000   0.000000   0.000000   0.000000   0.000000   0.000000
      2       0.000000   0.000000   0.000000   0.000000   0.000000   0.000000
      3       0.000000   0.000000   0.000000   0.000000   0.000000   0.000000
      4       0.000000   0.000000   0.000000   0.000000   0.000000   0.000000
      5       0.000000   0.000000   0.000000   0.000000   0.000000   0.000000
      6       0.000000   0.000000   0.000000   0.000000   0.000000   0.000000
      7       0.000000   0.000000   0.000000   0.000000   0.000000   0.000000
      8       0.000000   0.000000   0.000000   0.000000   0.000000   0.000000
      9       0.000000   0.000000   0.000000   0.000000   0.000000   0.000000
     10       0.000000   0.000000   0.000000   0.000000   0.000000   0.000000
     11       0.000000   0.000000   0.000000   0.000000   0.000000   0.000000
     12       0.000000   0.000000   0.000000   0.000000   0.000000   0.000000
     13       0.000000   0.000000   0.000000   0.000000   0.000000   0.000000
     14       0.000000   0.000000   0.000000   0.000000   0.000000   0.000000
     15       0.000000   0.000000   0.000000   0.000000   0.000000   0.000000
     16       0.000000   0.000000   0.000000   0.000000   0.000000   0.000000
     17       0.000000   0.000000   0.000000   0.000000   0.000000   0.000000
                  6          7          8          9         10         11    
      0       0.000003  -0.000001   0.489294  -0.000245   0.000018   0.000367
      1      -0.000135   0.000023   0.000245   0.489297   0.000372  -0.000018
      2       0.921700   0.403358  -0.000001   0.000096   0.000001  -0.000000
      3       0.000001  -0.000002   0.503367  -0.000251  -0.001921  -0.039878
      4       0.034927   0.009028   0.000247   0.493614  -0.047933   0.002311
      5       0.187310   0.183348   0.000020   0.042485   0.813110  -0.039201
      6       0.030306   0.007798   0.496038   0.004001   0.001261  -0.046091
      7      -0.017799  -0.004475   0.004484   0.500909  -0.041746   0.005513
      8       0.187320   0.183346   0.036753  -0.021204  -0.372658   0.723809
      9      -0.030305  -0.007802   0.496033  -0.004496  -0.005691  -0.045761
     10      -0.017800  -0.004475  -0.003983   0.500913  -0.042085  -0.001471
     11       0.187320   0.183348  -0.036778  -0.021166  -0.440559  -0.684603
     12      -0.000000   0.000000  -0.028127   0.000014   0.000122   0.002537
     13       0.000009  -0.000001  -0.000014  -0.028127   0.002537  -0.000122
     14      -0.035657  -0.270075  -0.000000  -0.000003   0.000000  -0.000000
     15      -0.000001   0.000000  -0.107609   0.000054  -0.000263  -0.005461
     16       0.000033  -0.000005  -0.000054  -0.107609  -0.005461   0.000263
     17      -0.200608   0.814414   0.000001  -0.000027   0.000001  -0.000000
                 12         13         14         15         16         17    
      0       0.000000   0.000003   0.097684  -0.000000   0.098061   0.000000
      1       0.000009  -0.097682   0.000003   0.000020  -0.000000   0.098062
      2       0.039711   0.000017  -0.000000  -0.006842  -0.000000   0.000001
      3      -0.000002  -0.000029  -0.809810   0.000000   0.039860  -0.000004
      4       0.028505  -0.056137   0.000006   0.576584  -0.000000  -0.810375
      5      -0.576188   0.036832   0.000002   0.026657  -0.000000  -0.046198
      6       0.024655   0.375026  -0.160334   0.499489  -0.597734   0.368019
      7      -0.014274   0.593270  -0.375004  -0.288436   0.368119  -0.172626
      8      -0.576110  -0.018462  -0.031891   0.026669  -0.040006   0.023091
      9      -0.024659  -0.375031  -0.160303  -0.499489  -0.597737  -0.368021
     10      -0.014274   0.593301   0.374964  -0.288436  -0.368113  -0.172622
     11      -0.576108  -0.018457   0.031893   0.026673   0.040010   0.023093
     12       0.000000  -0.000000  -0.000093  -0.000000  -0.000035  -0.000000
     13      -0.000000   0.000093   0.000000   0.000000  -0.000000  -0.000035
     14       0.006570  -0.000000  -0.000000  -0.000010   0.000000   0.000000
     15       0.000000  -0.000000  -0.000619   0.000000  -0.000241   0.000000
     16      -0.000001   0.000619  -0.000000   0.000001   0.000000  -0.000241
     17       0.012172  -0.000003  -0.000000   0.000080   0.000000  -0.000000


The first frequency considered to be a vibration is 7
The total number of vibrations considered is 11


--------------------------
THERMOCHEMISTRY AT 298.15K
--------------------------

Temperature         ...   298.15 K
Pressure            ...     1.00 atm
Total Mass          ...   177.39 AMU
Quasi RRHO          ...     True
Cut-Off Frequency   ...     1.00 cm^-1

Throughout the following assumptions are being made:
  (1) The electronic state is orbitally nondegenerate
  (2) There are no thermally accessible electronically excited states
  (3) Hindered rotations indicated by low frequency modes are not
      treated as such but are treated as vibrations and this may
      cause some error
  (4) All equations used are the standard statistical mechanics
      equations for an ideal gas
  (5) All vibrations are strictly harmonic

freq.     122.38  E(vib)   ...       0.43 
freq.     185.04  E(vib)   ...       0.37 
freq.     185.04  E(vib)   ...       0.37 
freq.     931.77  E(vib)   ...       0.03 
freq.     931.77  E(vib)   ...       0.03 
freq.     947.41  E(vib)   ...       0.03 
freq.    1367.46  E(vib)   ...       0.01 
freq.    1367.49  E(vib)   ...       0.01 
freq.    2940.54  E(vib)   ...       0.00 
freq.    3022.23  E(vib)   ...       0.00 
freq.    3022.24  E(vib)   ...       0.00 

------------
INNER ENERGY
------------

The inner energy is: U= E(el) + E(ZPE) + E(vib) + E(rot) + E(trans)
    E(el)   - is the total energy from the electronic structure calculation
              = E(kin-el) + E(nuc-el) + E(el-el) + E(nuc-nuc)
    E(ZPE)  - the the zero temperature vibrational energy from the frequency calculation
    E(vib)  - the the finite temperature correction to E(ZPE) due to population
              of excited vibrational states
    E(rot)  - is the rotational thermal energy
    E(trans)- is the translational thermal energy

Summary of contributions to the inner energy U:
Electronic energy                ...    -12.26101482 Eh
Zero point energy                ...      0.03422574 Eh      21.48 kcal/mol
Thermal vibrational correction   ...      0.00201970 Eh       1.27 kcal/mol
Thermal rotational correction    ...      0.00141627 Eh       0.89 kcal/mol
Thermal translational correction ...      0.00141627 Eh       0.89 kcal/mol
-----------------------------------------------------------------------
Total thermal energy                    -12.22193684 Eh


Summary of corrections to the electronic energy:
(perhaps to be used in another calculation)
Total thermal correction                  0.00485225 Eh       3.04 kcal/mol
Non-thermal (ZPE) correction              0.03422574 Eh      21.48 kcal/mol
-----------------------------------------------------------------------
Total correction                          0.03907798 Eh      24.52 kcal/mol


--------
ENTHALPY
--------

The enthalpy is H = U + kB*T
                kB is Boltzmann's constant
Total thermal energy              ...    -12.22193684 Eh 
Thermal Enthalpy correction       ...      0.00094421 Eh       0.59 kcal/mol
-----------------------------------------------------------------------
Total Enthalpy                    ...    -12.22099263 Eh


WARNING (ORCA/SYM): The number of Z matrix atoms does not agree with
the number of centers in the basis set. The point group will therefore
be determined without considering basis set information.


Note: Rotational entropy computed according to Herzberg 
Infrared and Raman Spectra, Chapter V,1, Van Nostrand Reinhold, 1945 
Point Group:  C3v, Symmetry Number:   3  
Rotational constants in cm-1:     4.735387     0.021782     0.021782 

Vibrational entropy computed according to the QRRHO of S. Grimme
Chem.Eur.J. 2012 18 9955 using a reference frequency of 100.0 cm-1


-------
ENTROPY
-------

The entropy contributions are T*S = T*(S(el)+S(vib)+S(rot)+S(trans))
     S(el)   - electronic entropy
     S(vib)  - vibrational entropy
     S(rot)  - rotational entropy
     S(trans)- translational entropy
The entropies will be listed as multiplied by the temperature to get
units of energy

Electronic entropy                ...      0.00000000 Eh      0.00 kcal/mol
Vibrational entropy               ...      0.00374805 Eh      2.35 kcal/mol
Rotational entropy                ...      0.01135245 Eh      7.12 kcal/mol
Translational entropy             ...      0.01968301 Eh     12.35 kcal/mol
-----------------------------------------------------------------------
Final entropy term                ...      0.03478350 Eh     21.83 kcal/mol

In case the symmetry of your molecule has not been determined correctly
or in case you have a reason to use a different symmetry number we print 
out the resulting rotational entropy values for sn=1,12:

 non-linear molecules -----------------------------------
|  sn= 1 | S(rot)=       0.01238974 Eh      7.77 kcal/mol|
|  sn= 2 | S(rot)=       0.01173528 Eh      7.36 kcal/mol|
|  sn= 3 | S(rot)=       0.01135245 Eh      7.12 kcal/mol|
|  sn= 4 | S(rot)=       0.01108083 Eh      6.95 kcal/mol|
|  sn= 5 | S(rot)=       0.01087014 Eh      6.82 kcal/mol|
|  sn= 6 | S(rot)=       0.01069799 Eh      6.71 kcal/mol|
|  sn= 7 | S(rot)=       0.01055245 Eh      6.62 kcal/mol|
|  sn= 8 | S(rot)=       0.01042637 Eh      6.54 kcal/mol|
|  sn= 9 | S(rot)=       0.01031516 Eh      6.47 kcal/mol|
|  sn=10 | S(rot)=       0.01021568 Eh      6.41 kcal/mol|
|  sn=11 | S(rot)=       0.01012569 Eh      6.35 kcal/mol|
|  sn=12 | S(rot)=       0.01004354 Eh      6.30 kcal/mol|
 linear molecules ---------------------------------------
|  Dinfh | S(rot)=       0.00893887 Eh      5.61 kcal/mol|
|  Cinfv | S(rot)=       0.00959332 Eh      6.02 kcal/mol|
 --------------------------------------------------------


-------------------
GIBBS FREE ENERGY
-------------------

The Gibbs free energy is G = H - T*S

Total enthalpy                    ...    -12.22099263 Eh 
Total entropy correction          ...     -0.03478350 Eh    -21.83 kcal/mol
-----------------------------------------------------------------------
Final Gibbs free energy         ...    -12.25577613 Eh

For completeness - the Gibbs free energy minus the electronic energy
G-E(el)                           ...      0.00523869 Eh      3.29 kcal/mol

Actual Hessian File stored as sn2_i_cl.001.hess
------------------------------------------------------------------------------
                         ORCA GEOMETRY RELAXATION STEP
------------------------------------------------------------------------------

Reading the OPT-File                    .... done
Getting information on internals        .... done
Copying old internal coords+grads       .... done
Making the new internal coordinates     .... (2022 redundants) done
Validating the new internal coordinates .... (2022 redundants) done
Calculating the B-matrix                .... done
Calculating the G,G- and P matrices     .... done
Transforming gradient to internals      .... done
Projecting the internal gradient        .... done
Number of atoms                         ....   6
Number of internal coordinates          ....  20
Current Energy                          ....   -12.261014824 Eh
Current gradient norm                   ....     0.039032233 Eh/bohr
Maximum allowed component of the step   ....  0.300
Current trust radius                    ....  0.300
Evaluating the initial hessian          ....  (read) 
(Reading Exact Hessian)...  
InHessName: sn2_i_cl.hess	The file <sn2_i_cl.hess> is opened as a .hess file
done
done
Projecting the Hessian                  .... done
Diagonalizing the Hessian               .... done
Dimension of the hessian                ....  20
Lowest eigenvalues of the Hessian:
 -0.013463406  0.008465286  0.014369784  0.014370008  0.016687324
Hessian has   1 negative eigenvalues
Taking P-RFO step
Searching for lambda that maximizes along the lowest mode
TS mode is mode number   0 with eigenvalue  -0.01346341 and components:
   1.   -0.00958300
   2.   -0.00957799
   3.   -0.00957563
   4.   -0.09035638
   5.   -0.09022433
   6.   -0.51055225
   7.   -0.09022626
   8.    0.19058569
   9.    0.19058810
  10.    0.19042010
  11.    0.60471563
  12.    0.04575181
  13.    0.04564112
  14.   -0.19744186
  15.   -0.19735144
  16.   -0.19735333
  17.    0.19733803
  18.    0.19740500
  19.    0.19740361
  20.    0.04575310

Lambda that maximizes along the TS mode:       0.00004484
Searching for lambda that minimizes along all other modes
In cycle   1: lambdaN =  -0.00686124   step =   0.00686124
In cycle   2: lambdaN =  -0.01184574   step =   0.00498450
In cycle   3: lambdaN =  -0.01262784   step =   0.00078209
In cycle   4: lambdaN =  -0.01263875   step =   0.00001091
In cycle   5: lambdaN =  -0.01263875   step =   0.00000000
Lambda that minimizes along all other modes:  -0.01263875
Calculated stepsize too large (   0.6580 >    0.3000). Scaled with    0.4559.
The final length of the internal step   ....       0.3000
Converting the step to Cartesian space:
 Initial RMS(Int)=    0.0670820393
Transforming coordinates:
 Iter   0:  RMS(Cart)=    0.0358970793 RMS(Int)=    0.0667716669
done
Storing new coordinates                 .... done

                                .--------------------.
          ----------------------|Geometry convergence|-------------------------
          Item                value                   Tolerance       Converged
          ---------------------------------------------------------------------
          RMS gradient        0.0051599391            0.0001000000      NO
          MAX gradient        0.0094355425            0.0003000000      NO
          RMS step            0.0670820393            0.0020000000      NO
          MAX step            0.1367768522            0.0040000000      NO
          -------------------------------------------------------------------------
          ........................................................
          Max(Bonds)      0.0724      Max(Angles)    2.53
          Max(Dihed)        0.00      Max(Improp)    0.00
          ---------------------------------------------------------------------

The optimization has not yet converged - more geometry cycles are needed


    ---------------------------------------------------------------------------
                         Redundant Internal Coordinates
                            (Angstroem and degrees)

        Definition                    Value    dE/dq     Step     New-Value  comp.(TS mode)
    ----------------------------------------------------------------------------
     1. B(H   1,C   0)                1.0875  0.009435 -0.0091    1.0784   
     2. B(H   2,C   0)                1.0875  0.009436 -0.0091    1.0784   
     3. B(H   3,C   0)                1.0875  0.009436 -0.0091    1.0784   
     4. B(I   4,H   1)                2.8190  0.001441 -0.0123    2.8066   
     5. B(I   4,H   2)                2.8190  0.001441 -0.0123    2.8066   
     6. B(I   4,C   0)                2.6750  0.003400 -0.0594    2.6156          0.51
     7. B(I   4,H   3)                2.8190  0.001441 -0.0123    2.8066   
     8. B(Cl  5,H   3)                2.7852  0.008387 -0.0724    2.7128   
     9. B(Cl  5,H   2)                2.7852  0.008387 -0.0724    2.7128   
    10. B(Cl  5,H   1)                2.7852  0.008387 -0.0724    2.7128   
    11. B(Cl  5,C   0)                2.4920 -0.000357 -0.0436    2.4484          0.60
    12. A(H   1,C   0,H   3)          119.55 -0.000564    0.58    120.14   
    13. A(H   2,C   0,H   3)          119.55 -0.000564    0.58    120.14   
    14. A(H   1,C   0,Cl  5)           93.86  0.002433   -2.53     91.33   
    15. A(H   2,C   0,Cl  5)           93.86  0.002433   -2.53     91.33   
    16. A(H   3,C   0,Cl  5)           93.86  0.002433   -2.53     91.33   
    17. A(H   1,C   0,I   4)           86.14 -0.002433    2.52     88.67   
    18. A(H   2,C   0,I   4)           86.14 -0.002433    2.53     88.67   
    19. A(H   3,C   0,I   4)           86.14 -0.002433    2.53     88.67   
    20. A(H   1,C   0,H   2)          119.55 -0.000564    0.58    120.14   
    ----------------------------------------------------------------------------

Geometry step timings:
Preparation and reading OPT file:      0.000 s ( 0.876 %)
Internal coordinates            :      0.000 s ( 0.815 %)
B/P matrices and projection     :      0.000 s ( 2.874 %)
Hessian update/contruction      :      0.004 s (81.594 %)
Making the step                 :      0.000 s ( 4.484 %)
Converting the step to Cartesian:      0.000 s ( 0.836 %)
Storing new data                :      0.000 s ( 1.610 %)
Checking convergence            :      0.000 s ( 1.243 %)
Final printing                  :      0.000 s ( 5.565 %)
Total time                      :      0.005 s

Time for energy+gradient        :      0.117 s
Time for complete geometry iter :      0.327 s

         *************************************************************
         *                GEOMETRY OPTIMIZATION CYCLE   2            *
         *************************************************************
---------------------------------
CARTESIAN COORDINATES (ANGSTROEM)
---------------------------------
  C     0.000000   -0.000001   -0.047293
  H     0.000000    1.079655   -0.018707
  H     0.935008   -0.539831   -0.018708
  H    -0.935008   -0.539831   -0.018708
  I    -0.000000    0.000004    2.570932
  Cl   -0.000000    0.000004   -2.504116

----------------------------
CARTESIAN COORDINATES (A.U.)
----------------------------
  NO LB    ZA    FRAG    MASS        X           Y           Z
   0 C   6.0000    0    12.011    0.000000   -0.000002   -0.089371
   1 H   1.0000    0     1.008    0.000000    2.040253   -0.035350
   2 H   1.0000    0     1.008    1.766910   -1.020133   -0.035353
   3 H   1.0000    0     1.008   -1.766910   -1.020133   -0.035353
   4 I  53.0000    0   126.900   -0.000000    0.000008    4.858357
   5 Cl 17.0000    0    35.453   -0.000000    0.000007   -4.732093

      -----------------------------------------------------------      
     |                   =====================                   |     
     |                           x T B                           |     
     |                   =====================                   |     
     |                         S. Grimme                         |     
     |          Mulliken Center for Theoretical Chemistry        |     
     |                    University of Bonn                     |     
      -----------------------------------------------------------      

   * xtb version 6.7.1 (edcfbbe) compiled by 'albert@albert-system' on 2024-07-22

   xtb is free software: you can redistribute it and/or modify it under
   the terms of the GNU Lesser General Public License as published by
   the Free Software Foundation, either version 3 of the License, or
   (at your option) any later version.
   
   xtb is distributed in the hope that it will be useful,
   but WITHOUT ANY WARRANTY; without even the implied warranty of
   MERCHANTABILITY or FITNESS FOR A PARTICULAR PURPOSE.  See the
   GNU Lesser General Public License for more details.
   
   Cite this work as:
   * C. Bannwarth, E. Caldeweyher, S. Ehlert, A. Hansen, P. Pracht,
     J. Seibert, S. Spicher, S. Grimme, WIREs Comput. Mol. Sci., 2020, 11,
     e01493. DOI: 10.1002/wcms.1493
   
   for GFN2-xTB:
   * C. Bannwarth, S. Ehlert and S. Grimme., J. Chem. Theory Comput., 2019,
     15, 1652-1671. DOI: 10.1021/acs.jctc.8b01176
   for GFN1-xTB:
   * S. Grimme, C. Bannwarth, P. Shushkov, J. Chem. Theory Comput., 2017,
     13, 1989-2009. DOI: 10.1021/acs.jctc.7b00118
   for GFN0-xTB:
   * P. Pracht, E. Caldeweyher, S. Ehlert, S. Grimme, ChemRxiv, 2019, preprint.
     DOI: 10.26434/chemrxiv.8326202.v1
   for GFN-FF:
   * S. Spicher and S. Grimme, Angew. Chem. Int. Ed., 2020, 59, 15665-15673.
     DOI: 10.1002/anie.202004239
   
   for ALPB and GBSA implicit solvation:
   * S. Ehlert, M. Stahn, S. Spicher, S. Grimme, J. Chem. Theory Comput.,
     2021, 17, 4250-4261. DOI: 10.1021/acs.jctc.1c00471
   
   for ddCOSMO and CPCM-X implicit solvation:
   * M. Stahn, S. Ehlert, S. Grimme, J. Phys. Chem. A,
     2023, XX, XXXX-XXXX. DOI: 10.1021/acs.jpca.3c04382
   
   for DFT-D4:
   * E. Caldeweyher, C. Bannwarth and S. Grimme, J. Chem. Phys., 2017,
     147, 034112. DOI: 10.1063/1.4993215
   * E. Caldeweyher, S. Ehlert, A. Hansen, H. Neugebauer, S. Spicher,
     C. Bannwarth and S. Grimme, J. Chem. Phys., 2019, 150, 154122.
     DOI: 10.1063/1.5090222
   * E. Caldeweyher, J.-M. Mewes, S. Ehlert and S. Grimme, Phys. Chem. Chem. Phys.
     2020, 22, 8499-8512. DOI: 10.1039/D0CP00502A
   
   for sTDA-xTB:
   * S. Grimme and C. Bannwarth, J. Chem. Phys., 2016, 145, 054103.
     DOI: 10.1063/1.4959605
   
   in the mass-spec context:
   * V. Asgeirsson, C. Bauer and S. Grimme, Chem. Sci., 2017, 8, 4879.
     DOI: 10.1039/c7sc00601b
   * J. Koopman and S. Grimme, ACS Omega 2019, 4, 12, 15120-15133.
     DOI: 10.1021/acsomega.9b02011
   
   for metadynamics refer to:
   * S. Grimme, J. Chem. Theory Comput., 2019, 155, 2847-2862
     DOI: 10.1021/acs.jctc.9b00143
   
   for SPH calculations refer to:
   * S. Spicher and S. Grimme, J. Chem. Theory Comput., 2021, 17, 1701-1714
     DOI: 10.1021/acs.jctc.0c01306
   
   for ONIOM refer to:
   * C. Plett, A. Katbashev, S. Ehlert, S. Grimme, M. Bursch,
     Phys. Chem. Chem. Phys., 2023, 25, 17860-17868. DOI: 10.1039/D3CP02178E
   
   for DIPRO refer to:
   * J. Kohn, N. Gildemeister, S. Grimme, D. Fazzi, A. Hansen,
     J. Chem. Phys., 2023, just accepted.
   
   for PTB refer to:
   * S. Grimme, M. Mueller, A. Hansen, J. Chem. Phys., 2023, 158, 124111.
     DOI: 10.1063/5.0137838
   
   with help from (in alphabetical order)
   P. Atkinson, C. Bannwarth, F. Bohle, G. Brandenburg, E. Caldeweyher
   M. Checinski, S. Dohm, S. Ehlert, S. Ehrlich, I. Gerasimov, C. Hölzer
   A. Katbashev, J. Kohn, J. Koopman, C. Lavigne, S. Lehtola, F. März, M. Müller,
   F. Musil, H. Neugebauer, J. Pisarek, C. Plett, P. Pracht, F. Pultar,
   J. Seibert, P. Shushkov, S. Spicher, M. Stahn, M. Steiner, T. Strunk,
   J. Stückrath, T. Rose, and J. Unsleber
   
 * started run on 2026/03/12 at 12:47:44.182     
   ID    Z sym.   atoms
    1    6 C      1
    2    1 H      2-4
    3   53 I      5
    4   17 Cl     6

           -------------------------------------------------
          |                Calculation Setup                |
           -------------------------------------------------

          program call               : /software/orca-6.1.0-el8-x86_64/bin/otool_xtb sn2_i_cl_XTB.xyz --grad -c -1 -u 0 -P 8 --namespace sn2_i_cl --input sn2_i_cl_XTB.input.tmp --acc 0.200000
          hostname                   : midway3-login4.rcc.local
          calculation namespace      : sn2_i_cl
          coordinate file            : sn2_i_cl_XTB.xyz
          omp threads                :                     8


molecular fragmentation (1/2 indicates fragments):
111112
# atoms in fragment 1/2:     5     1
 fragment masses (1/2) :      141.94       35.45
CMA distance (Bohr)    :   9.068
constraining FC (au)   :  0.0500

           -------------------------------------------------
          |                 G F N 2 - x T B                 |
           -------------------------------------------------

        Reference                      10.1021/acs.jctc.8b01176
      * Hamiltonian:
        H0-scaling (s, p, d)           1.850000    2.230000    2.230000
        zeta-weighting                 0.500000
      * Dispersion:
        s8                             2.700000
        a1                             0.520000
        a2                             5.000000
        s9                             5.000000
      * Repulsion:
        kExp                           1.500000    1.000000
        rExp                           1.000000
      * Coulomb:
        alpha                          2.000000
        third order                    shell-resolved
        anisotropic                    true
        a3                             3.000000
        a5                             4.000000
        cn-shift                       1.200000
        cn-exp                         4.000000
        max-rad                        5.000000

q/qsh data taken from xtbrestart
CAMM data taken from xtbrestart

          ...................................................
          :                      SETUP                      :
          :.................................................:
          :  # basis functions                  27          :
          :  # atomic orbitals                  25          :
          :  # shells                           11          :
          :  # electrons                        22          :
          :  max. iterations                   250          :
          :  Hamiltonian                  GFN2-xTB          :
          :  restarted?                       true          :
          :  GBSA solvation                  false          :
          :  PC potential                    false          :
          :  electronic temp.          300.0000000     K    :
          :  accuracy                    0.2000000          :
          :  -> integral cutoff          0.3198970E+02      :
          :  -> integral neglect         0.2000000E-08      :
          :  -> SCF convergence          0.2000000E-06 Eh   :
          :  -> wf. convergence          0.2000000E-04 e    :
          :  Broyden damping             0.4000000          :
          :  net charge                         -1          :
          :  unpaired electrons                  0          :
          ...................................................

 iter      E             dE          RMSdq      gap      omega  full diag
   1    -12.3202505 -0.123203E+02  0.435E-01    2.70       0.0  T
   2    -12.3203202 -0.696780E-04  0.150E-01    2.68       1.0  T
   3    -12.3203228 -0.259133E-05  0.136E-01    2.67       1.0  T
   4    -12.3203263 -0.352610E-05  0.704E-02    2.68       1.0  T
   5    -12.3203314 -0.512334E-05  0.311E-02    2.67       1.3  T
   6    -12.3203318 -0.375472E-06  0.549E-03    2.67       7.4  T
   7    -12.3203318 -0.246176E-07  0.145E-03    2.67      28.2  T
   8    -12.3203318 -0.122647E-08  0.103E-03    2.67      39.5  T
   9    -12.3203318 -0.173895E-08  0.554E-04    2.67      73.7  T
  10    -12.3203318 -0.345381E-09  0.773E-05    2.67     528.1  T
  11    -12.3203318 -0.310330E-11  0.341E-06    2.67   11960.3  T

   *** convergence criteria satisfied after 11 iterations ***

         #    Occupation            Energy/Eh            Energy/eV
      -------------------------------------------------------------
         1        2.0000           -0.8498282             -23.1250
       ...           ...                  ...                  ...
         5        2.0000           -0.3563339              -9.6963
         6        2.0000           -0.2857091              -7.7745
         7        2.0000           -0.2359433              -6.4203
         8        2.0000           -0.2359433              -6.4203
         9        2.0000           -0.2302938              -6.2666
        10        2.0000           -0.2302938              -6.2666
        11        2.0000           -0.2284058              -6.2152 (HOMO)
        12                         -0.1302342              -3.5439 (LUMO)
        13                          0.2233928               6.0788
        14                          0.2370510               6.4505
        15                          0.2370511               6.4505
        16                          0.2462165               6.6999
       ...                                ...                  ...
        25                          0.4205521              11.4438
      -------------------------------------------------------------
                  HL-Gap            0.0981716 Eh            2.6714 eV
             Fermi-level           -0.1793200 Eh           -4.8795 eV

 SCC (total)                   0 d,  0 h,  0 min,  0.081 sec
 SCC setup                      ...        0 min,  0.000 sec (  0.239%)
 Dispersion                     ...        0 min,  0.000 sec (  0.071%)
 classical contributions        ...        0 min,  0.000 sec (  0.054%)
 integral evaluation            ...        0 min,  0.079 sec ( 96.616%)
 iterations                     ...        0 min,  0.002 sec (  2.114%)
 molecular gradient             ...        0 min,  0.001 sec (  0.741%)
 printout                       ...        0 min,  0.000 sec (  0.139%)

         :::::::::::::::::::::::::::::::::::::::::::::::::::::
         ::                     SUMMARY                     ::
         :::::::::::::::::::::::::::::::::::::::::::::::::::::
         :: total energy             -12.265636514810 Eh    ::
         :: gradient norm              0.030341125622 Eh/a0 ::
         :: HOMO-LUMO gap              2.671383850236 eV    ::
         ::.................................................::
         :: SCC energy               -12.320332807158 Eh    ::
         :: -> isotropic ES            0.126121578566 Eh    ::
         :: -> anisotropic ES         -0.001745166157 Eh    ::
         :: -> anisotropic XC          0.003141374781 Eh    ::
         :: -> dispersion             -0.003097671636 Eh    ::
         :: repulsion energy           0.054696292348 Eh    ::
         :: add. restraining           0.000000000000 Eh    ::
         :: total charge              -1.000000000000 e     ::
         :::::::::::::::::::::::::::::::::::::::::::::::::::::


Property printout bound to 'properties.out'

           -------------------------------------------------
          | TOTAL ENERGY              -12.265636514810 Eh   |
          | GRADIENT NORM               0.030341125622 Eh/α |
          | HOMO-LUMO GAP               2.671383850236 eV   |
           -------------------------------------------------

------------------------------------------------------------------------
 * finished run on 2026/03/12 at 12:47:44.287     
------------------------------------------------------------------------
 total:
 * wall-time:     0 d,  0 h,  0 min,  0.104 sec
 *  cpu-time:     0 d,  0 h,  0 min,  0.514 sec
 * ratio c/w:     4.954 speedup
 SCF:
 * wall-time:     0 d,  0 h,  0 min,  0.082 sec
 *  cpu-time:     0 d,  0 h,  0 min,  0.453 sec
 * ratio c/w:     5.553 speedup


-------------------------   --------------------
FINAL SINGLE POINT ENERGY       -12.265636514810
-------------------------   --------------------


-------------
DIPOLE MOMENT
-------------
                                X             Y             Z
Total Dipole Moment    :      0.00000      -0.00000      -0.04700
                        -----------------------------------------
Magnitude (a.u.)       :      0.04700
Magnitude (Debye)      :      0.11946


------------------
CARTESIAN GRADIENT
------------------

   1   C   :    0.000000139   -0.000000020   -0.011035941
   2   H   :   -0.000000003    0.008906599    0.007720591
   3   H   :    0.007712835   -0.004453350    0.007720393
[...]
                  HL-Gap            0.1234606 Eh            3.3595 eV
             Fermi-level           -0.1613782 Eh           -4.3913 eV

 SCC (total)                   0 d,  0 h,  0 min,  0.047 sec
 SCC setup                      ...        0 min,  0.000 sec (  0.616%)
 Dispersion                     ...        0 min,  0.000 sec (  0.626%)
 classical contributions        ...        0 min,  0.000 sec (  0.583%)
 integral evaluation            ...        0 min,  0.044 sec ( 93.971%)
 iterations                     ...        0 min,  0.001 sec (  1.984%)
 molecular gradient             ...        0 min,  0.001 sec (  1.916%)
 printout                       ...        0 min,  0.000 sec (  0.253%)

         :::::::::::::::::::::::::::::::::::::::::::::::::::::
         ::                     SUMMARY                     ::
         :::::::::::::::::::::::::::::::::::::::::::::::::::::
         :: total energy             -12.272091358506 Eh    ::
         :: gradient norm              0.000006797948 Eh/a0 ::
         :: HOMO-LUMO gap              3.359534775801 eV    ::
         ::.................................................::
         :: SCC energy               -12.332892762246 Eh    ::
         :: -> isotropic ES            0.124252563581 Eh    ::
         :: -> anisotropic ES         -0.002739724678 Eh    ::
         :: -> anisotropic XC          0.002064272527 Eh    ::
         :: -> dispersion             -0.003282283434 Eh    ::
         :: repulsion energy           0.060801403740 Eh    ::
         :: add. restraining           0.000000000000 Eh    ::
         :: total charge              -1.000000000000 e     ::
         :::::::::::::::::::::::::::::::::::::::::::::::::::::

           ------------------------------------------------- 
          |                Numerical Hessian                |
           ------------------------------------------------- 
step length          :   0.00500
SCC accuracy         :   0.30000
Hessian scale factor :   1.00000
frozen atoms in %    :   0.00000    0
RMS gradient         :   0.00001
estimated CPU  time      0.00 min
estimated wall time      0.00 min

writing file <hessian>.

 projected vibrational frequencies (cm⁻¹)
eigval :       -0.00    -0.00    -0.00     0.00     0.00     0.00
eigval :     -351.61   187.33   197.95   197.97  1013.23  1024.58
eigval :     1024.65  1336.02  1336.10  3141.99  3232.37  3232.41

Property printout bound to 'properties.out'
Molecule has the following symmetry elements: (C3) 3*(sigma) 
It seems to be the C3v point group
imag cut-off (cm-1) :    5.00
 found            1  significant imaginary frequency
 writing imag mode distorted coords to xtbhess.xyz
 for further optimization.

           -------------------------------------------------
          | TOTAL ENERGY              -12.272091358506 Eh   |
          | TOTAL ENTHALPY            -12.230205517836 Eh   |
          | TOTAL FREE ENERGY         -12.264350118996 Eh   |
          | GRADIENT NORM               0.000006785258 Eh/α |
          | HOMO-LUMO GAP               3.359535847232 eV   |
           -------------------------------------------------

------------------------------------------------------------------------
 * finished run on 2026/03/12 at 12:47:45.670     
------------------------------------------------------------------------
 total:
 * wall-time:     0 d,  0 h,  0 min,  0.169 sec
 *  cpu-time:     0 d,  0 h,  0 min,  0.576 sec
 * ratio c/w:     3.417 speedup
 SCF:
 * wall-time:     0 d,  0 h,  0 min,  0.047 sec
 *  cpu-time:     0 d,  0 h,  0 min,  0.318 sec
 * ratio c/w:     6.788 speedup
 analytical hessian:
 * wall-time:     0 d,  0 h,  0 min,  0.067 sec
 *  cpu-time:     0 d,  0 h,  0 min,  0.165 sec
 * ratio c/w:     2.473 speedup


-------------------------   --------------------
FINAL SINGLE POINT ENERGY       -12.272091358500
-------------------------   --------------------


-------------
DIPOLE MOMENT
-------------
                                X             Y             Z
Total Dipole Moment    :     -0.00000      -0.00000      -0.68100
                        -----------------------------------------
Magnitude (a.u.)       :      0.68100
Magnitude (Debye)      :      1.73096


-----------------------
VIBRATIONAL FREQUENCIES
-----------------------

Scaling factor for frequencies =  1.000000000  (already applied!)

     0:       0.00 cm**-1
     1:       0.00 cm**-1
     2:       0.00 cm**-1
     3:       0.00 cm**-1
     4:       0.00 cm**-1
     5:       0.00 cm**-1
     6:    -351.61 cm**-1  ***imaginary mode***
     7:     187.33 cm**-1
     8:     197.95 cm**-1
     9:     197.96 cm**-1
    10:    1013.20 cm**-1
    11:    1024.55 cm**-1
    12:    1024.62 cm**-1
    13:    1335.99 cm**-1
    14:    1336.07 cm**-1
    15:    3141.90 cm**-1
    16:    3232.28 cm**-1
    17:    3232.32 cm**-1


------------
NORMAL MODES
------------

These modes are the Cartesian displacements weighted by the diagonal matrix
M(i,i)=1/sqrt(m[i]) where m[i] is the mass of the displaced atom
Thus, these vectors are normalized but *not* orthogonal

                  0          1          2          3          4          5    
      0       0.000000   0.000000   0.000000   0.000000   0.000000   0.000000
      1       0.000000   0.000000   0.000000   0.000000   0.000000   0.000000
      2       0.000000   0.000000   0.000000   0.000000   0.000000   0.000000
      3       0.000000   0.000000   0.000000   0.000000   0.000000   0.000000
      4       0.000000   0.000000   0.000000   0.000000   0.000000   0.000000
      5       0.000000   0.000000   0.000000   0.000000   0.000000   0.000000
      6       0.000000   0.000000   0.000000   0.000000   0.000000   0.000000
      7       0.000000   0.000000   0.000000   0.000000   0.000000   0.000000
      8       0.000000   0.000000   0.000000   0.000000   0.000000   0.000000
      9       0.000000   0.000000   0.000000   0.000000   0.000000   0.000000
     10       0.000000   0.000000   0.000000   0.000000   0.000000   0.000000
     11       0.000000   0.000000   0.000000   0.000000   0.000000   0.000000
     12       0.000000   0.000000   0.000000   0.000000   0.000000   0.000000
     13       0.000000   0.000000   0.000000   0.000000   0.000000   0.000000
     14       0.000000   0.000000   0.000000   0.000000   0.000000   0.000000
     15       0.000000   0.000000   0.000000   0.000000   0.000000   0.000000
     16       0.000000   0.000000   0.000000   0.000000   0.000000   0.000000
     17       0.000000   0.000000   0.000000   0.000000   0.000000   0.000000
                  6          7          8          9         10         11    
      0      -0.000004  -0.000005  -0.486568   0.000652  -0.000000   0.009881
      1       0.000159   0.007797   0.000652   0.486578   0.000008  -0.000000
      2      -0.986661   0.187691   0.000001  -0.000274  -0.009431  -0.000000
      3      -0.000001  -0.000005  -0.506698   0.000679   0.000002  -0.061498
      4       0.028980   0.009296   0.000661   0.492956   0.015755   0.000000
      5       0.026621   0.292791  -0.000028  -0.022224   0.576854   0.000005
      6       0.025048   0.001404  -0.496362   0.006638   0.013623  -0.029581
      7      -0.014054   0.007582  -0.005289   0.503241  -0.007906  -0.018428
      8       0.026625   0.293299   0.018681   0.010133   0.576974  -0.704849
      9      -0.025048  -0.001413  -0.496378  -0.005307  -0.013619  -0.029576
     10      -0.014053   0.007582   0.006639   0.503225  -0.007906   0.018429
     11       0.026623   0.293300  -0.018651   0.010183   0.576968   0.704851
     12       0.000000   0.000000   0.027055  -0.000036  -0.000000  -0.002142
     13      -0.000010  -0.000435  -0.000036  -0.027056  -0.000000   0.000000
     14       0.054309  -0.249070   0.000001   0.000520  -0.006140  -0.000000
     15       0.000001   0.000001   0.110633  -0.000148  -0.000000   0.007749
     16      -0.000042  -0.001780  -0.000148  -0.110634   0.000000  -0.000000
     17       0.137605   0.802927  -0.000004  -0.001713  -0.024038  -0.000000
                 12         13         14         15         16         17    
      0       0.000000   0.000010   0.097978   0.000000   0.000039  -0.098464
      1       0.009872  -0.097970   0.000010   0.000023  -0.098468  -0.000039
      2      -0.000001   0.000021  -0.000000   0.004133   0.000001   0.000000
      3      -0.000002  -0.000087  -0.807502  -0.000000   0.000019  -0.037951
      4      -0.018956  -0.058811   0.000011   0.576999   0.811353   0.000327
      5      -0.813948  -0.068803   0.000010  -0.015480  -0.025484  -0.000010
      6      -0.018418   0.375210  -0.157772   0.499834  -0.367843   0.598794
      7      -0.050839   0.590826  -0.375208  -0.288676   0.174466  -0.367644
      8       0.406888   0.034442   0.059634  -0.015490   0.012747  -0.022058
      9       0.018418  -0.375238  -0.157688  -0.499834   0.367363   0.599094
     10      -0.050836   0.590910   0.375083  -0.288676   0.174166   0.367778
     11       0.406893   0.034432  -0.059641  -0.015487   0.012726   0.022064
     12      -0.000000  -0.000000  -0.000051  -0.000000  -0.000000   0.000052
     13      -0.002141   0.000051  -0.000000   0.000000   0.000052   0.000000
     14       0.000000   0.000001  -0.000000  -0.000032  -0.000000   0.000000
     15       0.000000  -0.000000  -0.001084   0.000000  -0.000000   0.000194
     16       0.007750   0.001083  -0.000000   0.000001   0.000194   0.000000
     17       0.000004  -0.000013  -0.000000   0.000035   0.000000   0.000000


The first frequency considered to be a vibration is 7
The total number of vibrations considered is 11


--------------------------
THERMOCHEMISTRY AT 298.15K
--------------------------

Temperature         ...   298.15 K
Pressure            ...     1.00 atm
Total Mass          ...   177.39 AMU
Quasi RRHO          ...     True
Cut-Off Frequency   ...     1.00 cm^-1

Throughout the following assumptions are being made:
  (1) The electronic state is orbitally nondegenerate
  (2) There are no thermally accessible electronically excited states
  (3) Hindered rotations indicated by low frequency modes are not
      treated as such but are treated as vibrations and this may
      cause some error
  (4) All equations used are the standard statistical mechanics
      equations for an ideal gas
  (5) All vibrations are strictly harmonic

freq.     187.33  E(vib)   ...       0.36 
freq.     197.95  E(vib)   ...       0.35 
freq.     197.96  E(vib)   ...       0.35 
freq.    1013.20  E(vib)   ...       0.02 
freq.    1024.55  E(vib)   ...       0.02 
freq.    1024.62  E(vib)   ...       0.02 
freq.    1335.99  E(vib)   ...       0.01 
freq.    1336.07  E(vib)   ...       0.01 
freq.    3141.90  E(vib)   ...       0.00 
freq.    3232.28  E(vib)   ...       0.00 
freq.    3232.32  E(vib)   ...       0.00 

------------
INNER ENERGY
------------

The inner energy is: U= E(el) + E(ZPE) + E(vib) + E(rot) + E(trans)
    E(el)   - is the total energy from the electronic structure calculation
              = E(kin-el) + E(nuc-el) + E(el-el) + E(nuc-nuc)
    E(ZPE)  - the the zero temperature vibrational energy from the frequency calculation
    E(vib)  - the the finite temperature correction to E(ZPE) due to population
              of excited vibrational states
    E(rot)  - is the rotational thermal energy
    E(trans)- is the translational thermal energy

Summary of contributions to the inner energy U:
Electronic energy                ...    -12.27209136 Eh
Zero point energy                ...      0.03627791 Eh      22.76 kcal/mol
Thermal vibrational correction   ...      0.00183015 Eh       1.15 kcal/mol
Thermal rotational correction    ...      0.00141627 Eh       0.89 kcal/mol
Thermal translational correction ...      0.00141627 Eh       0.89 kcal/mol
-----------------------------------------------------------------------
Total thermal energy                    -12.23115076 Eh


Summary of corrections to the electronic energy:
(perhaps to be used in another calculation)
Total thermal correction                  0.00466269 Eh       2.93 kcal/mol
Non-thermal (ZPE) correction              0.03627791 Eh      22.76 kcal/mol
-----------------------------------------------------------------------
Total correction                          0.04094060 Eh      25.69 kcal/mol


--------
ENTHALPY
--------

The enthalpy is H = U + kB*T
                kB is Boltzmann's constant
Total thermal energy              ...    -12.23115076 Eh 
Thermal Enthalpy correction       ...      0.00094421 Eh       0.59 kcal/mol
-----------------------------------------------------------------------
Total Enthalpy                    ...    -12.23020655 Eh


WARNING (ORCA/SYM): The number of Z matrix atoms does not agree with
the number of centers in the basis set. The point group will therefore
be determined without considering basis set information.


Note: Rotational entropy computed according to Herzberg 
Infrared and Raman Spectra, Chapter V,1, Van Nostrand Reinhold, 1945 
Point Group:  C3v, Symmetry Number:   3  
Rotational constants in cm-1:     4.906704     0.024907     0.024907 

Vibrational entropy computed according to the QRRHO of S. Grimme
Chem.Eur.J. 2012 18 9955 using a reference frequency of 100.0 cm-1


-------
ENTROPY
-------

The entropy contributions are T*S = T*(S(el)+S(vib)+S(rot)+S(trans))
     S(el)   - electronic entropy
     S(vib)  - vibrational entropy
     S(rot)  - rotational entropy
     S(trans)- translational entropy
The entropies will be listed as multiplied by the temperature to get
units of energy

Electronic entropy                ...      0.00000000 Eh      0.00 kcal/mol
Vibrational entropy               ...      0.00326166 Eh      2.05 kcal/mol
Rotational entropy                ...      0.01120909 Eh      7.03 kcal/mol
Translational entropy             ...      0.01968301 Eh     12.35 kcal/mol
-----------------------------------------------------------------------
Final entropy term                ...      0.03415376 Eh     21.43 kcal/mol

In case the symmetry of your molecule has not been determined correctly
or in case you have a reason to use a different symmetry number we print 
out the resulting rotational entropy values for sn=1,12:

 non-linear molecules -----------------------------------
|  sn= 1 | S(rot)=       0.01224638 Eh      7.68 kcal/mol|
|  sn= 2 | S(rot)=       0.01159193 Eh      7.27 kcal/mol|
|  sn= 3 | S(rot)=       0.01120909 Eh      7.03 kcal/mol|
|  sn= 4 | S(rot)=       0.01093747 Eh      6.86 kcal/mol|
|  sn= 5 | S(rot)=       0.01072678 Eh      6.73 kcal/mol|
|  sn= 6 | S(rot)=       0.01055464 Eh      6.62 kcal/mol|
|  sn= 7 | S(rot)=       0.01040909 Eh      6.53 kcal/mol|
|  sn= 8 | S(rot)=       0.01028301 Eh      6.45 kcal/mol|
|  sn= 9 | S(rot)=       0.01017181 Eh      6.38 kcal/mol|
|  sn=10 | S(rot)=       0.01007233 Eh      6.32 kcal/mol|
|  sn=11 | S(rot)=       0.00998234 Eh      6.26 kcal/mol|
|  sn=12 | S(rot)=       0.00990018 Eh      6.21 kcal/mol|
 linear molecules ---------------------------------------
|  Dinfh | S(rot)=       0.00881229 Eh      5.53 kcal/mol|
|  Cinfv | S(rot)=       0.00946674 Eh      5.94 kcal/mol|
 --------------------------------------------------------


-------------------
GIBBS FREE ENERGY
-------------------

The Gibbs free energy is G = H - T*S

Total enthalpy                    ...    -12.23020655 Eh 
Total entropy correction          ...     -0.03415376 Eh    -21.43 kcal/mol
-----------------------------------------------------------------------
Final Gibbs free energy         ...    -12.26436031 Eh

For completeness - the Gibbs free energy minus the electronic energy
G-E(el)                           ...      0.00773105 Eh      4.85 kcal/mol


--------------------------------
SUGGESTED CITATIONS FOR THIS RUN
--------------------------------

Below you find a list of papers that are relevant to this ORCA run
We neither can nor want to force you to cite these papers, but we appreciate if you do
You receive ORCA, which is the product of decades of hard work by many enthusiastic individuals, for free
The only thing we kindly ask in return is that you cite our papers,
We deeply appreciate it, if you show your appreciation for ORCA by not just citing the generic ORCA reference.

Please note that relegating all ORCA citations to the supporting information does *not* help us.
SI sections are not indexed - citations you put there will not count into any citation statistics
But we need these citations in order to attract the funding resources that allow us to do what we are doing

Therefore, if you are a happy ORCA user, please consider citing a few of the papers listed below in the main body of your paper

In addition to the list printed below, the program has created the file sn2_i_cl.bibtex that contains the list in bibtex format
You can import this file easily into all common literature databanks and citation aid programs


List of essential papers. We consider these as the minimum necessary citations

  1. Bannwarth, C.; Ehlert, S.; Grimme, S.
     GFN2-xTB—An Accurate and Broadly Parametrized Self-Consistent Tight-Binding Quantum Chemical Method with Multipole Electrostatics and Density-Dependent Dispersion Contributions
     J. Chem. Theory Comput. 2019 15(3), 1652-1671
     doi.org/10.1021/acs.jctc.8b01176
  2. Neese, F.
     Software update: the ORCA program system, version 6.0
     WIRES Comput. Molec. Sci. 2025 15(1), e70019
     doi.org/10.1002/wcms.7019

List of papers to cite with high priority. The work reported in these papers was absolutely
necessary for this run to complete.
Our perspective: the developers of density functionals and basis sets usually get cited in chemistry papers
Good! But without the algorithms to do something with them, the functionals or basis sets would not do anything.
Hence, in our opinion, the algorithm design and method developments papers are equally worthy of getting cited

  1. Bykov, D.; Petrenko, T.; Izsak, R.; Kossmann, S.; Becker, U.; Valeev, E.; Neese, F.
     Efficient implementation of the analytic second derivatives of Hartree-Fock and hybrid DFT energies: a detailed analysis of different approximations
     Molec. Phys. 2015 113 , 1961-1977
     doi.org/10.1080/00268976.2015.1025114
  2. Bannwarth, C.; Caldeweyher, E.; Ehlert, S.; Hansen, A.; Pracht, P.; Seibert, J.; Spicher, S.; Grimme, S.
     Extended tight-binding quantum chemistry methods
     WIRES Comput. Molec. Sci. 2020 11(2), e1493
     doi.org/10.1002/wcms.1493

List of suggested additional citations. These are papers that are important in the 'surrounding' of 
of this run, or papers that preceded the highly important papers. If you like your results we are grateful for a citation.

  1. Neese, F.
     The ORCA program system
     WIRES Comput. Molec. Sci. 2012 2(1), 73-78
     doi.org/10.1002/wcms.81
  2. Neese, F.
     Software update: the ORCA program system, version 4.0
     WIRES Comput. Molec. Sci. 2018 8(1), 1-6
     doi.org/10.1002/wcms.1327
  3. Neese, F.; Wennmohs, F.; Becker, U.; Riplinger, C.
     The ORCA quantum chemistry program package
     J. Chem. Phys. 2020 152(22), 224108
     doi.org/10.1063/5.0004608
  4. Neese, F.
     Software update: The ORCA program system—Version 5.0
     WIRES Comput. Molec. Sci. 2022 12(1), e1606
     doi.org/10.1002/wcms.1606

List of optional additional citations

  1. Neese, F.
     Approximate second-order SCF convergence for spin unrestricted wavefunctions
     Chem. Phys. Lett. 2000 325(1-3), 93-98
     doi.org/10.1016/s0009-2614(00)00662-x

Timings for individual modules:

Sum of individual times          ...        1.735 sec (=   0.029 min)
Geometry relaxation              ...        0.025 sec (=   0.000 min)   1.5 %
XTB module                       ...        1.710 sec (=   0.028 min)  98.5 %
                             ****ORCA TERMINATED NORMALLY****
TOTAL RUN TIME: 0 days 0 hours 0 minutes 2 seconds 283 msec
