
                                 *****************
                                 * O   R   C   A *
                                 *****************

                                            #,                                       
                                            ###                                      
                                            ####                                     
                                            #####                                    
                                            ######                                   
                                           ########,                                 
                                     ,,################,,,,,                         
                               ,,#################################,,                 
                          ,,##########################################,,             
                       ,#########################################, ''#####,          
                    ,#############################################,,   '####,        
                  ,##################################################,,,,####,       
                ,###########''''           ''''###############################       
              ,#####''   ,,,,##########,,,,          '''####'''          '####       
            ,##' ,,,,###########################,,,                        '##       
           ' ,,###''''                  '''############,,,                           
         ,,##''                                '''############,,,,        ,,,,,,###''
      ,#''                                            '''#######################'''  
     '                                                          ''''####''''         
             ,#######,   #######,   ,#######,      ##                                
            ,#'     '#,  ##    ##  ,#'     '#,    #''#        ,####,    ,#,          
            ##       ##  ##   ,#'  ##            #'  '#       #'       ,# #          
            ##       ##  #######   ##           ,######,      #####,      #          
            '#,     ,#'  ##    ##  '#,     ,#' ,#      #,     #,   #      #          
             '#######'   ##     ##  '#######'  #'      '#     '####' #    #          



                #########################################################
                #                        -***-                          #
                #          Department of theory and spectroscopy        #
                #                                                       #
                #                      Frank Neese                      #
                #                                                       #
                #     Directorship, Architecture, Infrastructure        #
                #                    SHARK, DRIVERS                     #
                #        Core code/Algorithms in most modules           #
                #                                                       #
                #        Max Planck Institute fuer Kohlenforschung      #
                #                Kaiser Wilhelm Platz 1                 #
                #                 D-45470 Muelheim/Ruhr                 #
                #                      Germany                          #
                #                                                       #
                #                  All rights reserved                  #
                #                        -***-                          #
                #########################################################


                         Program Version 6.1.0  -  RELEASE   -
                                (GIT: $679e74b$)
                          ($2025-06-10 18:02:51 +0200$)


 With contributions from (in alphabetic order):
[Max-Planck-Institut fuer Kohlenforschung]                               
  Daniel Aravena         : Magnetic Suceptibility                        
  Michael Atanasov       : Ab Initio Ligand Field Theory (pilot matlab implementation)
  Alexander A. Auer      : GIAO ZORA, VPT2 properties, NMR spectrum      
  Ute Becker             : All parallelization in ORCA, NUMFREQ, NUMCALC 
  Giovanni Bistoni       : ED, misc. LED, open-shell LED, HFLD           
  Dmytro Bykov           : pre 5.0 version of the SCF Hessian            
  Marcos Casanova-Páez   : Triplet and SCS-CIS(D). UHF-(DLPNO)-IP/EA/STEOM-CCSD. UHF-CVS-IP/STEOM-CCSD   
  Vijay G. Chilkuri      : MRCI spin determinant printing, contributions to CSF-ICE 
  Pauline Colinet        : FMM embedding                                 
  Dipayan Datta          : RHF DLPNO-CCSD density                        
  Achintya Kumar Dutta   : EOM-CC, STEOM-CC                              
  Nicolas Foglia         : Exact transition moments, OPA infrastructure, MCD improvements    
  Dmitry Ganyushin       : Spin-Orbit,Spin-Spin,Magnetic field MRCI      
  Miquel Garcia-Rates    : C-PCM and meta-GGA Hessian, CCSD/C-PCM, Gaussian charge scheme 
  Tiago L. C. Gouveia    : GS-ROHF, GS-ROCIS                             
  Yang Guo               : DLPNO-NEVPT2, F12-NEVPT2, CIM, IAO-localization        
  Andreas Hansen         : Spin unrestricted coupled pair/coupled cluster methods 
  Ingolf Harden          : AUTO-CI MPn and infrastructure                
  Benjamin Helmich-Paris : MC-RPA, TRAH-(SCF,CASSCF), AVAS, COSX integrals, SCF dyn. polar., MC-PDFT, srDFT 
  Lee Huntington         : MR-EOM, pCC                                   
  Robert Izsak           : Overlap fitted RIJCOSX, COSX-SCS-MP3, EOM     
  Riya Kayal             : Wick's Theorem for AUTO-CI, AUTO-CI UHF-CCSDT 
  Emily Kempfer          : AUTO-CI RHF CISDT and CCSDT, approximate NEVPT4
  Christian Kollmar      : KDIIS, OOCD, Brueckner-CCSD(T), CCSD density, CASPT2, CASPT2-K, improved NEVPT2 
  Axel Koslowski         : Symmetry handling                             
  Simone Kossmann        : meta-GGA functionals, TD-DFT gradient, OOMP2, (MP2 Hessian; deprecated post 5.0) 
  Lucas Lang             : DCDCAS, Hyperfine gauge corrections, ICE-SOC+SSC
  Marvin Lechner         : AUTO-CI (C++ implementation), FIC-MRCC        
  Spencer Leger          : CASSCF response                               
  Dagmar Lenk            : GEPOL surface, SMD, ORCA-2-JSON               
  Dimitrios Liakos       : Extrapolation schemes; Compound Job, Property file
  Dimitrios Manganas     : Further ROCIS development; embedding schemes. LFT, Crystal Embedding 
  Dimitrios Pantazis     : SARC Basis sets                               
  Anastasios Papadopoulos: AUTO-CI, single reference methods and gradients 
  Taras Petrenko         : pre 6.0 DFT Hessian and TD-DFT gradient,  ECA, NRVS 
  Petra Pikulova         : Analytic Raman intensities                    
  Peter Pinski           : DLPNO-MP2, DLPNO-MP2 Gradient                 
  Shashank Vittal Rao    : ES-AILFT, MagRelax                            
  Christoph Reimann      : Effective Core Potentials                     
  Marius Retegan         : Local ZFS, SOC                                
  Christoph Riplinger    : Optimizer, TS searches, QM/MM, DLPNO-CCSD(T), (RO)-DLPNO pert. Triples 
  Michael Roemelt        : Original ROCIS implementation, recursive CI coupling coefficients
  Masaaki Saitow         : Open-shell DLPNO-CCSD energy and density      
  Barbara Sandhoefer     : DKH picture change effects                    
  Yorick L. A. Schmerwitz: GMF and freeze-and-release deltaSCF, NEB S-IDPP initial path                    
  Kantharuban Sivalingam : CASSCF convergence/infrastructure, NEVPT2, NEVPT3, NEVPT4(SD), FIC-MRCI and CEPA variants
  Bernardo de Souza      : ESD, SOC TD-DFT                               
  Georgi L. Stoychev     : AutoAux, RI-MP2 NMR, DLPNO-MP2 response, X2C  
  Van Anh Tran           : RI-MP2 g-tensors                              
  Willem Van den Heuvel  : Paramagnetic NMR                              
  Zikuan Wang            : NOTCH, Electric field optimization            
  Frank Wennmohs         : Technical directorship and infrastructure     
  Hang Xu                : AUTO-CI-Response properties                   
                                                                         
[FACCTs GmbH]                                                            
  Markus Bursch, Nicolas Foglia, Miquel Garcia-Rates, Ingolf Harden, Hagen Neugebauer, Anastasios Papadopoulos, 
  Christoph Riplinger, Bernardo de Souza, Georgi L. Stoychev                                                    
                                                                 
  APM, various basis sets, CI-OPT, improved COSX, DLPNO-Multilevel,           
  DOCKER, DRACO, updates on ESD, Fragmentator, GOAT, IRC, LR-CPCM, L-BFGS, MBIS, meta-GGA TD-DFT gradient, ML-optimized integration grids, 
  MM, NACMEs, nearIR, NEB, NEB-TS, NL-DFT gradient (VV10), 2- and 3-layer-ONIOM, interface openCOSMO-RS, QMMM,   
  Crystal-QMMM, RESP, rigid body optimization, SF, symmetry and pop. for TD-DFT, various functionals, SOLVATOR                                   
                                                                         
[Other institutions]                                                     
  V. Asgeirsson          : NEB                                           
  Christoph Bannwarth    : sTDA-DFT, sTD-DFT, PBEh-3c, B97-3c, D3        
  Giovanni Bistoni       : ETS/NOCV, ADLD/ADEX, COVALED                  
  Martin Brehm           : Molecular dynamics                            
  Ronald Cardenas        : ETS/NOCV                                      
  Martina Colucci        : COVALED                                       
  Sebastian Ehlert       : rSCAN, r2SCAN, r2SCAN-3c, D4, dhf basis sets  
  Marvin Friede          : D4 for Fr, Ra, Ac-Lr                          
  Lars Goerigk           : TD-DFT with DH, B97 family of functionals     
  Stefan Grimme          : VdW corrections, initial TS optimization, DFT functionals, gCP, sTDA/sTD-DF 
  Waldemar Hujo          : DFT-NL                                        
  H. Jonsson             : NEB                                           
  Holger Kruse           : gCP                                           
  Marcel Mueller         : wB97X-3c, vDZP basis set                      
  Hagen Neugebauer       : wr2SCAN, Native XTB                           
  Gianluca Regni         : ADLD/ADEX                                     
  Tobias Risthaus        : pre 6.0 range-separated hybrid DFT and stability analysis
  Lukas Wittmann         : regularized MP2, r2SCAN double-hybrids, wr2SCAN        
                                                                         
We gratefully acknowledge several colleagues who have allowed us to      
interface, adapt or use parts of their codes:                            
  Ed Valeev, F. Pavosevic, A. Kumar             : LibInt (2-el integral package), F12 methods 
  Garnet Chan, S. Sharma, J. Yang, R. Olivares  : DMRG                   
  Ulf Ekstrom                                   : XCFun DFT Library      
  Mihaly Kallay                                 : mrcc  (arbitrary order and MRCC methods)
  Frank Weinhold                                : gennbo (NPA and NBO analysis)           
  Simon Mueller                                 : openCOSMO-RS                            
  Christopher J. Cramer and Donald G. Truhlar   : smd solvation model                     
  S Lehtola, MJT Oliveira, MAL Marques          : LibXC Library                           
  Liviu Ungur et al                             : ANISO software                          


 Your calculation uses the libint2 library for the computation of 2-el integrals
 For citations please refer to: http://libint.valeyev.net

 Your ORCA version has been built with support for libXC version: 7.0.0
 For citations please refer to: https://libxc.gitlab.io

 This ORCA versions uses:
   CBLAS   interface :  Fast vector & matrix operations
   LAPACKE interface :  Fast linear algebra routines
   SCALAPACK package :  Parallel linear algebra routines
   Shared memory     :  Shared parallel matrices
   BLAS/LAPACK       :  OpenBLAS 0.3.29  USE64BITINT DYNAMIC_ARCH NO_AFFINITY SkylakeX SINGLE_THREADED
        Core in use  :  SkylakeX
   Copyright (c) 2011-2014, The OpenBLAS Project


  ***********************************
  * Starting time: Mon Mar 16 14:19:17 2026
  * Host name:     midway3-login4.rcc.local
  * Process ID:    123825
  * Working dir.:  /home/rzhu16/evans-polanyi-principle-validation/runs/sn2_i_br/TS_search
  ***********************************

Your calculation utilizes the semiempirical GFN2-xTB method
Please cite in your paper:
Bannwarth, C.; Ehlert S.; Grimme, S. J. Chem. Theory Comput. 2019, 15, 1652.
   

================================================================================

cite the ECPs for I  [Def2-ECP] as follows:
Ce-Yb(ecp-28): M. Dolg, H. Stoll, H.Preuss, J. Chem. Phys., 1989, 90, 1730-1734.
Y-Cd(ecp-28), Hf-Hg(ecp-46): D. Andrae,U. Haeussermann, M. Dolg, H. Stoll, H. Preuss, Theor. Chim. Acta, 1990, 77, 123-141.
In-Sb(ecp-28), Tl-Bi(ecp-46): B. Metz, H. Stoll, M. Dolg, J. Chem. Phys., 2000, 113, 2563-2569.
Te-Xe(ecp-28), Po-Rn(ecp-46): K. A. Peterson, D. Figgen, E. Goll, H. Stoll, M. Dolg, J. Chem. Phys., 2003, 119, 11113-11123.
Rb(ecp-28), Cs(ecp-46): T. Leininger, A. Nicklass, W. Kuechle, H. Stoll, M. Dolg, A. Bergner, Chem. Phys. Lett., 1996, 255, 274-280.
Sr(ecp-28), Ba(ecp-46): M. Kaupp, P. V. Schleyer, H. Stoll and H. Preuss, J. Chem. Phys., 1991, 94, 1360-1366.
La(ecp-46): M. Dolg, H. Stoll, A. Savin, H. Preuss, Theor. Chim. Acta, 1989, 75, 173-194.
Lu(ecp-28): X. Cao, M. Dolg, J. Chem. Phys., 2001, 115, 7348-7355.

ECP parameters for I  [Def2-ECP] have been obtained from:
TURBOMOLE (7.0.2)

================================================================================
                                        WARNINGS
                       Please study these warnings very carefully!
================================================================================


WARNING: Analytical Hessian for XTB is limited in the analysis of the data.
       : If you want to obtain extensive IR and deltaG analysis, please use ! XTB NumFreq. 


WARNING: Geometry Optimization
  ===> : Switching off AutoStart
         For restart on a previous wavefunction, please use MOREAD

WARNING: Found dipole moment calculation with XTB calculation
  ===> : Switching off dipole moment calculation


WARNING: Found frequency calculation in combination with XTB calculation
  ===> : Need to redirect dipole moment calculation to properties.out


================================================================================
                                       INPUT FILE
================================================================================
NAME = sn2_i_br.inp
|  1> ! XTB2 OptTS Freq PAL8
|  2> 
|  3> %geom
|  4>   Calc_Hess true
|  5>   Recalc_Hess 3
|  6>   MaxIter 200
|  7>   Trust -0.1
|  8> end
|  9> 
| 10> * xyz -1 1
| 11> C    0.000000   0.000000   0.098000
| 12> H    0.000000   1.085000   0.000000
| 13> H    0.939638  -0.542500   0.000000
| 14> H   -0.939638  -0.542500   0.000000
| 15> I    0.000000   0.000000   2.666000
| 16> Br   0.000000   0.000000  -2.715000
| 17> *
| 18> 
| 19>                          ****END OF INPUT****
================================================================================

                       *****************************
                       * Geometry Optimization Run *
                       *****************************

Geometry optimization settings:
Update method            Update   .... Bofill
Choice of coordinates    CoordSys .... (2022) Redundant Internals
Initial Hessian          InHess   .... Almloef's Model
Max. no of cycles        MaxIter  .... 200

Convergence Tolerances:
Energy Change            TolE     ....  5.0000e-06 Eh
Max. Gradient            TolMAXG  ....  3.0000e-04 Eh/bohr
RMS Gradient             TolRMSG  ....  1.0000e-04 Eh/bohr
Max. Displacement        TolMAXD  ....  4.0000e-03 bohr
RMS Displacement         TolRMSD  ....  2.0000e-03 bohr
Strict Convergence                .... False

------------------------------------------------------------------------------
                        ORCA OPTIMIZATION COORDINATE SETUP
------------------------------------------------------------------------------

The optimization will be done in redundant internal coordinates (2022)
Making redundant internal coordinates   ...  (2022 redundants) done
Following TS mode number                ...     0
Evaluating the initial hessian          ...  (Is done on the fly) done
Evaluating the coordinates              ...  done
Calculating the B-matrix                .... done
Calculating the G-matrix                .... done
The number of degrees of freedom        ....   20

    -----------------------------------------------------------------
                    Redundant Internal Coordinates


    -----------------------------------------------------------------
         Definition                    Initial Value    d2E/dq (diagonal element)
    -----------------------------------------------------------------
      1. B(H   1,C   0)                  1.0894         0.000000   
      2. B(H   2,C   0)                  1.0894         0.000000   
      3. B(H   3,C   0)                  1.0894         0.000000   
      4. B(I   4,H   2)                  2.8783         0.000000   
      5. B(I   4,H   1)                  2.8783         0.000000   
      6. B(I   4,H   3)                  2.8783         0.000000   
      7. B(I   4,C   0)                  2.5680         0.000000   
      8. B(Br  5,H   2)                  2.9238         0.000000   
      9. B(Br  5,H   1)                  2.9238         0.000000   
     10. B(Br  5,H   3)                  2.9238         0.000000   
     11. B(Br  5,C   0)                  2.8130         0.000000   
     12. A(H   1,C   0,H   3)          119.2001         0.000000   
     13. A(H   2,C   0,H   3)          119.2002         0.000000   
     14. A(H   1,C   0,I   4)           95.1611         0.000000   
     15. A(H   2,C   0,I   4)           95.1611         0.000000   
     16. A(H   3,C   0,I   4)           95.1611         0.000000   
     17. A(H   1,C   0,Br  5)           84.8389         0.000000   
     18. A(H   2,C   0,Br  5)           84.8389         0.000000   
     19. A(H   3,C   0,Br  5)           84.8389         0.000000   
     20. A(H   1,C   0,H   2)          119.2001         0.000000   
    -----------------------------------------------------------------

Number of atoms                         .... 6
Number of degrees of freedom            .... 20


         *************************************************************
         *                GEOMETRY OPTIMIZATION CYCLE   1            *
         *************************************************************
---------------------------------
CARTESIAN COORDINATES (ANGSTROEM)
---------------------------------
  C     0.000000    0.000000    0.098000
  H     0.000000    1.085000    0.000000
  H     0.939638   -0.542500    0.000000
  H    -0.939638   -0.542500    0.000000
  I     0.000000    0.000000    2.666000
  Br    0.000000    0.000000   -2.715000

----------------------------
CARTESIAN COORDINATES (A.U.)
----------------------------
  NO LB    ZA    FRAG    MASS        X           Y           Z
   0 C   6.0000    0    12.011    0.000000    0.000000    0.185193
   1 H   1.0000    0     1.008    0.000000    2.050353    0.000000
   2 H   1.0000    0     1.008    1.775658   -1.025176    0.000000
   3 H   1.0000    0     1.008   -1.775658   -1.025176    0.000000
   4 I  53.0000    0   126.900    0.000000    0.000000    5.038010
   5 Br 35.0000    0    79.900    0.000000    0.000000   -5.130606

      -----------------------------------------------------------      
     |                   =====================                   |     
     |                           x T B                           |     
     |                   =====================                   |     
     |                         S. Grimme                         |     
     |          Mulliken Center for Theoretical Chemistry        |     
     |                    University of Bonn                     |     
      -----------------------------------------------------------      

   * xtb version 6.7.1 (edcfbbe) compiled by 'albert@albert-system' on 2024-07-22

   xtb is free software: you can redistribute it and/or modify it under
   the terms of the GNU Lesser General Public License as published by
   the Free Software Foundation, either version 3 of the License, or
   (at your option) any later version.
   
   xtb is distributed in the hope that it will be useful,
   but WITHOUT ANY WARRANTY; without even the implied warranty of
   MERCHANTABILITY or FITNESS FOR A PARTICULAR PURPOSE.  See the
   GNU Lesser General Public License for more details.
   
   Cite this work as:
   * C. Bannwarth, E. Caldeweyher, S. Ehlert, A. Hansen, P. Pracht,
     J. Seibert, S. Spicher, S. Grimme, WIREs Comput. Mol. Sci., 2020, 11,
     e01493. DOI: 10.1002/wcms.1493
   
   for GFN2-xTB:
   * C. Bannwarth, S. Ehlert and S. Grimme., J. Chem. Theory Comput., 2019,
     15, 1652-1671. DOI: 10.1021/acs.jctc.8b01176
   for GFN1-xTB:
   * S. Grimme, C. Bannwarth, P. Shushkov, J. Chem. Theory Comput., 2017,
     13, 1989-2009. DOI: 10.1021/acs.jctc.7b00118
   for GFN0-xTB:
   * P. Pracht, E. Caldeweyher, S. Ehlert, S. Grimme, ChemRxiv, 2019, preprint.
     DOI: 10.26434/chemrxiv.8326202.v1
   for GFN-FF:
   * S. Spicher and S. Grimme, Angew. Chem. Int. Ed., 2020, 59, 15665-15673.
     DOI: 10.1002/anie.202004239
   
   for ALPB and GBSA implicit solvation:
   * S. Ehlert, M. Stahn, S. Spicher, S. Grimme, J. Chem. Theory Comput.,
     2021, 17, 4250-4261. DOI: 10.1021/acs.jctc.1c00471
   
   for ddCOSMO and CPCM-X implicit solvation:
   * M. Stahn, S. Ehlert, S. Grimme, J. Phys. Chem. A,
     2023, XX, XXXX-XXXX. DOI: 10.1021/acs.jpca.3c04382
   
   for DFT-D4:
   * E. Caldeweyher, C. Bannwarth and S. Grimme, J. Chem. Phys., 2017,
     147, 034112. DOI: 10.1063/1.4993215
   * E. Caldeweyher, S. Ehlert, A. Hansen, H. Neugebauer, S. Spicher,
     C. Bannwarth and S. Grimme, J. Chem. Phys., 2019, 150, 154122.
     DOI: 10.1063/1.5090222
   * E. Caldeweyher, J.-M. Mewes, S. Ehlert and S. Grimme, Phys. Chem. Chem. Phys.
     2020, 22, 8499-8512. DOI: 10.1039/D0CP00502A
   
   for sTDA-xTB:
   * S. Grimme and C. Bannwarth, J. Chem. Phys., 2016, 145, 054103.
     DOI: 10.1063/1.4959605
   
   in the mass-spec context:
   * V. Asgeirsson, C. Bauer and S. Grimme, Chem. Sci., 2017, 8, 4879.
     DOI: 10.1039/c7sc00601b
   * J. Koopman and S. Grimme, ACS Omega 2019, 4, 12, 15120-15133.
     DOI: 10.1021/acsomega.9b02011
   
   for metadynamics refer to:
   * S. Grimme, J. Chem. Theory Comput., 2019, 155, 2847-2862
     DOI: 10.1021/acs.jctc.9b00143
   
   for SPH calculations refer to:
   * S. Spicher and S. Grimme, J. Chem. Theory Comput., 2021, 17, 1701-1714
     DOI: 10.1021/acs.jctc.0c01306
   
   for ONIOM refer to:
   * C. Plett, A. Katbashev, S. Ehlert, S. Grimme, M. Bursch,
     Phys. Chem. Chem. Phys., 2023, 25, 17860-17868. DOI: 10.1039/D3CP02178E
   
   for DIPRO refer to:
   * J. Kohn, N. Gildemeister, S. Grimme, D. Fazzi, A. Hansen,
     J. Chem. Phys., 2023, just accepted.
   
   for PTB refer to:
   * S. Grimme, M. Mueller, A. Hansen, J. Chem. Phys., 2023, 158, 124111.
     DOI: 10.1063/5.0137838
   
   with help from (in alphabetical order)
   P. Atkinson, C. Bannwarth, F. Bohle, G. Brandenburg, E. Caldeweyher
   M. Checinski, S. Dohm, S. Ehlert, S. Ehrlich, I. Gerasimov, C. Hölzer
   A. Katbashev, J. Kohn, J. Koopman, C. Lavigne, S. Lehtola, F. März, M. Müller,
   F. Musil, H. Neugebauer, J. Pisarek, C. Plett, P. Pracht, F. Pultar,
   J. Seibert, P. Shushkov, S. Spicher, M. Stahn, M. Steiner, T. Strunk,
   J. Stückrath, T. Rose, and J. Unsleber
   
 * started run on 2026/03/16 at 14:19:17.573     
   ID    Z sym.   atoms
    1    6 C      1
    2    1 H      2-4
    3   53 I      5
    4   35 Br     6

           -------------------------------------------------
          |                Calculation Setup                |
           -------------------------------------------------

          program call               : /software/orca-6.1.0-el8-x86_64/bin/otool_xtb sn2_i_br_XTB.xyz --grad -c -1 -u 0 -P 8 --namespace sn2_i_br --input sn2_i_br_XTB.input.tmp --acc 0.200000
          hostname                   : midway3-login4.rcc.local
          calculation namespace      : sn2_i_br
          coordinate file            : sn2_i_br_XTB.xyz
          omp threads                :                     8


molecular fragmentation (1/2 indicates fragments):
111112
# atoms in fragment 1/2:     5     1
 fragment masses (1/2) :      141.94       79.90
CMA distance (Bohr)    :   9.651
constraining FC (au)   :  0.0500

           -------------------------------------------------
          |                 G F N 2 - x T B                 |
           -------------------------------------------------

        Reference                      10.1021/acs.jctc.8b01176
      * Hamiltonian:
        H0-scaling (s, p, d)           1.850000    2.230000    2.230000
        zeta-weighting                 0.500000
      * Dispersion:
        s8                             2.700000
        a1                             0.520000
        a2                             5.000000
        s9                             5.000000
      * Repulsion:
        kExp                           1.500000    1.000000
        rExp                           1.000000
      * Coulomb:
        alpha                          2.000000
        third order                    shell-resolved
        anisotropic                    true
        a3                             3.000000
        a5                             4.000000
        cn-shift                       1.200000
        cn-exp                         4.000000
        max-rad                        5.000000


          ...................................................
          :                      SETUP                      :
          :.................................................:
          :  # basis functions                  27          :
          :  # atomic orbitals                  25          :
          :  # shells                           11          :
          :  # electrons                        22          :
          :  max. iterations                   250          :
          :  Hamiltonian                  GFN2-xTB          :
          :  restarted?                      false          :
          :  GBSA solvation                  false          :
          :  PC potential                    false          :
          :  electronic temp.          300.0000000     K    :
          :  accuracy                    0.2000000          :
          :  -> integral cutoff          0.3198970E+02      :
          :  -> integral neglect         0.2000000E-08      :
          :  -> SCF convergence          0.2000000E-06 Eh   :
          :  -> wf. convergence          0.2000000E-04 e    :
          :  Broyden damping             0.4000000          :
          :  net charge                         -1          :
          :  unpaired electrons                  0          :
          ...................................................

 iter      E             dE          RMSdq      gap      omega  full diag
   1    -11.8400943 -0.118401E+02  0.974E+00    2.77       0.0  T
   2    -11.8646970 -0.246027E-01  0.415E+00    1.58       1.0  T
   3    -11.8637612  0.935784E-03  0.169E+00    1.72       1.0  T
   4    -11.8649323 -0.117110E-02  0.136E+00    1.47       1.0  T
   5    -11.8662725 -0.134022E-02  0.664E-01    1.65       1.0  T
   6    -11.8654820  0.790559E-03  0.820E-01    1.41       1.0  T
   7    -11.8656572 -0.175229E-03  0.761E-01    1.42       1.0  T
   8    -11.8665705 -0.913314E-03  0.220E-01    1.52       1.0  T
   9    -11.8666481 -0.775616E-04  0.925E-03    1.56       4.4  T
  10    -11.8666478  0.259765E-06  0.154E-02    1.57       2.7  T
  11    -11.8666480 -0.154437E-06  0.105E-02    1.56       3.9  T
  12    -11.8666481 -0.171237E-06  0.194E-03    1.56      21.0  T
  13    -11.8666481 -0.515560E-08  0.806E-04    1.56      50.7  T
  14    -11.8666481 -0.128214E-08  0.555E-05    1.56     736.2  T
  15    -11.8666481  0.161648E-11  0.564E-05    1.56     723.3  T

   *** convergence criteria satisfied after 15 iterations ***

         #    Occupation            Energy/Eh            Energy/eV
      -------------------------------------------------------------
         1        2.0000           -0.6181477             -16.8207
       ...           ...                  ...                  ...
         5        2.0000           -0.3590034              -9.7690
         6        2.0000           -0.2918491              -7.9416
         7        2.0000           -0.2482856              -6.7562
         8        2.0000           -0.2482856              -6.7562
         9        2.0000           -0.2065626              -5.6209
        10        2.0000           -0.1965630              -5.3488
        11        2.0000           -0.1965630              -5.3488 (HOMO)
        12                         -0.1391358              -3.7861 (LUMO)
        13                          0.2129848               5.7956
        14                          0.2217468               6.0340
        15                          0.2217468               6.0340
        16                          0.2279049               6.2016
       ...                                ...                  ...
        25                          0.3935488              10.7090
      -------------------------------------------------------------
                  HL-Gap            0.0574272 Eh            1.5627 eV
             Fermi-level           -0.1675337 Eh           -4.5588 eV

 SCC (total)                   0 d,  0 h,  0 min,  0.020 sec
 SCC setup                      ...        0 min,  0.000 sec (  1.073%)
 Dispersion                     ...        0 min,  0.000 sec (  0.284%)
 classical contributions        ...        0 min,  0.000 sec (  0.175%)
 integral evaluation            ...        0 min,  0.016 sec ( 80.984%)
 iterations                     ...        0 min,  0.003 sec ( 13.059%)
 molecular gradient             ...        0 min,  0.001 sec (  3.263%)
 printout                       ...        0 min,  0.000 sec (  1.073%)

         :::::::::::::::::::::::::::::::::::::::::::::::::::::
         ::                     SUMMARY                     ::
         :::::::::::::::::::::::::::::::::::::::::::::::::::::
         :: total energy             -11.815629434008 Eh    ::
         :: gradient norm              0.034912545745 Eh/a0 ::
         :: HOMO-LUMO gap              1.562674011761 eV    ::
         ::.................................................::
         :: SCC energy               -11.866649474201 Eh    ::
         :: -> isotropic ES            0.133312123025 Eh    ::
         :: -> anisotropic ES         -0.001584833534 Eh    ::
         :: -> anisotropic XC          0.004191627861 Eh    ::
         :: -> dispersion             -0.003188394160 Eh    ::
         :: repulsion energy           0.051020040193 Eh    ::
         :: add. restraining           0.000000000000 Eh    ::
         :: total charge              -1.000000000000 e     ::
         :::::::::::::::::::::::::::::::::::::::::::::::::::::


Property printout bound to 'properties.out'

           -------------------------------------------------
          | TOTAL ENERGY              -11.815629434008 Eh   |
          | GRADIENT NORM               0.034912545745 Eh/α |
          | HOMO-LUMO GAP               1.562674011761 eV   |
           -------------------------------------------------

------------------------------------------------------------------------
 * finished run on 2026/03/16 at 14:19:17.607     
------------------------------------------------------------------------
 total:
 * wall-time:     0 d,  0 h,  0 min,  0.034 sec
 *  cpu-time:     0 d,  0 h,  0 min,  0.224 sec
 * ratio c/w:     6.572 speedup
 SCF:
 * wall-time:     0 d,  0 h,  0 min,  0.020 sec
 *  cpu-time:     0 d,  0 h,  0 min,  0.148 sec
 * ratio c/w:     7.266 speedup


-------------------------   --------------------
FINAL SINGLE POINT ENERGY       -11.815629434010
-------------------------   --------------------


-------------
DIPOLE MOMENT
-------------
                                X             Y             Z
Total Dipole Moment    :     -0.00000       0.00000       0.83400
                        -----------------------------------------
Magnitude (a.u.)       :      0.83400
Magnitude (Debye)      :      2.11986


------------------
CARTESIAN GRADIENT
------------------

   1   C   :    0.000000000    0.000000175   -0.013638995
   2   H   :   -0.000000000    0.014350498    0.002896065
   3   H   :    0.012428115   -0.007175335    0.002896050
   4   H   :   -0.012428115   -0.007175335    0.002896050
   5   I   :    0.000000000   -0.000000002    0.016216288
   6   Br  :    0.000000000   -0.000000001   -0.011265458

Difference to translation invariance:
           :    0.0000000000    0.0000000000   -0.0000000000

Difference to rotation invariance:
           :    0.0000000033    0.0000000000    0.0000000000

Norm of the Cartesian gradient     ...    0.0349125457
RMS gradient                       ...    0.0082289659
MAX gradient                       ...    0.0162162876
      -----------------------------------------------------------      
     |                   =====================                   |     
     |                           x T B                           |     
     |                   =====================                   |     
     |                         S. Grimme                         |     
     |          Mulliken Center for Theoretical Chemistry        |     
     |                    University of Bonn                     |     
      -----------------------------------------------------------      

   * xtb version 6.7.1 (edcfbbe) compiled by 'albert@albert-system' on 2024-07-22

   xtb is free software: you can redistribute it and/or modify it under
   the terms of the GNU Lesser General Public License as published by
   the Free Software Foundation, either version 3 of the License, or
   (at your option) any later version.
   
   xtb is distributed in the hope that it will be useful,
   but WITHOUT ANY WARRANTY; without even the implied warranty of
   MERCHANTABILITY or FITNESS FOR A PARTICULAR PURPOSE.  See the
   GNU Lesser General Public License for more details.
   
   Cite this work as:
   * C. Bannwarth, E. Caldeweyher, S. Ehlert, A. Hansen, P. Pracht,
     J. Seibert, S. Spicher, S. Grimme, WIREs Comput. Mol. Sci., 2020, 11,
     e01493. DOI: 10.1002/wcms.1493
   
   for GFN2-xTB:
   * C. Bannwarth, S. Ehlert and S. Grimme., J. Chem. Theory Comput., 2019,
     15, 1652-1671. DOI: 10.1021/acs.jctc.8b01176
   for GFN1-xTB:
   * S. Grimme, C. Bannwarth, P. Shushkov, J. Chem. Theory Comput., 2017,
     13, 1989-2009. DOI: 10.1021/acs.jctc.7b00118
   for GFN0-xTB:
   * P. Pracht, E. Caldeweyher, S. Ehlert, S. Grimme, ChemRxiv, 2019, preprint.
     DOI: 10.26434/chemrxiv.8326202.v1
   for GFN-FF:
   * S. Spicher and S. Grimme, Angew. Chem. Int. Ed., 2020, 59, 15665-15673.
     DOI: 10.1002/anie.202004239
   
   for ALPB and GBSA implicit solvation:
   * S. Ehlert, M. Stahn, S. Spicher, S. Grimme, J. Chem. Theory Comput.,
     2021, 17, 4250-4261. DOI: 10.1021/acs.jctc.1c00471
   
   for ddCOSMO and CPCM-X implicit solvation:
   * M. Stahn, S. Ehlert, S. Grimme, J. Phys. Chem. A,
     2023, XX, XXXX-XXXX. DOI: 10.1021/acs.jpca.3c04382
   
   for DFT-D4:
   * E. Caldeweyher, C. Bannwarth and S. Grimme, J. Chem. Phys., 2017,
     147, 034112. DOI: 10.1063/1.4993215
   * E. Caldeweyher, S. Ehlert, A. Hansen, H. Neugebauer, S. Spicher,
     C. Bannwarth and S. Grimme, J. Chem. Phys., 2019, 150, 154122.
     DOI: 10.1063/1.5090222
   * E. Caldeweyher, J.-M. Mewes, S. Ehlert and S. Grimme, Phys. Chem. Chem. Phys.
     2020, 22, 8499-8512. DOI: 10.1039/D0CP00502A
   
   for sTDA-xTB:
   * S. Grimme and C. Bannwarth, J. Chem. Phys., 2016, 145, 054103.
     DOI: 10.1063/1.4959605
   
   in the mass-spec context:
   * V. Asgeirsson, C. Bauer and S. Grimme, Chem. Sci., 2017, 8, 4879.
     DOI: 10.1039/c7sc00601b
   * J. Koopman and S. Grimme, ACS Omega 2019, 4, 12, 15120-15133.
     DOI: 10.1021/acsomega.9b02011
   
   for metadynamics refer to:
   * S. Grimme, J. Chem. Theory Comput., 2019, 155, 2847-2862
     DOI: 10.1021/acs.jctc.9b00143
   
   for SPH calculations refer to:
   * S. Spicher and S. Grimme, J. Chem. Theory Comput., 2021, 17, 1701-1714
     DOI: 10.1021/acs.jctc.0c01306
   
   for ONIOM refer to:
   * C. Plett, A. Katbashev, S. Ehlert, S. Grimme, M. Bursch,
     Phys. Chem. Chem. Phys., 2023, 25, 17860-17868. DOI: 10.1039/D3CP02178E
   
   for DIPRO refer to:
   * J. Kohn, N. Gildemeister, S. Grimme, D. Fazzi, A. Hansen,
     J. Chem. Phys., 2023, just accepted.
   
   for PTB refer to:
   * S. Grimme, M. Mueller, A. Hansen, J. Chem. Phys., 2023, 158, 124111.
     DOI: 10.1063/5.0137838
   
   with help from (in alphabetical order)
   P. Atkinson, C. Bannwarth, F. Bohle, G. Brandenburg, E. Caldeweyher
   M. Checinski, S. Dohm, S. Ehlert, S. Ehrlich, I. Gerasimov, C. Hölzer
   A. Katbashev, J. Kohn, J. Koopman, C. Lavigne, S. Lehtola, F. März, M. Müller,
   F. Musil, H. Neugebauer, J. Pisarek, C. Plett, P. Pracht, F. Pultar,
   J. Seibert, P. Shushkov, S. Spicher, M. Stahn, M. Steiner, T. Strunk,
   J. Stückrath, T. Rose, and J. Unsleber
   
 * started run on 2026/03/16 at 14:19:17.616     
   ID    Z sym.   atoms
    1    6 C      1
    2    1 H      2-4
    3   53 I      5
    4   35 Br     6

           -------------------------------------------------
          |                Calculation Setup                |
           -------------------------------------------------

          program call               : /software/orca-6.1.0-el8-x86_64/bin/otool_xtb sn2_i_br_XTB.xyz --hess -c -1 -u 0 -P 8 --namespace sn2_i_br --input sn2_i_br_XTB.input.tmp --acc 0.200000
          hostname                   : midway3-login4.rcc.local
          calculation namespace      : sn2_i_br
          coordinate file            : sn2_i_br_XTB.xyz
          omp threads                :                     8


molecular fragmentation (1/2 indicates fragments):
111112
# atoms in fragment 1/2:     5     1
 fragment masses (1/2) :      141.94       79.90
CMA distance (Bohr)    :   9.651
constraining FC (au)   :  0.0500

           -------------------------------------------------
          |                 G F N 2 - x T B                 |
           -------------------------------------------------

        Reference                      10.1021/acs.jctc.8b01176
      * Hamiltonian:
        H0-scaling (s, p, d)           1.850000    2.230000    2.230000
        zeta-weighting                 0.500000
      * Dispersion:
        s8                             2.700000
        a1                             0.520000
        a2                             5.000000
        s9                             5.000000
      * Repulsion:
        kExp                           1.500000    1.000000
        rExp                           1.000000
      * Coulomb:
        alpha                          2.000000
        third order                    shell-resolved
        anisotropic                    true
        a3                             3.000000
        a5                             4.000000
        cn-shift                       1.200000
        cn-exp                         4.000000
        max-rad                        5.000000

q/qsh data taken from xtbrestart
CAMM data taken from xtbrestart

          ...................................................
          :                      SETUP                      :
          :.................................................:
          :  # basis functions                  27          :
          :  # atomic orbitals                  25          :
          :  # shells                           11          :
          :  # electrons                        22          :
          :  max. iterations                   250          :
          :  Hamiltonian                  GFN2-xTB          :
          :  restarted?                       true          :
          :  GBSA solvation                  false          :
          :  PC potential                    false          :
          :  electronic temp.          300.0000000     K    :
          :  accuracy                    0.2000000          :
          :  -> integral cutoff          0.3198970E+02      :
          :  -> integral neglect         0.2000000E-08      :
          :  -> SCF convergence          0.2000000E-06 Eh   :
          :  -> wf. convergence          0.2000000E-04 e    :
          :  Broyden damping             0.4000000          :
          :  net charge                         -1          :
          :  unpaired electrons                  0          :
          ...................................................

 iter      E             dE          RMSdq      gap      omega  full diag
   1    -11.8666481 -0.118666E+02  0.113E-06    1.56       0.0  T
   2    -11.8666481 -0.888178E-14  0.503E-07    1.56   81205.2  T
   3    -11.8666481  0.710543E-14  0.325E-07    1.56  100000.0  T

   *** convergence criteria satisfied after 3 iterations ***

         #    Occupation            Energy/Eh            Energy/eV
      -------------------------------------------------------------
         1        2.0000           -0.6181474             -16.8206
       ...           ...                  ...                  ...
         5        2.0000           -0.3590036              -9.7690
         6        2.0000           -0.2918494              -7.9416
         7        2.0000           -0.2482858              -6.7562
         8        2.0000           -0.2482858              -6.7562
         9        2.0000           -0.2065624              -5.6209
        10        2.0000           -0.1965627              -5.3487
        11        2.0000           -0.1965627              -5.3487 (HOMO)
        12                         -0.1391360              -3.7861 (LUMO)
        13                          0.2129846               5.7956
        14                          0.2217465               6.0340
        15                          0.2217465               6.0340
        16                          0.2279046               6.2016
       ...                                ...                  ...
        25                          0.3935486              10.7090
      -------------------------------------------------------------
                  HL-Gap            0.0574267 Eh            1.5627 eV
             Fermi-level           -0.1675337 Eh           -4.5588 eV

 SCC (total)                   0 d,  0 h,  0 min,  0.026 sec
 SCC setup                      ...        0 min,  0.000 sec (  0.797%)
 Dispersion                     ...        0 min,  0.000 sec (  0.278%)
 classical contributions        ...        0 min,  0.000 sec (  0.153%)
 integral evaluation            ...        0 min,  0.024 sec ( 91.919%)
 iterations                     ...        0 min,  0.001 sec (  3.677%)
 molecular gradient             ...        0 min,  0.001 sec (  2.487%)
 printout                       ...        0 min,  0.000 sec (  0.617%)

         :::::::::::::::::::::::::::::::::::::::::::::::::::::
         ::                     SUMMARY                     ::
         :::::::::::::::::::::::::::::::::::::::::::::::::::::
         :: total energy             -11.815629434014 Eh    ::
         :: gradient norm              0.034912259315 Eh/a0 ::
         :: HOMO-LUMO gap              1.562661236877 eV    ::
         ::.................................................::
         :: SCC energy               -11.866649474207 Eh    ::
         :: -> isotropic ES            0.133311741010 Eh    ::
         :: -> anisotropic ES         -0.001584807305 Eh    ::
         :: -> anisotropic XC          0.004191633797 Eh    ::
         :: -> dispersion             -0.003188394056 Eh    ::
         :: repulsion energy           0.051020040193 Eh    ::
         :: add. restraining           0.000000000000 Eh    ::
         :: total charge              -1.000000000000 e     ::
         :::::::::::::::::::::::::::::::::::::::::::::::::::::

           ------------------------------------------------- 
          |                Numerical Hessian                |
           ------------------------------------------------- 
step length          :   0.00500
SCC accuracy         :   0.30000
Hessian scale factor :   1.00000
frozen atoms in %    :   0.00000    0
RMS gradient         :   0.03491 !! INCOMPLETELY OPTIMIZED GEOMETRY !!
estimated CPU  time      0.00 min
estimated wall time      0.00 min

writing file <hessian>.

 projected vibrational frequencies (cm⁻¹)
eigval :       -0.00    -0.00     0.00     0.00     0.00     0.00
eigval :     -209.02    89.48   161.11   161.13   919.30   919.31
eigval :      989.70  1381.21  1381.21  2929.61  3008.64  3008.64

Property printout bound to 'properties.out'
Molecule has the following symmetry elements: (C3) 3*(sigma) 
It seems to be the C3v point group
imag cut-off (cm-1) :    5.00
 found            1  significant imaginary frequency
 writing imag mode distorted coords to xtbhess.xyz
 for further optimization.

           -------------------------------------------------
          | TOTAL ENERGY              -11.815629434014 Eh   |
          | TOTAL ENTHALPY            -11.775637244716 Eh   |
          | TOTAL FREE ENERGY         -11.811868691266 Eh   |
          | GRADIENT NORM               0.034912259159 Eh/α |
          | HOMO-LUMO GAP               1.562661259344 eV   |
           -------------------------------------------------
########################################################################
[WARNING] Runtime exception occurred
-1- hessian_numhess: Hessian on incompletely optimized geometry!
########################################################################

------------------------------------------------------------------------
 * finished run on 2026/03/16 at 14:19:17.674     
------------------------------------------------------------------------
 total:
 * wall-time:     0 d,  0 h,  0 min,  0.057 sec
 *  cpu-time:     0 d,  0 h,  0 min,  0.323 sec
 * ratio c/w:     5.625 speedup
 SCF:
 * wall-time:     0 d,  0 h,  0 min,  0.026 sec
 *  cpu-time:     0 d,  0 h,  0 min,  0.103 sec
 * ratio c/w:     3.896 speedup
 analytical hessian:
 * wall-time:     0 d,  0 h,  0 min,  0.017 sec
 *  cpu-time:     0 d,  0 h,  0 min,  0.131 sec
 * ratio c/w:     7.890 speedup


-------------------------   --------------------
FINAL SINGLE POINT ENERGY       -11.815629434010
-------------------------   --------------------


-------------
DIPOLE MOMENT
-------------
                                X             Y             Z
Total Dipole Moment    :      0.00000       0.00000       0.83400
                        -----------------------------------------
Magnitude (a.u.)       :      0.83400
Magnitude (Debye)      :      2.11986


-----------------------
VIBRATIONAL FREQUENCIES
-----------------------

Scaling factor for frequencies =  1.000000000  (already applied!)

     0:       0.00 cm**-1
     1:       0.00 cm**-1
     2:       0.00 cm**-1
     3:       0.00 cm**-1
     4:       0.00 cm**-1
     5:       0.00 cm**-1
     6:    -209.02 cm**-1  ***imaginary mode***
     7:      89.49 cm**-1
     8:     161.11 cm**-1
     9:     161.12 cm**-1
    10:     919.28 cm**-1
    11:     919.28 cm**-1
    12:     989.67 cm**-1
    13:    1381.17 cm**-1
    14:    1381.18 cm**-1
    15:    2929.52 cm**-1
    16:    3008.55 cm**-1
    17:    3008.56 cm**-1


------------
NORMAL MODES
------------

These modes are the Cartesian displacements weighted by the diagonal matrix
M(i,i)=1/sqrt(m[i]) where m[i] is the mass of the displaced atom
Thus, these vectors are normalized but *not* orthogonal

                  0          1          2          3          4          5    
      0       0.000000   0.000000   0.000000   0.000000   0.000000   0.000000
      1       0.000000   0.000000   0.000000   0.000000   0.000000   0.000000
      2       0.000000   0.000000   0.000000   0.000000   0.000000   0.000000
      3       0.000000   0.000000   0.000000   0.000000   0.000000   0.000000
      4       0.000000   0.000000   0.000000   0.000000   0.000000   0.000000
      5       0.000000   0.000000   0.000000   0.000000   0.000000   0.000000
      6       0.000000   0.000000   0.000000   0.000000   0.000000   0.000000
      7       0.000000   0.000000   0.000000   0.000000   0.000000   0.000000
      8       0.000000   0.000000   0.000000   0.000000   0.000000   0.000000
      9       0.000000   0.000000   0.000000   0.000000   0.000000   0.000000
     10       0.000000   0.000000   0.000000   0.000000   0.000000   0.000000
     11       0.000000   0.000000   0.000000   0.000000   0.000000   0.000000
     12       0.000000   0.000000   0.000000   0.000000   0.000000   0.000000
     13       0.000000   0.000000   0.000000   0.000000   0.000000   0.000000
     14       0.000000   0.000000   0.000000   0.000000   0.000000   0.000000
     15       0.000000   0.000000   0.000000   0.000000   0.000000   0.000000
     16       0.000000   0.000000   0.000000   0.000000   0.000000   0.000000
     17       0.000000   0.000000   0.000000   0.000000   0.000000   0.000000
                  6          7          8          9         10         11    
      0      -0.000001  -0.000005  -0.482726  -0.000013  -0.037335  -0.000153
      1       0.000106   0.000319   0.000013  -0.482737  -0.000153   0.037327
      2       0.844600   0.334771  -0.000001   0.000090   0.000000   0.000005
      3      -0.000004  -0.000006  -0.502698  -0.000014   0.090040   0.000368
      4      -0.037347  -0.019500   0.000013  -0.496975   0.000177  -0.043165
      5       0.301978   0.076864   0.000003  -0.098780   0.003325  -0.809820
      6      -0.032417  -0.017159  -0.498379  -0.002517   0.054956  -0.020066
      7       0.018884   0.010282  -0.002480  -0.501237   0.020627  -0.078202
      8       0.301936   0.076757  -0.085576   0.049418   0.699631   0.407741
      9       0.032411   0.017147  -0.498379   0.002491   0.054784   0.020517
     10       0.018885   0.010282   0.002507  -0.501237  -0.019984  -0.078366
     11       0.301938   0.076760   0.085575   0.049422  -0.702956   0.401982
     12       0.000000   0.000000   0.029657   0.000001   0.002992   0.000012
     13      -0.000007  -0.000020  -0.000001   0.029658   0.000012  -0.002992
     14      -0.030961  -0.520477   0.000000  -0.000019  -0.000000   0.000000
     15       0.000000   0.000000   0.044380   0.000001  -0.001660  -0.000007
     16      -0.000010  -0.000030  -0.000001   0.044381  -0.000007   0.001660
     17      -0.089220   0.773408  -0.000000   0.000016   0.000000   0.000000
                 12         13         14         15         16         17    
      0       0.000000  -0.000028   0.093861   0.000000  -0.097580  -0.000038
      1       0.000006   0.093859   0.000028   0.000024   0.000038  -0.097581
      2       0.056402   0.000002  -0.000000   0.010531   0.000000   0.000003
      3      -0.000002   0.000240  -0.801575  -0.000000  -0.039481  -0.000011
      4      -0.048931   0.061874   0.000023   0.575401  -0.000308   0.808353
      5      -0.574280   0.120139   0.000039  -0.044894   0.000029  -0.074427
      6      -0.042402  -0.373910  -0.154062   0.498502   0.596434  -0.366722
      7       0.024446  -0.585567  -0.374082  -0.287875  -0.367135   0.172242
      8      -0.574363  -0.060041   0.104034  -0.044920  -0.064459   0.037174
      9       0.042398   0.373996  -0.153835  -0.498502   0.596159   0.367179
     10       0.024446  -0.585795   0.373733  -0.287874   0.366997   0.172519
     11      -0.574363  -0.059982  -0.104069  -0.044916   0.064427   0.037221
     12       0.000000  -0.000000   0.000091  -0.000000   0.000028   0.000000
     13       0.000000   0.000091   0.000000   0.000000  -0.000000   0.000028
     14       0.005577  -0.000001   0.000000   0.000028   0.000000   0.000000
     15       0.000000   0.000000  -0.000257   0.000000   0.000077   0.000000
     16      -0.000000  -0.000257  -0.000000   0.000000  -0.000000   0.000077
     17       0.004401  -0.000000   0.000000   0.000072   0.000000   0.000000


The first frequency considered to be a vibration is 7
The total number of vibrations considered is 11


--------------------------
THERMOCHEMISTRY AT 298.15K
--------------------------

Temperature         ...   298.15 K
Pressure            ...     1.00 atm
Total Mass          ...   221.84 AMU
Quasi RRHO          ...     True
Cut-Off Frequency   ...     1.00 cm^-1

Throughout the following assumptions are being made:
  (1) The electronic state is orbitally nondegenerate
  (2) There are no thermally accessible electronically excited states
  (3) Hindered rotations indicated by low frequency modes are not
      treated as such but are treated as vibrations and this may
      cause some error
  (4) All equations used are the standard statistical mechanics
      equations for an ideal gas
  (5) All vibrations are strictly harmonic

freq.      89.49  E(vib)   ...       0.47 
freq.     161.11  E(vib)   ...       0.39 
freq.     161.12  E(vib)   ...       0.39 
freq.     919.28  E(vib)   ...       0.03 
freq.     919.28  E(vib)   ...       0.03 
freq.     989.67  E(vib)   ...       0.02 
freq.    1381.17  E(vib)   ...       0.01 
freq.    1381.18  E(vib)   ...       0.01 
freq.    2929.52  E(vib)   ...       0.00 
freq.    3008.55  E(vib)   ...       0.00 
freq.    3008.56  E(vib)   ...       0.00 

------------
INNER ENERGY
------------

The inner energy is: U= E(el) + E(ZPE) + E(vib) + E(rot) + E(trans)
    E(el)   - is the total energy from the electronic structure calculation
              = E(kin-el) + E(nuc-el) + E(el-el) + E(nuc-nuc)
    E(ZPE)  - the the zero temperature vibrational energy from the frequency calculation
    E(vib)  - the the finite temperature correction to E(ZPE) due to population
              of excited vibrational states
    E(rot)  - is the rotational thermal energy
    E(trans)- is the translational thermal energy

Summary of contributions to the inner energy U:
Electronic energy                ...    -11.81562943 Eh
Zero point energy                ...      0.03405616 Eh      21.37 kcal/mol
Thermal vibrational correction   ...      0.00215829 Eh       1.35 kcal/mol
Thermal rotational correction    ...      0.00141627 Eh       0.89 kcal/mol
Thermal translational correction ...      0.00141627 Eh       0.89 kcal/mol
-----------------------------------------------------------------------
Total thermal energy                    -11.77658244 Eh


Summary of corrections to the electronic energy:
(perhaps to be used in another calculation)
Total thermal correction                  0.00499084 Eh       3.13 kcal/mol
Non-thermal (ZPE) correction              0.03405616 Eh      21.37 kcal/mol
-----------------------------------------------------------------------
Total correction                          0.03904700 Eh      24.50 kcal/mol


--------
ENTHALPY
--------

The enthalpy is H = U + kB*T
                kB is Boltzmann's constant
Total thermal energy              ...    -11.77658244 Eh 
Thermal Enthalpy correction       ...      0.00094421 Eh       0.59 kcal/mol
-----------------------------------------------------------------------
Total Enthalpy                    ...    -11.77563823 Eh


WARNING (ORCA/SYM): The number of Z matrix atoms does not agree with
the number of centers in the basis set. The point group will therefore
be determined without considering basis set information.


Note: Rotational entropy computed according to Herzberg 
Infrared and Raman Spectra, Chapter V,1, Van Nostrand Reinhold, 1945 
Point Group:  C3v, Symmetry Number:   3  
Rotational constants in cm-1:     4.735387     0.011829     0.011829 

Vibrational entropy computed according to the QRRHO of S. Grimme
Chem.Eur.J. 2012 18 9955 using a reference frequency of 100.0 cm-1


-------
ENTROPY
-------

The entropy contributions are T*S = T*(S(el)+S(vib)+S(rot)+S(trans))
     S(el)   - electronic entropy
     S(vib)  - vibrational entropy
     S(rot)  - rotational entropy
     S(trans)- translational entropy
The entropies will be listed as multiplied by the temperature to get
units of energy

Electronic entropy                ...      0.00000000 Eh      0.00 kcal/mol
Vibrational entropy               ...      0.00411922 Eh      2.58 kcal/mol
Rotational entropy                ...      0.01192890 Eh      7.49 kcal/mol
Translational entropy             ...      0.01999968 Eh     12.55 kcal/mol
-----------------------------------------------------------------------
Final entropy term                ...      0.03604779 Eh     22.62 kcal/mol

In case the symmetry of your molecule has not been determined correctly
or in case you have a reason to use a different symmetry number we print 
out the resulting rotational entropy values for sn=1,12:

 non-linear molecules -----------------------------------
|  sn= 1 | S(rot)=       0.01296619 Eh      8.14 kcal/mol|
|  sn= 2 | S(rot)=       0.01231173 Eh      7.73 kcal/mol|
|  sn= 3 | S(rot)=       0.01192890 Eh      7.49 kcal/mol|
|  sn= 4 | S(rot)=       0.01165727 Eh      7.32 kcal/mol|
|  sn= 5 | S(rot)=       0.01144658 Eh      7.18 kcal/mol|
|  sn= 6 | S(rot)=       0.01127444 Eh      7.07 kcal/mol|
|  sn= 7 | S(rot)=       0.01112889 Eh      6.98 kcal/mol|
|  sn= 8 | S(rot)=       0.01100282 Eh      6.90 kcal/mol|
|  sn= 9 | S(rot)=       0.01089161 Eh      6.83 kcal/mol|
|  sn=10 | S(rot)=       0.01079213 Eh      6.77 kcal/mol|
|  sn=11 | S(rot)=       0.01070214 Eh      6.72 kcal/mol|
|  sn=12 | S(rot)=       0.01061998 Eh      6.66 kcal/mol|
 linear molecules ---------------------------------------
|  Dinfh | S(rot)=       0.00951531 Eh      5.97 kcal/mol|
|  Cinfv | S(rot)=       0.01016977 Eh      6.38 kcal/mol|
 --------------------------------------------------------


-------------------
GIBBS FREE ENERGY
-------------------

The Gibbs free energy is G = H - T*S

Total enthalpy                    ...    -11.77563823 Eh 
Total entropy correction          ...     -0.03604779 Eh    -22.62 kcal/mol
-----------------------------------------------------------------------
Final Gibbs free energy         ...    -11.81168602 Eh

For completeness - the Gibbs free energy minus the electronic energy
G-E(el)                           ...      0.00394341 Eh      2.47 kcal/mol

Actual Hessian File stored as sn2_i_br.001.hess
------------------------------------------------------------------------------
                         ORCA GEOMETRY RELAXATION STEP
------------------------------------------------------------------------------

Reading the OPT-File                    .... done
Getting information on internals        .... done
Copying old internal coords+grads       .... done
Making the new internal coordinates     .... (2022 redundants) done
Validating the new internal coordinates .... (2022 redundants) done
Calculating the B-matrix                .... done
Calculating the G,G- and P matrices     .... done
Transforming gradient to internals      .... done
Projecting the internal gradient        .... done
Number of atoms                         ....   6
Number of internal coordinates          ....  20
Current Energy                          ....   -11.815629434 Eh
Current gradient norm                   ....     0.034912546 Eh/bohr
Maximum allowed component of the step   ....  0.300
Current trust radius                    ....  0.100
Evaluating the initial hessian          ....  (read) 
(Reading Exact Hessian)...  
InHessName: sn2_i_br.hess	The file <sn2_i_br.hess> is opened as a .hess file
done
done
Projecting the Hessian                  .... done
Diagonalizing the Hessian               .... done
Dimension of the hessian                ....  20
Lowest eigenvalues of the Hessian:
 -0.005870794  0.007611519  0.011919785  0.011921005  0.018342844
Hessian has   1 negative eigenvalues
Taking P-RFO step
Searching for lambda that maximizes along the lowest mode
TS mode is mode number   0 with eigenvalue  -0.00587079 and components:
   1.   -0.00706130
   2.   -0.00705796
   3.   -0.00706001
   4.    0.15979871
   5.    0.15974677
   6.    0.15979769
   7.    0.50769498
   8.   -0.21730906
   9.   -0.21742353
  10.   -0.21731124
  11.   -0.58866581
  12.    0.05172727
  13.    0.05168144
  14.   -0.16796498
  15.   -0.16793737
  16.   -0.16793741
  17.    0.16790854
  18.    0.16796601
  19.    0.16796521
  20.    0.05172507

Lambda that maximizes along the TS mode:       0.00341828
Searching for lambda that minimizes along all other modes
In cycle   1: lambdaN =  -0.00587581   step =   0.00587581
In cycle   2: lambdaN =  -0.00953083   step =   0.00365502
In cycle   3: lambdaN =  -0.00996068   step =   0.00042985
In cycle   4: lambdaN =  -0.00996433   step =   0.00000365
In cycle   5: lambdaN =  -0.00996433   step =   0.00000000
Lambda that minimizes along all other modes:  -0.00996433
Calculated stepsize too large (   0.6129 >    0.1000). Scaled with    0.1631.
The final length of the internal step   ....       0.1000
Converting the step to Cartesian space:
 Initial RMS(Int)=    0.0223606798
Transforming coordinates:
 Iter   0:  RMS(Cart)=    0.0112466053 RMS(Int)=    0.0222934319
done
Storing new coordinates                 .... done

                                .--------------------.
          ----------------------|Geometry convergence|-------------------------
          Item                value                   Tolerance       Converged
          ---------------------------------------------------------------------
          RMS gradient        0.0052679232            0.0001000000      NO
          MAX gradient        0.0106160790            0.0003000000      NO
          RMS step            0.0223606798            0.0020000000      NO
          MAX step            0.0489438672            0.0040000000      NO
          -------------------------------------------------------------------------
          ........................................................
          Max(Bonds)      0.0259      Max(Angles)    0.24
          Max(Dihed)        0.00      Max(Improp)    0.00
          ---------------------------------------------------------------------

The optimization has not yet converged - more geometry cycles are needed


    ---------------------------------------------------------------------------
                         Redundant Internal Coordinates
                            (Angstroem and degrees)

        Definition                    Value    dE/dq     Step     New-Value  comp.(TS mode)
    ----------------------------------------------------------------------------
     1. B(H   1,C   0)                1.0894  0.010616 -0.0034    1.0860   
     2. B(H   2,C   0)                1.0894  0.010616 -0.0034    1.0860   
     3. B(H   3,C   0)                1.0894  0.010616 -0.0034    1.0860   
     4. B(I   4,H   2)                2.8783  0.004154 -0.0041    2.8742   
     5. B(I   4,H   1)                2.8783  0.004154 -0.0041    2.8742   
     6. B(I   4,H   3)                2.8783  0.004154 -0.0041    2.8742   
     7. B(I   4,C   0)                2.5680  0.004674  0.0016    2.5696          0.51
     8. B(Br  5,H   2)                2.9238  0.005280 -0.0259    2.8979   
     9. B(Br  5,H   1)                2.9238  0.005280 -0.0259    2.8979   
    10. B(Br  5,H   3)                2.9238  0.005280 -0.0259    2.8979   
    11. B(Br  5,C   0)                2.8130 -0.003444 -0.0259    2.7871          0.59
    12. A(H   1,C   0,H   3)          119.20  0.000849    0.07    119.27   
    13. A(H   2,C   0,H   3)          119.20  0.000849    0.07    119.27   
    14. A(H   1,C   0,I   4)           95.16 -0.002758   -0.24     94.93   
    15. A(H   2,C   0,I   4)           95.16 -0.002758   -0.24     94.93   
    16. A(H   3,C   0,I   4)           95.16 -0.002758   -0.24     94.93   
    17. A(H   1,C   0,Br  5)           84.84  0.002758    0.23     85.07   
    18. A(H   2,C   0,Br  5)           84.84  0.002758    0.24     85.07   
    19. A(H   3,C   0,Br  5)           84.84  0.002758    0.24     85.07   
    20. A(H   1,C   0,H   2)          119.20  0.000849    0.07    119.27   
    ----------------------------------------------------------------------------

Geometry step timings:
Preparation and reading OPT file:      0.000 s ( 0.974 %)
Internal coordinates            :      0.000 s ( 1.129 %)
B/P matrices and projection     :      0.000 s ( 3.475 %)
Hessian update/contruction      :      0.003 s (74.834 %)
Making the step                 :      0.000 s ( 5.998 %)
Converting the step to Cartesian:      0.000 s ( 1.018 %)
Storing new data                :      0.000 s ( 2.368 %)
Checking convergence            :      0.000 s ( 1.749 %)
Final printing                  :      0.000 s ( 8.367 %)
Total time                      :      0.005 s

Time for energy+gradient        :      0.044 s
Time for complete geometry iter :      0.127 s

         *************************************************************
         *                GEOMETRY OPTIMIZATION CYCLE   2            *
         *************************************************************
---------------------------------
CARTESIAN COORDINATES (ANGSTROEM)
---------------------------------
  C     0.000000   -0.000001    0.091410
  H     0.000000    1.081452   -0.003228
  H     0.936565   -0.540729   -0.003228
  H    -0.936565   -0.540729   -0.003228
  I    -0.000000    0.000004    2.660120
  Br   -0.000000    0.000004   -2.692846

----------------------------
CARTESIAN COORDINATES (A.U.)
----------------------------
  NO LB    ZA    FRAG    MASS        X           Y           Z
   0 C   6.0000    0    12.011    0.000000   -0.000002    0.172740
   1 H   1.0000    0     1.008    0.000000    2.043648   -0.006099
   2 H   1.0000    0     1.008    1.769851   -1.021831   -0.006101
   3 H   1.0000    0     1.008   -1.769851   -1.021831   -0.006101
   4 I  53.0000    0   126.900   -0.000000    0.000008    5.026899
   5 Br 35.0000    0    79.900   -0.000000    0.000007   -5.088742

      -----------------------------------------------------------      
     |                   =====================                   |     
     |                           x T B                           |     
     |                   =====================                   |     
     |                         S. Grimme                         |     
     |          Mulliken Center for Theoretical Chemistry        |     
     |                    University of Bonn                     |     
      -----------------------------------------------------------      

   * xtb version 6.7.1 (edcfbbe) compiled by 'albert@albert-system' on 2024-07-22

   xtb is free software: you can redistribute it and/or modify it under
   the terms of the GNU Lesser General Public License as published by
   the Free Software Foundation, either version 3 of the License, or
   (at your option) any later version.
   
   xtb is distributed in the hope that it will be useful,
   but WITHOUT ANY WARRANTY; without even the implied warranty of
   MERCHANTABILITY or FITNESS FOR A PARTICULAR PURPOSE.  See the
   GNU Lesser General Public License for more details.
   
   Cite this work as:
   * C. Bannwarth, E. Caldeweyher, S. Ehlert, A. Hansen, P. Pracht,
     J. Seibert, S. Spicher, S. Grimme, WIREs Comput. Mol. Sci., 2020, 11,
     e01493. DOI: 10.1002/wcms.1493
   
   for GFN2-xTB:
   * C. Bannwarth, S. Ehlert and S. Grimme., J. Chem. Theory Comput., 2019,
     15, 1652-1671. DOI: 10.1021/acs.jctc.8b01176
   for GFN1-xTB:
   * S. Grimme, C. Bannwarth, P. Shushkov, J. Chem. Theory Comput., 2017,
     13, 1989-2009. DOI: 10.1021/acs.jctc.7b00118
   for GFN0-xTB:
   * P. Pracht, E. Caldeweyher, S. Ehlert, S. Grimme, ChemRxiv, 2019, preprint.
     DOI: 10.26434/chemrxiv.8326202.v1
   for GFN-FF:
   * S. Spicher and S. Grimme, Angew. Chem. Int. Ed., 2020, 59, 15665-15673.
     DOI: 10.1002/anie.202004239
   
   for ALPB and GBSA implicit solvation:
   * S. Ehlert, M. Stahn, S. Spicher, S. Grimme, J. Chem. Theory Comput.,
     2021, 17, 4250-4261. DOI: 10.1021/acs.jctc.1c00471
   
   for ddCOSMO and CPCM-X implicit solvation:
   * M. Stahn, S. Ehlert, S. Grimme, J. Phys. Chem. A,
     2023, XX, XXXX-XXXX. DOI: 10.1021/acs.jpca.3c04382
   
   for DFT-D4:
   * E. Caldeweyher, C. Bannwarth and S. Grimme, J. Chem. Phys., 2017,
     147, 034112. DOI: 10.1063/1.4993215
   * E. Caldeweyher, S. Ehlert, A. Hansen, H. Neugebauer, S. Spicher,
     C. Bannwarth and S. Grimme, J. Chem. Phys., 2019, 150, 154122.
     DOI: 10.1063/1.5090222
   * E. Caldeweyher, J.-M. Mewes, S. Ehlert and S. Grimme, Phys. Chem. Chem. Phys.
     2020, 22, 8499-8512. DOI: 10.1039/D0CP00502A
   
   for sTDA-xTB:
   * S. Grimme and C. Bannwarth, J. Chem. Phys., 2016, 145, 054103.
     DOI: 10.1063/1.4959605
   
   in the mass-spec context:
   * V. Asgeirsson, C. Bauer and S. Grimme, Chem. Sci., 2017, 8, 4879.
     DOI: 10.1039/c7sc00601b
   * J. Koopman and S. Grimme, ACS Omega 2019, 4, 12, 15120-15133.
     DOI: 10.1021/acsomega.9b02011
   
   for metadynamics refer to:
   * S. Grimme, J. Chem. Theory Comput., 2019, 155, 2847-2862
     DOI: 10.1021/acs.jctc.9b00143
   
   for SPH calculations refer to:
   * S. Spicher and S. Grimme, J. Chem. Theory Comput., 2021, 17, 1701-1714
     DOI: 10.1021/acs.jctc.0c01306
   
   for ONIOM refer to:
   * C. Plett, A. Katbashev, S. Ehlert, S. Grimme, M. Bursch,
     Phys. Chem. Chem. Phys., 2023, 25, 17860-17868. DOI: 10.1039/D3CP02178E
   
   for DIPRO refer to:
   * J. Kohn, N. Gildemeister, S. Grimme, D. Fazzi, A. Hansen,
     J. Chem. Phys., 2023, just accepted.
   
   for PTB refer to:
   * S. Grimme, M. Mueller, A. Hansen, J. Chem. Phys., 2023, 158, 124111.
     DOI: 10.1063/5.0137838
   
   with help from (in alphabetical order)
   P. Atkinson, C. Bannwarth, F. Bohle, G. Brandenburg, E. Caldeweyher
   M. Checinski, S. Dohm, S. Ehlert, S. Ehrlich, I. Gerasimov, C. Hölzer
   A. Katbashev, J. Kohn, J. Koopman, C. Lavigne, S. Lehtola, F. März, M. Müller,
   F. Musil, H. Neugebauer, J. Pisarek, C. Plett, P. Pracht, F. Pultar,
   J. Seibert, P. Shushkov, S. Spicher, M. Stahn, M. Steiner, T. Strunk,
   J. Stückrath, T. Rose, and J. Unsleber
   
 * started run on 2026/03/16 at 14:19:17.700     
   ID    Z sym.   atoms
    1    6 C      1
    2    1 H      2-4
    3   53 I      5
    4   35 Br     6

           -------------------------------------------------
          |                Calculation Setup                |
           -------------------------------------------------

          program call               : /software/orca-6.1.0-el8-x86_64/bin/otool_xtb sn2_i_br_XTB.xyz --grad -c -1 -u 0 -P 8 --namespace sn2_i_br --input sn2_i_br_XTB.input.tmp --acc 0.200000
          hostname                   : midway3-login4.rcc.local
          calculation namespace      : sn2_i_br
          coordinate file            : sn2_i_br_XTB.xyz
          omp threads                :                     8


molecular fragmentation (1/2 indicates fragments):
111112
# atoms in fragment 1/2:     5     1
 fragment masses (1/2) :      141.94       79.90
CMA distance (Bohr)    :   9.598
constraining FC (au)   :  0.0500

           -------------------------------------------------
          |                 G F N 2 - x T B                 |
           -------------------------------------------------

        Reference                      10.1021/acs.jctc.8b01176
      * Hamiltonian:
        H0-scaling (s, p, d)           1.850000    2.230000    2.230000
        zeta-weighting                 0.500000
      * Dispersion:
        s8                             2.700000
        a1                             0.520000
        a2                             5.000000
        s9                             5.000000
      * Repulsion:
        kExp                           1.500000    1.000000
        rExp                           1.000000
      * Coulomb:
        alpha                          2.000000
        third order                    shell-resolved
        anisotropic                    true
        a3                             3.000000
        a5                             4.000000
        cn-shift                       1.200000
        cn-exp                         4.000000
        max-rad                        5.000000

q/qsh data taken from xtbrestart
CAMM data taken from xtbrestart

          ...................................................
          :                      SETUP                      :
          :.................................................:
          :  # basis functions                  27          :
          :  # atomic orbitals                  25          :
          :  # shells                           11          :
          :  # electrons                        22          :
          :  max. iterations                   250          :
          :  Hamiltonian                  GFN2-xTB          :
          :  restarted?                       true          :
          :  GBSA solvation                  false          :
          :  PC potential                    false          :
          :  electronic temp.          300.0000000     K    :
          :  accuracy                    0.2000000          :
          :  -> integral cutoff          0.3198970E+02      :
          :  -> integral neglect         0.2000000E-08      :
          :  -> SCF convergence          0.2000000E-06 Eh   :
          :  -> wf. convergence          0.2000000E-04 e    :
          :  Broyden damping             0.4000000          :
          :  net charge                         -1          :
          :  unpaired electrons                  0          :
          ...................................................

 iter      E             dE          RMSdq      gap      omega  full diag
   1    -11.8688944 -0.118689E+02  0.222E-01    1.61       0.0  T
   2    -11.8689429 -0.484937E-04  0.103E-01    1.66       1.0  T
   3    -11.8689491 -0.623664E-05  0.545E-02    1.65       1.0  T
   4    -11.8689485  0.676465E-06  0.235E-02    1.65       1.7  T
   5    -11.8689498 -0.134213E-05  0.121E-02    1.65       3.4  T
   6    -11.8689499 -0.958839E-07  0.467E-03    1.65       8.7  T
   7    -11.8689499 -0.248184E-07  0.163E-03    1.65      25.1  T
   8    -11.8689499 -0.113389E-08  0.608E-04    1.65      67.2  T
   9    -11.8689499 -0.144784E-09  0.183E-04    1.65     223.3  T
  10    -11.8689499 -0.227445E-10  0.461E-05    1.65     885.3  T

   *** convergence criteria satisfied after 10 iterations ***

         #    Occupation            Energy/Eh            Energy/eV
      -------------------------------------------------------------
         1        2.0000           -0.6196573             -16.8617
       ...           ...                  ...                  ...
         5        2.0000           -0.3587434              -9.7619
         6        2.0000           -0.2909280              -7.9166
         7        2.0000           -0.2469356              -6.7195
         8        2.0000           -0.2469356              -6.7195
         9        2.0000           -0.2078683              -5.6564
        10        2.0000           -0.1977684              -5.3816
        11        2.0000           -0.1977684              -5.3816 (HOMO)
        12                         -0.1373077              -3.7363 (LUMO)
        13                          0.2183617               5.9419
        14                          0.2238784               6.0920
        15                          0.2238784               6.0920
        16                          0.2298264               6.2539
       ...                                ...                  ...
        25                          0.4009304              10.9099
      -------------------------------------------------------------
                  HL-Gap            0.0604607 Eh            1.6452 eV
             Fermi-level           -0.1672413 Eh           -4.5509 eV

 SCC (total)                   0 d,  0 h,  0 min,  0.048 sec
 SCC setup                      ...        0 min,  0.000 sec (  0.429%)
 Dispersion                     ...        0 min,  0.000 sec (  0.108%)
 classical contributions        ...        0 min,  0.000 sec (  0.064%)
 integral evaluation            ...        0 min,  0.046 sec ( 94.446%)
 iterations                     ...        0 min,  0.002 sec (  3.387%)
 molecular gradient             ...        0 min,  0.001 sec (  1.259%)
 printout                       ...        0 min,  0.000 sec (  0.271%)

         :::::::::::::::::::::::::::::::::::::::::::::::::::::
         ::                     SUMMARY                     ::
         :::::::::::::::::::::::::::::::::::::::::::::::::::::
         :: total energy             -11.816419663214 Eh    ::
         :: gradient norm              0.031402520635 Eh/a0 ::
         :: HOMO-LUMO gap              1.645218260845 eV    ::
         ::.................................................::
         :: SCC energy               -11.868951200355 Eh    ::
         :: -> isotropic ES            0.132813356885 Eh    ::
         :: -> anisotropic ES         -0.001605174569 Eh    ::
         :: -> anisotropic XC          0.004079121169 Eh    ::
         :: -> dispersion             -0.003201673687 Eh    ::
         :: repulsion energy           0.052531537140 Eh    ::
         :: add. restraining           0.000000000000 Eh    ::
         :: total charge              -1.000000000000 e     ::
         :::::::::::::::::::::::::::::::::::::::::::::::::::::


Property printout bound to 'properties.out'

           -------------------------------------------------
          | TOTAL ENERGY              -11.816419663214 Eh   |
          | GRADIENT NORM               0.031402520635 Eh/α |
          | HOMO-LUMO GAP               1.645218260845 eV   |
           -------------------------------------------------

------------------------------------------------------------------------
 * finished run on 2026/03/16 at 14:19:17.761     
------------------------------------------------------------------------
 total:
 * wall-time:     0 d,  0 h,  0 min,  0.060 sec
 *  cpu-time:     0 d,  0 h,  0 min,  0.223 sec
 * ratio c/w:     3.705 speedup
 SCF:
 * wall-time:     0 d,  0 h,  0 min,  0.048 sec
 *  cpu-time:     0 d,  0 h,  0 min,  0.158 sec
 * ratio c/w:     3.259 speedup


-------------------------   --------------------
FINAL SINGLE POINT ENERGY       -11.816419663210
-------------------------   --------------------


-------------
DIPOLE MOMENT
-------------
                                X             Y             Z
Total Dipole Moment    :      0.00000      -0.00000       0.76100
                        -----------------------------------------
Magnitude (a.u.)       :      0.76100
Magnitude (Debye)      :      1.93431


------------------
CARTESIAN GRADIENT
------------------

   1   C   :   -0.000000022    0.000000106   -0.013155857
   2   H   :    0.000000006    0.012022002    0.002873756
   3   H   :    0.010411117   -0.006011137    0.002873590
[...]
                  HL-Gap            0.1087872 Eh            2.9603 eV
             Fermi-level           -0.1654152 Eh           -4.5012 eV

 SCC (total)                   0 d,  0 h,  0 min,  0.020 sec
 SCC setup                      ...        0 min,  0.000 sec (  1.045%)
 Dispersion                     ...        0 min,  0.000 sec (  0.250%)
 classical contributions        ...        0 min,  0.000 sec (  0.137%)
 integral evaluation            ...        0 min,  0.017 sec ( 88.767%)
 iterations                     ...        0 min,  0.001 sec (  5.428%)
 molecular gradient             ...        0 min,  0.001 sec (  3.196%)
 printout                       ...        0 min,  0.000 sec (  1.080%)

         :::::::::::::::::::::::::::::::::::::::::::::::::::::
         ::                     SUMMARY                     ::
         :::::::::::::::::::::::::::::::::::::::::::::::::::::
         :: total energy             -11.819768721423 Eh    ::
         :: gradient norm              0.000000215605 Eh/a0 ::
         :: HOMO-LUMO gap              2.960250619469 eV    ::
         ::.................................................::
         :: SCC energy               -11.880425021602 Eh    ::
         :: -> isotropic ES            0.126928115464 Eh    ::
         :: -> anisotropic ES         -0.002180144676 Eh    ::
         :: -> anisotropic XC          0.002100928671 Eh    ::
         :: -> dispersion             -0.003455094155 Eh    ::
         :: repulsion energy           0.060656300179 Eh    ::
         :: add. restraining           0.000000000000 Eh    ::
         :: total charge              -1.000000000000 e     ::
         :::::::::::::::::::::::::::::::::::::::::::::::::::::

           ------------------------------------------------- 
          |                Numerical Hessian                |
           ------------------------------------------------- 
step length          :   0.00500
SCC accuracy         :   0.30000
Hessian scale factor :   1.00000
frozen atoms in %    :   0.00000    0
RMS gradient         :   0.00000
estimated CPU  time      0.00 min
estimated wall time      0.00 min

writing file <hessian>.

 projected vibrational frequencies (cm⁻¹)
eigval :       -0.00    -0.00     0.00     0.00     0.00     0.00
eigval :     -290.45   134.34   178.23   178.24   990.74  1012.86
eigval :     1012.94  1335.46  1335.47  3148.39  3236.10  3236.11

Property printout bound to 'properties.out'
Molecule has the following symmetry elements: (C3) 3*(sigma) 
It seems to be the C3v point group
imag cut-off (cm-1) :    5.00
 found            1  significant imaginary frequency
 writing imag mode distorted coords to xtbhess.xyz
 for further optimization.

           -------------------------------------------------
          | TOTAL ENERGY              -11.819768721423 Eh   |
          | TOTAL ENTHALPY            -11.778009452254 Eh   |
          | TOTAL FREE ENERGY         -11.813542098335 Eh   |
          | GRADIENT NORM               0.000000215082 Eh/α |
          | HOMO-LUMO GAP               2.960250508777 eV   |
           -------------------------------------------------

------------------------------------------------------------------------
 * finished run on 2026/03/16 at 14:19:19.264     
------------------------------------------------------------------------
 total:
 * wall-time:     0 d,  0 h,  0 min,  0.078 sec
 *  cpu-time:     0 d,  0 h,  0 min,  0.339 sec
 * ratio c/w:     4.346 speedup
 SCF:
 * wall-time:     0 d,  0 h,  0 min,  0.020 sec
 *  cpu-time:     0 d,  0 h,  0 min,  0.143 sec
 * ratio c/w:     7.183 speedup
 analytical hessian:
 * wall-time:     0 d,  0 h,  0 min,  0.038 sec
 *  cpu-time:     0 d,  0 h,  0 min,  0.126 sec
 * ratio c/w:     3.299 speedup


-------------------------   --------------------
FINAL SINGLE POINT ENERGY       -11.819768721420
-------------------------   --------------------


-------------
DIPOLE MOMENT
-------------
                                X             Y             Z
Total Dipole Moment    :     -0.00000      -0.00000      -0.36900
                        -----------------------------------------
Magnitude (a.u.)       :      0.36900
Magnitude (Debye)      :      0.93792


-----------------------
VIBRATIONAL FREQUENCIES
-----------------------

Scaling factor for frequencies =  1.000000000  (already applied!)

     0:       0.00 cm**-1
     1:       0.00 cm**-1
     2:       0.00 cm**-1
     3:       0.00 cm**-1
     4:       0.00 cm**-1
     5:       0.00 cm**-1
     6:    -290.45 cm**-1  ***imaginary mode***
     7:     134.34 cm**-1
     8:     178.23 cm**-1
     9:     178.23 cm**-1
    10:     990.71 cm**-1
    11:    1012.83 cm**-1
    12:    1012.91 cm**-1
    13:    1335.42 cm**-1
    14:    1335.43 cm**-1
    15:    3148.30 cm**-1
    16:    3236.01 cm**-1
    17:    3236.02 cm**-1


------------
NORMAL MODES
------------

These modes are the Cartesian displacements weighted by the diagonal matrix
M(i,i)=1/sqrt(m[i]) where m[i] is the mass of the displaced atom
Thus, these vectors are normalized but *not* orthogonal

                  0          1          2          3          4          5    
      0       0.000000   0.000000   0.000000   0.000000   0.000000   0.000000
      1       0.000000   0.000000   0.000000   0.000000   0.000000   0.000000
      2       0.000000   0.000000   0.000000   0.000000   0.000000   0.000000
      3       0.000000   0.000000   0.000000   0.000000   0.000000   0.000000
      4       0.000000   0.000000   0.000000   0.000000   0.000000   0.000000
      5       0.000000   0.000000   0.000000   0.000000   0.000000   0.000000
      6       0.000000   0.000000   0.000000   0.000000   0.000000   0.000000
      7       0.000000   0.000000   0.000000   0.000000   0.000000   0.000000
      8       0.000000   0.000000   0.000000   0.000000   0.000000   0.000000
      9       0.000000   0.000000   0.000000   0.000000   0.000000   0.000000
     10       0.000000   0.000000   0.000000   0.000000   0.000000   0.000000
     11       0.000000   0.000000   0.000000   0.000000   0.000000   0.000000
     12       0.000000   0.000000   0.000000   0.000000   0.000000   0.000000
     13       0.000000   0.000000   0.000000   0.000000   0.000000   0.000000
     14       0.000000   0.000000   0.000000   0.000000   0.000000   0.000000
     15       0.000000   0.000000   0.000000   0.000000   0.000000   0.000000
     16       0.000000   0.000000   0.000000   0.000000   0.000000   0.000000
     17       0.000000   0.000000   0.000000   0.000000   0.000000   0.000000
                  6          7          8          9         10         11    
      0       0.000003   0.000000   0.490203  -0.000020  -0.000000   0.003796
      1      -0.000141   0.000663  -0.000020  -0.490210   0.000000   0.000001
      2       0.993018   0.119692  -0.000002  -0.000079  -0.014698  -0.000000
      3       0.000000   0.000000   0.507193  -0.000020   0.000002  -0.001306
      4       0.002323  -0.001955  -0.000020  -0.496715  -0.004240  -0.000000
      5       0.045277   0.154459  -0.000001   0.020950   0.577225   0.000109
      6       0.002210  -0.002310   0.499324  -0.004555  -0.003664  -0.002617
      7      -0.001349   0.001978   0.004523  -0.504560   0.002128   0.000758
      8       0.045263   0.154503  -0.018128  -0.010458   0.577237   0.707035
      9      -0.002209   0.002311   0.499324   0.004515   0.003668  -0.002622
     10      -0.001349   0.001978  -0.004564  -0.504559   0.002128  -0.000759
     11       0.045263   0.154505   0.018123  -0.010460   0.577236  -0.707145
     12      -0.000000  -0.000000  -0.028001   0.000001  -0.000000   0.001912
     13       0.000008  -0.000038   0.000001   0.028001  -0.000000   0.000000
     14      -0.049041  -0.520105   0.000000  -0.000028  -0.006020  -0.000000
     15      -0.000000  -0.000000  -0.048216   0.000002  -0.000000  -0.003524
     16       0.000013  -0.000065   0.000002   0.048216  -0.000000  -0.000000
     17      -0.073100   0.802210   0.000000   0.000056  -0.010077   0.000000
                 12         13         14         15         16         17    
      0       0.000000   0.000000   0.098123   0.000000   0.098415   0.000007
      1      -0.003799  -0.098120   0.000000   0.000007  -0.000007   0.098416
      2       0.000000  -0.000007  -0.000000   0.000444  -0.000000  -0.000004
      3      -0.000002  -0.000006  -0.810590  -0.000000   0.038313  -0.000002
      4       0.003049  -0.056293   0.000005  -0.577379   0.000053  -0.811567
      5      -0.816483   0.004747   0.000003  -0.004167   0.000000  -0.006615
      6      -0.000750   0.375366  -0.160432  -0.499970  -0.599145   0.368017
      7       0.001753   0.593870  -0.375375   0.288653   0.368039  -0.174158
      8       0.408328  -0.002388  -0.004102  -0.004168  -0.005730   0.003305
      9       0.000751  -0.375362  -0.160422   0.499970  -0.599101  -0.368097
     10       0.001756   0.593879   0.375369   0.288653  -0.368010  -0.174202
     11       0.408139  -0.002385   0.004103  -0.004172   0.005734   0.003308
     12       0.000000  -0.000000  -0.000146   0.000000  -0.000055  -0.000000
     13      -0.001912   0.000145   0.000000  -0.000000  -0.000000  -0.000055
     14       0.000000   0.000000  -0.000000   0.000054   0.000000   0.000000
     15      -0.000000   0.000000  -0.000245  -0.000000  -0.000074   0.000000
     16       0.003524   0.000245  -0.000000  -0.000000   0.000000  -0.000074
     17       0.000000   0.000001   0.000000   0.000004   0.000000   0.000001


The first frequency considered to be a vibration is 7
The total number of vibrations considered is 11


--------------------------
THERMOCHEMISTRY AT 298.15K
--------------------------

Temperature         ...   298.15 K
Pressure            ...     1.00 atm
Total Mass          ...   221.84 AMU
Quasi RRHO          ...     True
Cut-Off Frequency   ...     1.00 cm^-1

Throughout the following assumptions are being made:
  (1) The electronic state is orbitally nondegenerate
  (2) There are no thermally accessible electronically excited states
  (3) Hindered rotations indicated by low frequency modes are not
      treated as such but are treated as vibrations and this may
      cause some error
  (4) All equations used are the standard statistical mechanics
      equations for an ideal gas
  (5) All vibrations are strictly harmonic

freq.     134.34  E(vib)   ...       0.42 
freq.     178.23  E(vib)   ...       0.37 
freq.     178.23  E(vib)   ...       0.37 
freq.     990.71  E(vib)   ...       0.02 
freq.    1012.83  E(vib)   ...       0.02 
freq.    1012.91  E(vib)   ...       0.02 
freq.    1335.42  E(vib)   ...       0.01 
freq.    1335.43  E(vib)   ...       0.01 
freq.    3148.30  E(vib)   ...       0.00 
freq.    3236.01  E(vib)   ...       0.00 
freq.    3236.02  E(vib)   ...       0.00 

------------
INNER ENERGY
------------

The inner energy is: U= E(el) + E(ZPE) + E(vib) + E(rot) + E(trans)
    E(el)   - is the total energy from the electronic structure calculation
              = E(kin-el) + E(nuc-el) + E(el-el) + E(nuc-nuc)
    E(ZPE)  - the the zero temperature vibrational energy from the frequency calculation
    E(vib)  - the the finite temperature correction to E(ZPE) due to population
              of excited vibrational states
    E(rot)  - is the rotational thermal energy
    E(trans)- is the translational thermal energy

Summary of contributions to the inner energy U:
Electronic energy                ...    -11.81976872 Eh
Zero point energy                ...      0.03599146 Eh      22.58 kcal/mol
Thermal vibrational correction   ...      0.00199002 Eh       1.25 kcal/mol
Thermal rotational correction    ...      0.00141627 Eh       0.89 kcal/mol
Thermal translational correction ...      0.00141627 Eh       0.89 kcal/mol
-----------------------------------------------------------------------
Total thermal energy                    -11.77895470 Eh


Summary of corrections to the electronic energy:
(perhaps to be used in another calculation)
Total thermal correction                  0.00482256 Eh       3.03 kcal/mol
Non-thermal (ZPE) correction              0.03599146 Eh      22.58 kcal/mol
-----------------------------------------------------------------------
Total correction                          0.04081403 Eh      25.61 kcal/mol


--------
ENTHALPY
--------

The enthalpy is H = U + kB*T
                kB is Boltzmann's constant
Total thermal energy              ...    -11.77895470 Eh 
Thermal Enthalpy correction       ...      0.00094421 Eh       0.59 kcal/mol
-----------------------------------------------------------------------
Total Enthalpy                    ...    -11.77801049 Eh


WARNING (ORCA/SYM): The number of Z matrix atoms does not agree with
the number of centers in the basis set. The point group will therefore
be determined without considering basis set information.


Note: Rotational entropy computed according to Herzberg 
Infrared and Raman Spectra, Chapter V,1, Van Nostrand Reinhold, 1945 
Point Group:  C3v, Symmetry Number:   3  
Rotational constants in cm-1:     4.899728     0.013445     0.013445 

Vibrational entropy computed according to the QRRHO of S. Grimme
Chem.Eur.J. 2012 18 9955 using a reference frequency of 100.0 cm-1


-------
ENTROPY
-------

The entropy contributions are T*S = T*(S(el)+S(vib)+S(rot)+S(trans))
     S(el)   - electronic entropy
     S(vib)  - vibrational entropy
     S(rot)  - rotational entropy
     S(trans)- translational entropy
The entropies will be listed as multiplied by the temperature to get
units of energy

Electronic entropy                ...      0.00000000 Eh      0.00 kcal/mol
Vibrational entropy               ...      0.00371147 Eh      2.33 kcal/mol
Rotational entropy                ...      0.01179190 Eh      7.40 kcal/mol
Translational entropy             ...      0.01999968 Eh     12.55 kcal/mol
-----------------------------------------------------------------------
Final entropy term                ...      0.03550304 Eh     22.28 kcal/mol

In case the symmetry of your molecule has not been determined correctly
or in case you have a reason to use a different symmetry number we print 
out the resulting rotational entropy values for sn=1,12:

 non-linear molecules -----------------------------------
|  sn= 1 | S(rot)=       0.01282919 Eh      8.05 kcal/mol|
|  sn= 2 | S(rot)=       0.01217473 Eh      7.64 kcal/mol|
|  sn= 3 | S(rot)=       0.01179190 Eh      7.40 kcal/mol|
|  sn= 4 | S(rot)=       0.01152028 Eh      7.23 kcal/mol|
|  sn= 5 | S(rot)=       0.01130959 Eh      7.10 kcal/mol|
|  sn= 6 | S(rot)=       0.01113745 Eh      6.99 kcal/mol|
|  sn= 7 | S(rot)=       0.01099190 Eh      6.90 kcal/mol|
|  sn= 8 | S(rot)=       0.01086582 Eh      6.82 kcal/mol|
|  sn= 9 | S(rot)=       0.01075461 Eh      6.75 kcal/mol|
|  sn=10 | S(rot)=       0.01065513 Eh      6.69 kcal/mol|
|  sn=11 | S(rot)=       0.01056514 Eh      6.63 kcal/mol|
|  sn=12 | S(rot)=       0.01048299 Eh      6.58 kcal/mol|
 linear molecules ---------------------------------------
|  Dinfh | S(rot)=       0.00939442 Eh      5.90 kcal/mol|
|  Cinfv | S(rot)=       0.01004888 Eh      6.31 kcal/mol|
 --------------------------------------------------------


-------------------
GIBBS FREE ENERGY
-------------------

The Gibbs free energy is G = H - T*S

Total enthalpy                    ...    -11.77801049 Eh 
Total entropy correction          ...     -0.03550304 Eh    -22.28 kcal/mol
-----------------------------------------------------------------------
Final Gibbs free energy         ...    -11.81351353 Eh

For completeness - the Gibbs free energy minus the electronic energy
G-E(el)                           ...      0.00625519 Eh      3.93 kcal/mol


--------------------------------
SUGGESTED CITATIONS FOR THIS RUN
--------------------------------

Below you find a list of papers that are relevant to this ORCA run
We neither can nor want to force you to cite these papers, but we appreciate if you do
You receive ORCA, which is the product of decades of hard work by many enthusiastic individuals, for free
The only thing we kindly ask in return is that you cite our papers,
We deeply appreciate it, if you show your appreciation for ORCA by not just citing the generic ORCA reference.

Please note that relegating all ORCA citations to the supporting information does *not* help us.
SI sections are not indexed - citations you put there will not count into any citation statistics
But we need these citations in order to attract the funding resources that allow us to do what we are doing

Therefore, if you are a happy ORCA user, please consider citing a few of the papers listed below in the main body of your paper

In addition to the list printed below, the program has created the file sn2_i_br.bibtex that contains the list in bibtex format
You can import this file easily into all common literature databanks and citation aid programs


List of essential papers. We consider these as the minimum necessary citations

  1. Bannwarth, C.; Ehlert, S.; Grimme, S.
     GFN2-xTB—An Accurate and Broadly Parametrized Self-Consistent Tight-Binding Quantum Chemical Method with Multipole Electrostatics and Density-Dependent Dispersion Contributions
     J. Chem. Theory Comput. 2019 15(3), 1652-1671
     doi.org/10.1021/acs.jctc.8b01176
  2. Neese, F.
     Software update: the ORCA program system, version 6.0
     WIRES Comput. Molec. Sci. 2025 15(1), e70019
     doi.org/10.1002/wcms.7019

List of papers to cite with high priority. The work reported in these papers was absolutely
necessary for this run to complete.
Our perspective: the developers of density functionals and basis sets usually get cited in chemistry papers
Good! But without the algorithms to do something with them, the functionals or basis sets would not do anything.
Hence, in our opinion, the algorithm design and method developments papers are equally worthy of getting cited

  1. Bykov, D.; Petrenko, T.; Izsak, R.; Kossmann, S.; Becker, U.; Valeev, E.; Neese, F.
     Efficient implementation of the analytic second derivatives of Hartree-Fock and hybrid DFT energies: a detailed analysis of different approximations
     Molec. Phys. 2015 113 , 1961-1977
     doi.org/10.1080/00268976.2015.1025114
  2. Bannwarth, C.; Caldeweyher, E.; Ehlert, S.; Hansen, A.; Pracht, P.; Seibert, J.; Spicher, S.; Grimme, S.
     Extended tight-binding quantum chemistry methods
     WIRES Comput. Molec. Sci. 2020 11(2), e1493
     doi.org/10.1002/wcms.1493

List of suggested additional citations. These are papers that are important in the 'surrounding' of 
of this run, or papers that preceded the highly important papers. If you like your results we are grateful for a citation.

  1. Neese, F.
     The ORCA program system
     WIRES Comput. Molec. Sci. 2012 2(1), 73-78
     doi.org/10.1002/wcms.81
  2. Neese, F.
     Software update: the ORCA program system, version 4.0
     WIRES Comput. Molec. Sci. 2018 8(1), 1-6
     doi.org/10.1002/wcms.1327
  3. Neese, F.; Wennmohs, F.; Becker, U.; Riplinger, C.
     The ORCA quantum chemistry program package
     J. Chem. Phys. 2020 152(22), 224108
     doi.org/10.1063/5.0004608
  4. Neese, F.
     Software update: The ORCA program system—Version 5.0
     WIRES Comput. Molec. Sci. 2022 12(1), e1606
     doi.org/10.1002/wcms.1606

List of optional additional citations

  1. Neese, F.
     Approximate second-order SCF convergence for spin unrestricted wavefunctions
     Chem. Phys. Lett. 2000 325(1-3), 93-98
     doi.org/10.1016/s0009-2614(00)00662-x

Timings for individual modules:

Sum of individual times          ...        1.557 sec (=   0.026 min)
Geometry relaxation              ...        0.045 sec (=   0.001 min)   2.9 %
XTB module                       ...        1.512 sec (=   0.025 min)  97.1 %
                             ****ORCA TERMINATED NORMALLY****
TOTAL RUN TIME: 0 days 0 hours 0 minutes 2 seconds 160 msec
