
                                 *****************
                                 * O   R   C   A *
                                 *****************

                                            #,                                       
                                            ###                                      
                                            ####                                     
                                            #####                                    
                                            ######                                   
                                           ########,                                 
                                     ,,################,,,,,                         
                               ,,#################################,,                 
                          ,,##########################################,,             
                       ,#########################################, ''#####,          
                    ,#############################################,,   '####,        
                  ,##################################################,,,,####,       
                ,###########''''           ''''###############################       
              ,#####''   ,,,,##########,,,,          '''####'''          '####       
            ,##' ,,,,###########################,,,                        '##       
           ' ,,###''''                  '''############,,,                           
         ,,##''                                '''############,,,,        ,,,,,,###''
      ,#''                                            '''#######################'''  
     '                                                          ''''####''''         
             ,#######,   #######,   ,#######,      ##                                
            ,#'     '#,  ##    ##  ,#'     '#,    #''#        ,####,    ,#,          
            ##       ##  ##   ,#'  ##            #'  '#       #'       ,# #          
            ##       ##  #######   ##           ,######,      #####,      #          
            '#,     ,#'  ##    ##  '#,     ,#' ,#      #,     #,   #      #          
             '#######'   ##     ##  '#######'  #'      '#     '####' #    #          



                #########################################################
                #                        -***-                          #
                #          Department of theory and spectroscopy        #
                #                                                       #
                #                      Frank Neese                      #
                #                                                       #
                #     Directorship, Architecture, Infrastructure        #
                #                    SHARK, DRIVERS                     #
                #        Core code/Algorithms in most modules           #
                #                                                       #
                #        Max Planck Institute fuer Kohlenforschung      #
                #                Kaiser Wilhelm Platz 1                 #
                #                 D-45470 Muelheim/Ruhr                 #
                #                      Germany                          #
                #                                                       #
                #                  All rights reserved                  #
                #                        -***-                          #
                #########################################################


                         Program Version 6.1.0  -  RELEASE   -
                                (GIT: $679e74b$)
                          ($2025-06-10 18:02:51 +0200$)


 With contributions from (in alphabetic order):
[Max-Planck-Institut fuer Kohlenforschung]                               
  Daniel Aravena         : Magnetic Suceptibility                        
  Michael Atanasov       : Ab Initio Ligand Field Theory (pilot matlab implementation)
  Alexander A. Auer      : GIAO ZORA, VPT2 properties, NMR spectrum      
  Ute Becker             : All parallelization in ORCA, NUMFREQ, NUMCALC 
  Giovanni Bistoni       : ED, misc. LED, open-shell LED, HFLD           
  Dmytro Bykov           : pre 5.0 version of the SCF Hessian            
  Marcos Casanova-Páez   : Triplet and SCS-CIS(D). UHF-(DLPNO)-IP/EA/STEOM-CCSD. UHF-CVS-IP/STEOM-CCSD   
  Vijay G. Chilkuri      : MRCI spin determinant printing, contributions to CSF-ICE 
  Pauline Colinet        : FMM embedding                                 
  Dipayan Datta          : RHF DLPNO-CCSD density                        
  Achintya Kumar Dutta   : EOM-CC, STEOM-CC                              
  Nicolas Foglia         : Exact transition moments, OPA infrastructure, MCD improvements    
  Dmitry Ganyushin       : Spin-Orbit,Spin-Spin,Magnetic field MRCI      
  Miquel Garcia-Rates    : C-PCM and meta-GGA Hessian, CCSD/C-PCM, Gaussian charge scheme 
  Tiago L. C. Gouveia    : GS-ROHF, GS-ROCIS                             
  Yang Guo               : DLPNO-NEVPT2, F12-NEVPT2, CIM, IAO-localization        
  Andreas Hansen         : Spin unrestricted coupled pair/coupled cluster methods 
  Ingolf Harden          : AUTO-CI MPn and infrastructure                
  Benjamin Helmich-Paris : MC-RPA, TRAH-(SCF,CASSCF), AVAS, COSX integrals, SCF dyn. polar., MC-PDFT, srDFT 
  Lee Huntington         : MR-EOM, pCC                                   
  Robert Izsak           : Overlap fitted RIJCOSX, COSX-SCS-MP3, EOM     
  Riya Kayal             : Wick's Theorem for AUTO-CI, AUTO-CI UHF-CCSDT 
  Emily Kempfer          : AUTO-CI RHF CISDT and CCSDT, approximate NEVPT4
  Christian Kollmar      : KDIIS, OOCD, Brueckner-CCSD(T), CCSD density, CASPT2, CASPT2-K, improved NEVPT2 
  Axel Koslowski         : Symmetry handling                             
  Simone Kossmann        : meta-GGA functionals, TD-DFT gradient, OOMP2, (MP2 Hessian; deprecated post 5.0) 
  Lucas Lang             : DCDCAS, Hyperfine gauge corrections, ICE-SOC+SSC
  Marvin Lechner         : AUTO-CI (C++ implementation), FIC-MRCC        
  Spencer Leger          : CASSCF response                               
  Dagmar Lenk            : GEPOL surface, SMD, ORCA-2-JSON               
  Dimitrios Liakos       : Extrapolation schemes; Compound Job, Property file
  Dimitrios Manganas     : Further ROCIS development; embedding schemes. LFT, Crystal Embedding 
  Dimitrios Pantazis     : SARC Basis sets                               
  Anastasios Papadopoulos: AUTO-CI, single reference methods and gradients 
  Taras Petrenko         : pre 6.0 DFT Hessian and TD-DFT gradient,  ECA, NRVS 
  Petra Pikulova         : Analytic Raman intensities                    
  Peter Pinski           : DLPNO-MP2, DLPNO-MP2 Gradient                 
  Shashank Vittal Rao    : ES-AILFT, MagRelax                            
  Christoph Reimann      : Effective Core Potentials                     
  Marius Retegan         : Local ZFS, SOC                                
  Christoph Riplinger    : Optimizer, TS searches, QM/MM, DLPNO-CCSD(T), (RO)-DLPNO pert. Triples 
  Michael Roemelt        : Original ROCIS implementation, recursive CI coupling coefficients
  Masaaki Saitow         : Open-shell DLPNO-CCSD energy and density      
  Barbara Sandhoefer     : DKH picture change effects                    
  Yorick L. A. Schmerwitz: GMF and freeze-and-release deltaSCF, NEB S-IDPP initial path                    
  Kantharuban Sivalingam : CASSCF convergence/infrastructure, NEVPT2, NEVPT3, NEVPT4(SD), FIC-MRCI and CEPA variants
  Bernardo de Souza      : ESD, SOC TD-DFT                               
  Georgi L. Stoychev     : AutoAux, RI-MP2 NMR, DLPNO-MP2 response, X2C  
  Van Anh Tran           : RI-MP2 g-tensors                              
  Willem Van den Heuvel  : Paramagnetic NMR                              
  Zikuan Wang            : NOTCH, Electric field optimization            
  Frank Wennmohs         : Technical directorship and infrastructure     
  Hang Xu                : AUTO-CI-Response properties                   
                                                                         
[FACCTs GmbH]                                                            
  Markus Bursch, Nicolas Foglia, Miquel Garcia-Rates, Ingolf Harden, Hagen Neugebauer, Anastasios Papadopoulos, 
  Christoph Riplinger, Bernardo de Souza, Georgi L. Stoychev                                                    
                                                                 
  APM, various basis sets, CI-OPT, improved COSX, DLPNO-Multilevel,           
  DOCKER, DRACO, updates on ESD, Fragmentator, GOAT, IRC, LR-CPCM, L-BFGS, MBIS, meta-GGA TD-DFT gradient, ML-optimized integration grids, 
  MM, NACMEs, nearIR, NEB, NEB-TS, NL-DFT gradient (VV10), 2- and 3-layer-ONIOM, interface openCOSMO-RS, QMMM,   
  Crystal-QMMM, RESP, rigid body optimization, SF, symmetry and pop. for TD-DFT, various functionals, SOLVATOR                                   
                                                                         
[Other institutions]                                                     
  V. Asgeirsson          : NEB                                           
  Christoph Bannwarth    : sTDA-DFT, sTD-DFT, PBEh-3c, B97-3c, D3        
  Giovanni Bistoni       : ETS/NOCV, ADLD/ADEX, COVALED                  
  Martin Brehm           : Molecular dynamics                            
  Ronald Cardenas        : ETS/NOCV                                      
  Martina Colucci        : COVALED                                       
  Sebastian Ehlert       : rSCAN, r2SCAN, r2SCAN-3c, D4, dhf basis sets  
  Marvin Friede          : D4 for Fr, Ra, Ac-Lr                          
  Lars Goerigk           : TD-DFT with DH, B97 family of functionals     
  Stefan Grimme          : VdW corrections, initial TS optimization, DFT functionals, gCP, sTDA/sTD-DF 
  Waldemar Hujo          : DFT-NL                                        
  H. Jonsson             : NEB                                           
  Holger Kruse           : gCP                                           
  Marcel Mueller         : wB97X-3c, vDZP basis set                      
  Hagen Neugebauer       : wr2SCAN, Native XTB                           
  Gianluca Regni         : ADLD/ADEX                                     
  Tobias Risthaus        : pre 6.0 range-separated hybrid DFT and stability analysis
  Lukas Wittmann         : regularized MP2, r2SCAN double-hybrids, wr2SCAN        
                                                                         
We gratefully acknowledge several colleagues who have allowed us to      
interface, adapt or use parts of their codes:                            
  Ed Valeev, F. Pavosevic, A. Kumar             : LibInt (2-el integral package), F12 methods 
  Garnet Chan, S. Sharma, J. Yang, R. Olivares  : DMRG                   
  Ulf Ekstrom                                   : XCFun DFT Library      
  Mihaly Kallay                                 : mrcc  (arbitrary order and MRCC methods)
  Frank Weinhold                                : gennbo (NPA and NBO analysis)           
  Simon Mueller                                 : openCOSMO-RS                            
  Christopher J. Cramer and Donald G. Truhlar   : smd solvation model                     
  S Lehtola, MJT Oliveira, MAL Marques          : LibXC Library                           
  Liviu Ungur et al                             : ANISO software                          


 Your calculation uses the libint2 library for the computation of 2-el integrals
 For citations please refer to: http://libint.valeyev.net

 Your ORCA version has been built with support for libXC version: 7.0.0
 For citations please refer to: https://libxc.gitlab.io

 This ORCA versions uses:
   CBLAS   interface :  Fast vector & matrix operations
   LAPACKE interface :  Fast linear algebra routines
   SCALAPACK package :  Parallel linear algebra routines
   Shared memory     :  Shared parallel matrices
   BLAS/LAPACK       :  OpenBLAS 0.3.29  USE64BITINT DYNAMIC_ARCH NO_AFFINITY SkylakeX SINGLE_THREADED
        Core in use  :  SkylakeX
   Copyright (c) 2011-2014, The OpenBLAS Project


  ***********************************
  * Starting time: Mon Mar 16 14:19:16 2026
  * Host name:     midway3-login4.rcc.local
  * Process ID:    123685
  * Working dir.:  /home/rzhu16/evans-polanyi-principle-validation/runs/sn2_i_cl/geo_opt_reactant_product
  ***********************************

Your calculation utilizes the semiempirical GFN2-xTB method
Please cite in your paper:
Bannwarth, C.; Ehlert S.; Grimme, S. J. Chem. Theory Comput. 2019, 15, 1652.
   

================================================================================

cite the ECPs for I  [Def2-ECP] as follows:
Ce-Yb(ecp-28): M. Dolg, H. Stoll, H.Preuss, J. Chem. Phys., 1989, 90, 1730-1734.
Y-Cd(ecp-28), Hf-Hg(ecp-46): D. Andrae,U. Haeussermann, M. Dolg, H. Stoll, H. Preuss, Theor. Chim. Acta, 1990, 77, 123-141.
In-Sb(ecp-28), Tl-Bi(ecp-46): B. Metz, H. Stoll, M. Dolg, J. Chem. Phys., 2000, 113, 2563-2569.
Te-Xe(ecp-28), Po-Rn(ecp-46): K. A. Peterson, D. Figgen, E. Goll, H. Stoll, M. Dolg, J. Chem. Phys., 2003, 119, 11113-11123.
Rb(ecp-28), Cs(ecp-46): T. Leininger, A. Nicklass, W. Kuechle, H. Stoll, M. Dolg, A. Bergner, Chem. Phys. Lett., 1996, 255, 274-280.
Sr(ecp-28), Ba(ecp-46): M. Kaupp, P. V. Schleyer, H. Stoll and H. Preuss, J. Chem. Phys., 1991, 94, 1360-1366.
La(ecp-46): M. Dolg, H. Stoll, A. Savin, H. Preuss, Theor. Chim. Acta, 1989, 75, 173-194.
Lu(ecp-28): X. Cao, M. Dolg, J. Chem. Phys., 2001, 115, 7348-7355.

ECP parameters for I  [Def2-ECP] have been obtained from:
TURBOMOLE (7.0.2)

================================================================================
                                        WARNINGS
                       Please study these warnings very carefully!
================================================================================


WARNING: Analytical Hessian for XTB is limited in the analysis of the data.
       : If you want to obtain extensive IR and deltaG analysis, please use ! XTB NumFreq. 


WARNING: Geometry Optimization
  ===> : Switching off AutoStart
         For restart on a previous wavefunction, please use MOREAD

WARNING: Found dipole moment calculation with XTB calculation
  ===> : Switching off dipole moment calculation


WARNING: Found frequency calculation in combination with XTB calculation
  ===> : Need to redirect dipole moment calculation to properties.out


================================================================================
                                       INPUT FILE
================================================================================
NAME = product_optfreq.inp
|  1> ! XTB2 Opt Freq PAL8
|  2> 
|  3> %geom
|  4>   MaxIter 500
|  5> end
|  6> 
|  7> * xyz -1 1
|  8>   C      -0.000012     -0.000323      0.277333
|  9>   H      -0.000000      1.026004     -0.053863
| 10>   H       0.888348     -0.512909     -0.053754
| 11>   H      -0.888337     -0.512902     -0.053748
| 12>   I       0.000002      0.000003      2.449784
| 13>   Cl     -0.000001     -0.000006     -2.504358
| 14> *
| 15> 
| 16>                          ****END OF INPUT****
================================================================================

                       *****************************
                       * Geometry Optimization Run *
                       *****************************

Geometry optimization settings:
Update method            Update   .... BFGS
Choice of coordinates    CoordSys .... (2022) Redundant Internals
Initial Hessian          InHess   .... Almloef's Model
Max. no of cycles        MaxIter  .... 500

Convergence Tolerances:
Energy Change            TolE     ....  5.0000e-06 Eh
Max. Gradient            TolMAXG  ....  3.0000e-04 Eh/bohr
RMS Gradient             TolRMSG  ....  1.0000e-04 Eh/bohr
Max. Displacement        TolMAXD  ....  4.0000e-03 bohr
RMS Displacement         TolRMSD  ....  2.0000e-03 bohr
Strict Convergence                .... False

------------------------------------------------------------------------------
                        ORCA OPTIMIZATION COORDINATE SETUP
------------------------------------------------------------------------------

The optimization will be done in redundant internal coordinates (2022)
Making redundant internal coordinates   ...  (2022 redundants) done
Evaluating the initial hessian          ...  (Almloef) done
Evaluating the coordinates              ...  done
Calculating the B-matrix                .... done
Calculating the G-matrix                .... done
The number of degrees of freedom        ....   17

    -----------------------------------------------------------------
                    Redundant Internal Coordinates


    -----------------------------------------------------------------
         Definition                    Initial Value    Approx d2E/dq
    -----------------------------------------------------------------
      1. B(H   1,C   0)                  1.0784         0.375719   
      2. B(H   2,C   0)                  1.0778         0.376674   
      3. B(H   3,C   0)                  1.0777         0.376722   
      4. B(I   4,C   0)                  2.1725         0.118545   
      5. B(Cl  5,H   3)                  2.6566         0.010000   
      6. B(Cl  5,H   2)                  2.6566         0.010000   
      7. B(Cl  5,H   1)                  2.6566         0.010000   
      8. B(Cl  5,C   0)                  2.7817         0.010000   
      9. A(H   1,C   0,H   3)          110.9956         0.294880   
     10. A(H   2,C   0,H   3)          111.0289         0.294999   
     11. A(H   1,C   0,I   4)          107.8763         0.287800   
     12. A(H   2,C   0,I   4)          107.8947         0.287915   
     13. A(H   3,C   0,I   4)          107.8955         0.287920   
     14. A(H   1,C   0,Cl  5)           72.1086         0.195570   
     15. A(H   2,C   0,Cl  5)           72.1124         0.195632   
     16. A(H   3,C   0,Cl  5)           72.1125         0.195635   
     17. A(H   1,C   0,H   2)          110.9941         0.294875   
    -----------------------------------------------------------------

Number of atoms                         .... 6
Number of degrees of freedom            .... 17


         *************************************************************
         *                GEOMETRY OPTIMIZATION CYCLE   1            *
         *************************************************************
---------------------------------
CARTESIAN COORDINATES (ANGSTROEM)
---------------------------------
  C    -0.000012   -0.000323    0.277333
  H    -0.000000    1.026004   -0.053863
  H     0.888348   -0.512909   -0.053754
  H    -0.888337   -0.512902   -0.053748
  I     0.000002    0.000003    2.449784
  Cl   -0.000001   -0.000006   -2.504358

----------------------------
CARTESIAN COORDINATES (A.U.)
----------------------------
  NO LB    ZA    FRAG    MASS        X           Y           Z
   0 C   6.0000    0    12.011   -0.000023   -0.000610    0.524083
   1 H   1.0000    0     1.008   -0.000000    1.938867   -0.101786
   2 H   1.0000    0     1.008    1.678734   -0.969258   -0.101580
   3 H   1.0000    0     1.008   -1.678714   -0.969244   -0.101569
   4 I  53.0000    0   126.900    0.000004    0.000006    4.629421
   5 Cl 17.0000    0    35.453   -0.000002   -0.000011   -4.732551

      -----------------------------------------------------------      
     |                   =====================                   |     
     |                           x T B                           |     
     |                   =====================                   |     
     |                         S. Grimme                         |     
     |          Mulliken Center for Theoretical Chemistry        |     
     |                    University of Bonn                     |     
      -----------------------------------------------------------      

   * xtb version 6.7.1 (edcfbbe) compiled by 'albert@albert-system' on 2024-07-22

   xtb is free software: you can redistribute it and/or modify it under
   the terms of the GNU Lesser General Public License as published by
   the Free Software Foundation, either version 3 of the License, or
   (at your option) any later version.
   
   xtb is distributed in the hope that it will be useful,
   but WITHOUT ANY WARRANTY; without even the implied warranty of
   MERCHANTABILITY or FITNESS FOR A PARTICULAR PURPOSE.  See the
   GNU Lesser General Public License for more details.
   
   Cite this work as:
   * C. Bannwarth, E. Caldeweyher, S. Ehlert, A. Hansen, P. Pracht,
     J. Seibert, S. Spicher, S. Grimme, WIREs Comput. Mol. Sci., 2020, 11,
     e01493. DOI: 10.1002/wcms.1493
   
   for GFN2-xTB:
   * C. Bannwarth, S. Ehlert and S. Grimme., J. Chem. Theory Comput., 2019,
     15, 1652-1671. DOI: 10.1021/acs.jctc.8b01176
   for GFN1-xTB:
   * S. Grimme, C. Bannwarth, P. Shushkov, J. Chem. Theory Comput., 2017,
     13, 1989-2009. DOI: 10.1021/acs.jctc.7b00118
   for GFN0-xTB:
   * P. Pracht, E. Caldeweyher, S. Ehlert, S. Grimme, ChemRxiv, 2019, preprint.
     DOI: 10.26434/chemrxiv.8326202.v1
   for GFN-FF:
   * S. Spicher and S. Grimme, Angew. Chem. Int. Ed., 2020, 59, 15665-15673.
     DOI: 10.1002/anie.202004239
   
   for ALPB and GBSA implicit solvation:
   * S. Ehlert, M. Stahn, S. Spicher, S. Grimme, J. Chem. Theory Comput.,
     2021, 17, 4250-4261. DOI: 10.1021/acs.jctc.1c00471
   
   for ddCOSMO and CPCM-X implicit solvation:
   * M. Stahn, S. Ehlert, S. Grimme, J. Phys. Chem. A,
     2023, XX, XXXX-XXXX. DOI: 10.1021/acs.jpca.3c04382
   
   for DFT-D4:
   * E. Caldeweyher, C. Bannwarth and S. Grimme, J. Chem. Phys., 2017,
     147, 034112. DOI: 10.1063/1.4993215
   * E. Caldeweyher, S. Ehlert, A. Hansen, H. Neugebauer, S. Spicher,
     C. Bannwarth and S. Grimme, J. Chem. Phys., 2019, 150, 154122.
     DOI: 10.1063/1.5090222
   * E. Caldeweyher, J.-M. Mewes, S. Ehlert and S. Grimme, Phys. Chem. Chem. Phys.
     2020, 22, 8499-8512. DOI: 10.1039/D0CP00502A
   
   for sTDA-xTB:
   * S. Grimme and C. Bannwarth, J. Chem. Phys., 2016, 145, 054103.
     DOI: 10.1063/1.4959605
   
   in the mass-spec context:
   * V. Asgeirsson, C. Bauer and S. Grimme, Chem. Sci., 2017, 8, 4879.
     DOI: 10.1039/c7sc00601b
   * J. Koopman and S. Grimme, ACS Omega 2019, 4, 12, 15120-15133.
     DOI: 10.1021/acsomega.9b02011
   
   for metadynamics refer to:
   * S. Grimme, J. Chem. Theory Comput., 2019, 155, 2847-2862
     DOI: 10.1021/acs.jctc.9b00143
   
   for SPH calculations refer to:
   * S. Spicher and S. Grimme, J. Chem. Theory Comput., 2021, 17, 1701-1714
     DOI: 10.1021/acs.jctc.0c01306
   
   for ONIOM refer to:
   * C. Plett, A. Katbashev, S. Ehlert, S. Grimme, M. Bursch,
     Phys. Chem. Chem. Phys., 2023, 25, 17860-17868. DOI: 10.1039/D3CP02178E
   
   for DIPRO refer to:
   * J. Kohn, N. Gildemeister, S. Grimme, D. Fazzi, A. Hansen,
     J. Chem. Phys., 2023, just accepted.
   
   for PTB refer to:
   * S. Grimme, M. Mueller, A. Hansen, J. Chem. Phys., 2023, 158, 124111.
     DOI: 10.1063/5.0137838
   
   with help from (in alphabetical order)
   P. Atkinson, C. Bannwarth, F. Bohle, G. Brandenburg, E. Caldeweyher
   M. Checinski, S. Dohm, S. Ehlert, S. Ehrlich, I. Gerasimov, C. Hölzer
   A. Katbashev, J. Kohn, J. Koopman, C. Lavigne, S. Lehtola, F. März, M. Müller,
   F. Musil, H. Neugebauer, J. Pisarek, C. Plett, P. Pracht, F. Pultar,
   J. Seibert, P. Shushkov, S. Spicher, M. Stahn, M. Steiner, T. Strunk,
   J. Stückrath, T. Rose, and J. Unsleber
   
 * started run on 2026/03/16 at 14:19:16.499     
   ID    Z sym.   atoms
    1    6 C      1
    2    1 H      2-4
    3   53 I      5
    4   17 Cl     6

           -------------------------------------------------
          |                Calculation Setup                |
           -------------------------------------------------

          program call               : /software/orca-6.1.0-el8-x86_64/bin/otool_xtb product_optfreq_XTB.xyz --grad -c -1 -u 0 -P 8 --namespace product_optfreq --input product_optfreq_XTB.input.tmp --acc 0.200000
          hostname                   : midway3-login4.rcc.local
          calculation namespace      : product_optfreq
          coordinate file            : product_optfreq_XTB.xyz
          omp threads                :                     8


molecular fragmentation (1/2 indicates fragments):
111112
# atoms in fragment 1/2:     5     1
 fragment masses (1/2) :      141.94       35.45
CMA distance (Bohr)    :   8.914
constraining FC (au)   :  0.0500

           -------------------------------------------------
          |                 G F N 2 - x T B                 |
           -------------------------------------------------

        Reference                      10.1021/acs.jctc.8b01176
      * Hamiltonian:
        H0-scaling (s, p, d)           1.850000    2.230000    2.230000
        zeta-weighting                 0.500000
      * Dispersion:
        s8                             2.700000
        a1                             0.520000
        a2                             5.000000
        s9                             5.000000
      * Repulsion:
        kExp                           1.500000    1.000000
        rExp                           1.000000
      * Coulomb:
        alpha                          2.000000
        third order                    shell-resolved
        anisotropic                    true
        a3                             3.000000
        a5                             4.000000
        cn-shift                       1.200000
        cn-exp                         4.000000
        max-rad                        5.000000


          ...................................................
          :                      SETUP                      :
          :.................................................:
          :  # basis functions                  27          :
          :  # atomic orbitals                  25          :
          :  # shells                           11          :
          :  # electrons                        22          :
          :  max. iterations                   250          :
          :  Hamiltonian                  GFN2-xTB          :
          :  restarted?                      false          :
          :  GBSA solvation                  false          :
          :  PC potential                    false          :
          :  electronic temp.          300.0000000     K    :
          :  accuracy                    0.2000000          :
          :  -> integral cutoff          0.3198970E+02      :
          :  -> integral neglect         0.2000000E-08      :
          :  -> SCF convergence          0.2000000E-06 Eh   :
          :  -> wf. convergence          0.2000000E-04 e    :
          :  Broyden damping             0.4000000          :
          :  net charge                         -1          :
          :  unpaired electrons                  0          :
          ...................................................

 iter      E             dE          RMSdq      gap      omega  full diag
   1    -12.3098725 -0.123099E+02  0.135E+01    5.11       0.0  T
   2    -12.3347055 -0.248329E-01  0.526E+00    4.80       1.0  T
   3    -12.3404515 -0.574606E-02  0.206E+00    3.13       1.0  T
   4    -12.3407931 -0.341574E-03  0.155E+00    2.94       1.0  T
   5    -12.3412659 -0.472833E-03  0.510E-01    2.75       1.0  T
   6    -12.3413955 -0.129573E-03  0.336E-01    2.75       1.0  T
   7    -12.3414171 -0.215729E-04  0.386E-02    2.84       1.1  T
   8    -12.3414196 -0.248127E-05  0.229E-02    2.81       1.8  T
   9    -12.3414201 -0.554420E-06  0.160E-02    2.81       2.6  T
  10    -12.3414206 -0.478912E-06  0.808E-03    2.82       5.1  T
  11    -12.3414206 -0.648200E-08  0.766E-04    2.82      53.3  T
  12    -12.3414206 -0.105567E-08  0.382E-04    2.82     107.0  T
  13    -12.3414206 -0.948752E-10  0.546E-06    2.82    7479.3  T
  14    -12.3414206 -0.284217E-13  0.276E-06    2.82   14786.1  T

   *** convergence criteria satisfied after 14 iterations ***

         #    Occupation            Energy/Eh            Energy/eV
      -------------------------------------------------------------
         1        2.0000           -0.8029528             -21.8495
       ...           ...                  ...                  ...
         5        2.0000           -0.3614335              -9.8351
         6        2.0000           -0.3456387              -9.4053
         7        2.0000           -0.2838924              -7.7251
         8        2.0000           -0.2838860              -7.7249
         9        2.0000           -0.2011732              -5.4742
        10        2.0000           -0.2002634              -5.4494
        11        2.0000           -0.2002632              -5.4494 (HOMO)
        12                         -0.0967733              -2.6333 (LUMO)
        13                          0.1567276               4.2648
        14                          0.1567500               4.2654
        15                          0.1857701               5.0551
        16                          0.1857810               5.0554
       ...                                ...                  ...
        25                          0.4826394              13.1333
      -------------------------------------------------------------
                  HL-Gap            0.1034899 Eh            2.8161 eV
             Fermi-level           -0.1485182 Eh           -4.0414 eV

 SCC (total)                   0 d,  0 h,  0 min,  0.009 sec
 SCC setup                      ...        0 min,  0.000 sec (  2.179%)
 Dispersion                     ...        0 min,  0.000 sec (  0.556%)
 classical contributions        ...        0 min,  0.000 sec (  0.424%)
 integral evaluation            ...        0 min,  0.006 sec ( 65.527%)
 iterations                     ...        0 min,  0.002 sec ( 22.682%)
 molecular gradient             ...        0 min,  0.001 sec (  6.783%)
 printout                       ...        0 min,  0.000 sec (  1.669%)

         :::::::::::::::::::::::::::::::::::::::::::::::::::::
         ::                     SUMMARY                     ::
         :::::::::::::::::::::::::::::::::::::::::::::::::::::
         :: total energy             -12.280328015897 Eh    ::
         :: gradient norm              0.001733527270 Eh/a0 ::
         :: HOMO-LUMO gap              2.816103248991 eV    ::
         ::.................................................::
         :: SCC energy               -12.341421452283 Eh    ::
         :: -> isotropic ES            0.145461167763 Eh    ::
         :: -> anisotropic ES         -0.008885718398 Eh    ::
         :: -> anisotropic XC         -0.003495895756 Eh    ::
         :: -> dispersion             -0.003185069704 Eh    ::
         :: repulsion energy           0.061093436387 Eh    ::
         :: add. restraining           0.000000000000 Eh    ::
         :: total charge              -1.000000000000 e     ::
         :::::::::::::::::::::::::::::::::::::::::::::::::::::


Property printout bound to 'properties.out'

           -------------------------------------------------
          | TOTAL ENERGY              -12.280328015897 Eh   |
          | GRADIENT NORM               0.001733527270 Eh/α |
          | HOMO-LUMO GAP               2.816103248991 eV   |
           -------------------------------------------------

------------------------------------------------------------------------
 * finished run on 2026/03/16 at 14:19:16.523     
------------------------------------------------------------------------
 total:
 * wall-time:     0 d,  0 h,  0 min,  0.023 sec
 *  cpu-time:     0 d,  0 h,  0 min,  0.147 sec
 * ratio c/w:     6.327 speedup
 SCF:
 * wall-time:     0 d,  0 h,  0 min,  0.009 sec
 *  cpu-time:     0 d,  0 h,  0 min,  0.070 sec
 * ratio c/w:     7.482 speedup


-------------------------   --------------------
FINAL SINGLE POINT ENERGY       -12.280328015900
-------------------------   --------------------


-------------
DIPOLE MOMENT
-------------
                                X             Y             Z
Total Dipole Moment    :     -0.00000      -0.00000       1.93800
                        -----------------------------------------
Magnitude (a.u.)       :      1.93800
Magnitude (Debye)      :      4.92600


------------------
CARTESIAN GRADIENT
------------------

   1   C   :   -0.000018667   -0.000450025   -0.000378277
   2   H   :    0.000000645    0.000290041   -0.000405901
   3   H   :   -0.000090796    0.000070110   -0.000281215
   4   H   :    0.000108399    0.000079527   -0.000275076
   5   I   :    0.000000354    0.000008751   -0.000143947
   6   Cl  :    0.000000065    0.000001596    0.001484416

Difference to translation invariance:
           :    0.0000000000   -0.0000000000    0.0000000000

Difference to rotation invariance:
           :    0.0000000210   -0.0000000001   -0.0000000000

Norm of the Cartesian gradient     ...    0.0017335273
RMS gradient                       ...    0.0004085963
MAX gradient                       ...    0.0014844156
------------------------------------------------------------------------------
                         ORCA GEOMETRY RELAXATION STEP
------------------------------------------------------------------------------

Reading the OPT-File                    .... done
Getting information on internals        .... done
Copying old internal coords+grads       .... done
Making the new internal coordinates     .... (2022 redundants) done
Validating the new internal coordinates .... (2022 redundants) done
Calculating the B-matrix                .... done
Calculating the G,G- and P matrices     .... done
Transforming gradient to internals      .... done
Projecting the internal gradient        .... done
Number of atoms                         ....   6
Number of internal coordinates          ....  17
Current Energy                          ....   -12.280328016 Eh
Current gradient norm                   ....     0.001733527 Eh/bohr
Maximum allowed component of the step   ....  0.300
Current trust radius                    ....  0.300
Evaluating the initial hessian          ....  (Almloef) done
Projecting the Hessian                  .... done
Forming the augmented Hessian           .... done
Diagonalizing the augmented Hessian     .... done
Last element of RFO vector              ....  0.996949474
Lowest eigenvalues of augmented Hessian:
 -0.000062433  0.010061638  0.046211181  0.046244387  0.118544784
Length of the computed step             ....  0.078288466
The final length of the internal step   ....  0.078288466
Converting the step to Cartesian space:
 Initial RMS(Int)=    0.0189877420
Transforming coordinates:
 Iter   0:  RMS(Cart)=    0.0090368486 RMS(Int)=    0.0189973237
done
Storing new coordinates                 .... done

                                .--------------------.
          ----------------------|Geometry convergence|-------------------------
          Item                value                   Tolerance       Converged
          ---------------------------------------------------------------------
          RMS gradient        0.0002236010            0.0001000000      NO
          MAX gradient        0.0004907741            0.0003000000      NO
          RMS step            0.0189877420            0.0020000000      NO
          MAX step            0.0419033243            0.0040000000      NO
          -------------------------------------------------------------------------
          ........................................................
          Max(Bonds)      0.0222      Max(Angles)    0.02
          Max(Dihed)        0.00      Max(Improp)    0.00
          ---------------------------------------------------------------------

The optimization has not yet converged - more geometry cycles are needed


    ---------------------------------------------------------------------------
                         Redundant Internal Coordinates
                            (Angstroem and degrees)

        Definition                    Value    dE/dq     Step     New-Value
    ----------------------------------------------------------------------------
     1. B(H   1,C   0)                1.0784  0.000431 -0.0006    1.0778   
     2. B(H   2,C   0)                1.0778  0.000008 -0.0000    1.0777   
     3. B(H   3,C   0)                1.0777 -0.000012  0.0000    1.0777   
     4. B(I   4,C   0)                2.1725 -0.000144  0.0006    2.1731   
     5. B(Cl  5,H   3)                2.6566 -0.000360  0.0202    2.6768   
     6. B(Cl  5,H   2)                2.6566 -0.000360  0.0202    2.6768   
     7. B(Cl  5,H   1)                2.6566 -0.000357  0.0202    2.6768   
     8. B(Cl  5,C   0)                2.7817 -0.000491  0.0222    2.8039   
     9. A(H   1,C   0,H   3)          111.00  0.000027   -0.01    110.99   
    10. A(H   2,C   0,H   3)          111.03  0.000061   -0.02    111.01   
    11. A(H   1,C   0,I   4)          107.88 -0.000064    0.02    107.89   
    12. A(H   2,C   0,I   4)          107.89 -0.000029    0.01    107.91   
    13. A(H   3,C   0,I   4)          107.90 -0.000027    0.01    107.91   
    14. A(H   1,C   0,Cl  5)           72.11  0.000029   -0.01     72.10   
    15. A(H   2,C   0,Cl  5)           72.11  0.000045   -0.01     72.10   
    16. A(H   3,C   0,Cl  5)           72.11  0.000046   -0.01     72.10   
    17. A(H   1,C   0,H   2)          110.99  0.000026   -0.01    110.98   
    ----------------------------------------------------------------------------

Geometry step timings:
Preparation and reading OPT file:      0.000 s ( 2.310 %)
Internal coordinates            :      0.000 s ( 2.829 %)
B/P matrices and projection     :      0.000 s ( 8.157 %)
Hessian update/contruction      :      0.001 s (36.021 %)
Making the step                 :      0.000 s (10.655 %)
Converting the step to Cartesian:      0.000 s ( 3.866 %)
Storing new data                :      0.000 s ( 7.025 %)
Checking convergence            :      0.000 s ( 6.365 %)
Final printing                  :      0.000 s (22.584 %)
Total time                      :      0.002 s

Time for energy+gradient        :      0.033 s
Time for complete geometry iter :      0.037 s

         *************************************************************
         *                GEOMETRY OPTIMIZATION CYCLE   2            *
         *************************************************************
---------------------------------
CARTESIAN COORDINATES (ANGSTROEM)
---------------------------------
  C    -0.000005   -0.000162    0.281006
  H     0.000004    1.025500   -0.050265
  H     0.888252   -0.512754   -0.050297
  H    -0.888254   -0.512760   -0.050298
  I     0.000004    0.000045    2.454099
  Cl   -0.000001   -0.000002   -2.522851

----------------------------
CARTESIAN COORDINATES (A.U.)
----------------------------
  NO LB    ZA    FRAG    MASS        X           Y           Z
   0 C   6.0000    0    12.011   -0.000010   -0.000306    0.531024
   1 H   1.0000    0     1.008    0.000008    1.937914   -0.094988
   2 H   1.0000    0     1.008    1.678553   -0.968965   -0.095047
   3 H   1.0000    0     1.008   -1.678557   -0.968975   -0.095049
   4 I  53.0000    0   126.900    0.000007    0.000084    4.637575
   5 Cl 17.0000    0    35.453   -0.000002   -0.000003   -4.767498

      -----------------------------------------------------------      
     |                   =====================                   |     
     |                           x T B                           |     
     |                   =====================                   |     
     |                         S. Grimme                         |     
     |          Mulliken Center for Theoretical Chemistry        |     
     |                    University of Bonn                     |     
      -----------------------------------------------------------      

   * xtb version 6.7.1 (edcfbbe) compiled by 'albert@albert-system' on 2024-07-22

   xtb is free software: you can redistribute it and/or modify it under
   the terms of the GNU Lesser General Public License as published by
   the Free Software Foundation, either version 3 of the License, or
   (at your option) any later version.
   
   xtb is distributed in the hope that it will be useful,
   but WITHOUT ANY WARRANTY; without even the implied warranty of
   MERCHANTABILITY or FITNESS FOR A PARTICULAR PURPOSE.  See the
   GNU Lesser General Public License for more details.
   
   Cite this work as:
   * C. Bannwarth, E. Caldeweyher, S. Ehlert, A. Hansen, P. Pracht,
     J. Seibert, S. Spicher, S. Grimme, WIREs Comput. Mol. Sci., 2020, 11,
     e01493. DOI: 10.1002/wcms.1493
   
   for GFN2-xTB:
   * C. Bannwarth, S. Ehlert and S. Grimme., J. Chem. Theory Comput., 2019,
     15, 1652-1671. DOI: 10.1021/acs.jctc.8b01176
   for GFN1-xTB:
   * S. Grimme, C. Bannwarth, P. Shushkov, J. Chem. Theory Comput., 2017,
     13, 1989-2009. DOI: 10.1021/acs.jctc.7b00118
   for GFN0-xTB:
   * P. Pracht, E. Caldeweyher, S. Ehlert, S. Grimme, ChemRxiv, 2019, preprint.
     DOI: 10.26434/chemrxiv.8326202.v1
   for GFN-FF:
   * S. Spicher and S. Grimme, Angew. Chem. Int. Ed., 2020, 59, 15665-15673.
     DOI: 10.1002/anie.202004239
   
   for ALPB and GBSA implicit solvation:
   * S. Ehlert, M. Stahn, S. Spicher, S. Grimme, J. Chem. Theory Comput.,
     2021, 17, 4250-4261. DOI: 10.1021/acs.jctc.1c00471
   
   for ddCOSMO and CPCM-X implicit solvation:
   * M. Stahn, S. Ehlert, S. Grimme, J. Phys. Chem. A,
     2023, XX, XXXX-XXXX. DOI: 10.1021/acs.jpca.3c04382
   
   for DFT-D4:
   * E. Caldeweyher, C. Bannwarth and S. Grimme, J. Chem. Phys., 2017,
     147, 034112. DOI: 10.1063/1.4993215
   * E. Caldeweyher, S. Ehlert, A. Hansen, H. Neugebauer, S. Spicher,
     C. Bannwarth and S. Grimme, J. Chem. Phys., 2019, 150, 154122.
     DOI: 10.1063/1.5090222
   * E. Caldeweyher, J.-M. Mewes, S. Ehlert and S. Grimme, Phys. Chem. Chem. Phys.
     2020, 22, 8499-8512. DOI: 10.1039/D0CP00502A
   
   for sTDA-xTB:
   * S. Grimme and C. Bannwarth, J. Chem. Phys., 2016, 145, 054103.
     DOI: 10.1063/1.4959605
   
   in the mass-spec context:
   * V. Asgeirsson, C. Bauer and S. Grimme, Chem. Sci., 2017, 8, 4879.
     DOI: 10.1039/c7sc00601b
   * J. Koopman and S. Grimme, ACS Omega 2019, 4, 12, 15120-15133.
     DOI: 10.1021/acsomega.9b02011
   
   for metadynamics refer to:
   * S. Grimme, J. Chem. Theory Comput., 2019, 155, 2847-2862
     DOI: 10.1021/acs.jctc.9b00143
   
   for SPH calculations refer to:
   * S. Spicher and S. Grimme, J. Chem. Theory Comput., 2021, 17, 1701-1714
     DOI: 10.1021/acs.jctc.0c01306
   
   for ONIOM refer to:
   * C. Plett, A. Katbashev, S. Ehlert, S. Grimme, M. Bursch,
     Phys. Chem. Chem. Phys., 2023, 25, 17860-17868. DOI: 10.1039/D3CP02178E
   
   for DIPRO refer to:
   * J. Kohn, N. Gildemeister, S. Grimme, D. Fazzi, A. Hansen,
     J. Chem. Phys., 2023, just accepted.
   
   for PTB refer to:
   * S. Grimme, M. Mueller, A. Hansen, J. Chem. Phys., 2023, 158, 124111.
     DOI: 10.1063/5.0137838
   
   with help from (in alphabetical order)
   P. Atkinson, C. Bannwarth, F. Bohle, G. Brandenburg, E. Caldeweyher
   M. Checinski, S. Dohm, S. Ehlert, S. Ehrlich, I. Gerasimov, C. Hölzer
   A. Katbashev, J. Kohn, J. Koopman, C. Lavigne, S. Lehtola, F. März, M. Müller,
   F. Musil, H. Neugebauer, J. Pisarek, C. Plett, P. Pracht, F. Pultar,
   J. Seibert, P. Shushkov, S. Spicher, M. Stahn, M. Steiner, T. Strunk,
   J. Stückrath, T. Rose, and J. Unsleber
   
 * started run on 2026/03/16 at 14:19:16.536     
   ID    Z sym.   atoms
    1    6 C      1
    2    1 H      2-4
    3   53 I      5
    4   17 Cl     6

           -------------------------------------------------
          |                Calculation Setup                |
           -------------------------------------------------

          program call               : /software/orca-6.1.0-el8-x86_64/bin/otool_xtb product_optfreq_XTB.xyz --grad -c -1 -u 0 -P 8 --namespace product_optfreq --input product_optfreq_XTB.input.tmp --acc 0.200000
          hostname                   : midway3-login4.rcc.local
          calculation namespace      : product_optfreq
          coordinate file            : product_optfreq_XTB.xyz
          omp threads                :                     8


molecular fragmentation (1/2 indicates fragments):
111112
# atoms in fragment 1/2:     5     1
 fragment masses (1/2) :      141.94       35.45
CMA distance (Bohr)    :   8.957
constraining FC (au)   :  0.0500

           -------------------------------------------------
          |                 G F N 2 - x T B                 |
           -------------------------------------------------

        Reference                      10.1021/acs.jctc.8b01176
      * Hamiltonian:
        H0-scaling (s, p, d)           1.850000    2.230000    2.230000
        zeta-weighting                 0.500000
      * Dispersion:
        s8                             2.700000
        a1                             0.520000
        a2                             5.000000
        s9                             5.000000
      * Repulsion:
        kExp                           1.500000    1.000000
        rExp                           1.000000
      * Coulomb:
        alpha                          2.000000
        third order                    shell-resolved
        anisotropic                    true
        a3                             3.000000
        a5                             4.000000
        cn-shift                       1.200000
        cn-exp                         4.000000
        max-rad                        5.000000

q/qsh data taken from xtbrestart
CAMM data taken from xtbrestart

          ...................................................
          :                      SETUP                      :
          :.................................................:
          :  # basis functions                  27          :
          :  # atomic orbitals                  25          :
          :  # shells                           11          :
          :  # electrons                        22          :
          :  max. iterations                   250          :
          :  Hamiltonian                  GFN2-xTB          :
          :  restarted?                       true          :
          :  GBSA solvation                  false          :
          :  PC potential                    false          :
          :  electronic temp.          300.0000000     K    :
          :  accuracy                    0.2000000          :
          :  -> integral cutoff          0.3198970E+02      :
          :  -> integral neglect         0.2000000E-08      :
          :  -> SCF convergence          0.2000000E-06 Eh   :
          :  -> wf. convergence          0.2000000E-04 e    :
          :  Broyden damping             0.4000000          :
          :  net charge                         -1          :
          :  unpaired electrons                  0          :
          ...................................................

 iter      E             dE          RMSdq      gap      omega  full diag
   1    -12.3415251 -0.123415E+02  0.603E-02    2.78       0.0  T
   2    -12.3415280 -0.289277E-05  0.440E-02    2.77       1.0  T
   3    -12.3415286 -0.609722E-06  0.240E-02    2.77       1.7  T
   4    -12.3415287 -0.481751E-07  0.129E-02    2.76       3.2  T
   5    -12.3415287 -0.719828E-07  0.440E-03    2.76       9.3  T
   6    -12.3415288 -0.120490E-07  0.127E-03    2.76      32.3  T
   7    -12.3415288 -0.329726E-09  0.545E-04    2.76      75.0  T
   8    -12.3415288 -0.127402E-09  0.166E-04    2.76     245.6  T
   9    -12.3415288 -0.461533E-10  0.469E-05    2.76     871.3  T

   *** convergence criteria satisfied after 9 iterations ***

         #    Occupation            Energy/Eh            Energy/eV
      -------------------------------------------------------------
         1        2.0000           -0.8021292             -21.8270
       ...           ...                  ...                  ...
         5        2.0000           -0.3623517              -9.8601
         6        2.0000           -0.3465868              -9.4311
         7        2.0000           -0.2848325              -7.7507
         8        2.0000           -0.2848283              -7.7506
         9        2.0000           -0.2007359              -5.4623
        10        2.0000           -0.1997321              -5.4350
        11        2.0000           -0.1997320              -5.4350 (HOMO)
        12                         -0.0982334              -2.6731 (LUMO)
        13                          0.1555809               4.2336
        14                          0.1555898               4.2338
        15                          0.1845286               5.0213
        16                          0.1845337               5.0214
       ...                                ...                  ...
        25                          0.4808694              13.0851
      -------------------------------------------------------------
                  HL-Gap            0.1014986 Eh            2.7619 eV
             Fermi-level           -0.1489827 Eh           -4.0540 eV

 SCC (total)                   0 d,  0 h,  0 min,  0.009 sec
 SCC setup                      ...        0 min,  0.000 sec (  2.298%)
 Dispersion                     ...        0 min,  0.000 sec (  0.581%)
 classical contributions        ...        0 min,  0.000 sec (  0.333%)
 integral evaluation            ...        0 min,  0.007 sec ( 73.128%)
 iterations                     ...        0 min,  0.001 sec ( 15.513%)
 molecular gradient             ...        0 min,  0.001 sec (  6.537%)
 printout                       ...        0 min,  0.000 sec (  1.469%)

         :::::::::::::::::::::::::::::::::::::::::::::::::::::
         ::                     SUMMARY                     ::
         :::::::::::::::::::::::::::::::::::::::::::::::::::::
         :: total energy             -12.280374094345 Eh    ::
         :: gradient norm              0.001324953524 Eh/a0 ::
         :: HOMO-LUMO gap              2.761917730099 eV    ::
         ::.................................................::
         :: SCC energy               -12.341529630791 Eh    ::
         :: -> isotropic ES            0.145891931850 Eh    ::
         :: -> anisotropic ES         -0.008787413876 Eh    ::
         :: -> anisotropic XC         -0.003425445579 Eh    ::
         :: -> dispersion             -0.003171628134 Eh    ::
         :: repulsion energy           0.061155536446 Eh    ::
         :: add. restraining           0.000000000000 Eh    ::
         :: total charge              -1.000000000000 e     ::
         :::::::::::::::::::::::::::::::::::::::::::::::::::::


Property printout bound to 'properties.out'

           -------------------------------------------------
          | TOTAL ENERGY              -12.280374094345 Eh   |
          | GRADIENT NORM               0.001324953524 Eh/α |
          | HOMO-LUMO GAP               2.761917730099 eV   |
           -------------------------------------------------

------------------------------------------------------------------------
 * finished run on 2026/03/16 at 14:19:16.557     
------------------------------------------------------------------------
 total:
 * wall-time:     0 d,  0 h,  0 min,  0.021 sec
 *  cpu-time:     0 d,  0 h,  0 min,  0.137 sec
 * ratio c/w:     6.654 speedup
 SCF:
 * wall-time:     0 d,  0 h,  0 min,  0.010 sec
 *  cpu-time:     0 d,  0 h,  0 min,  0.069 sec
 * ratio c/w:     7.226 speedup


-------------------------   --------------------
FINAL SINGLE POINT ENERGY       -12.280374094340
-------------------------   --------------------


-------------
DIPOLE MOMENT
-------------
                                X             Y             Z
Total Dipole Moment    :     -0.00000      -0.00000       1.99700
                        -----------------------------------------
Magnitude (a.u.)       :      1.99700
Magnitude (Debye)      :      5.07597


------------------
CARTESIAN GRADIENT
------------------

   1   C   :   -0.000003763   -0.000092369   -0.000844633
   2   H   :    0.000001020   -0.000130811   -0.000165732
   3   H   :   -0.000141340    0.000107852   -0.000151777
   4   H   :    0.000143787    0.000108086   -0.000151113
   5   I   :    0.000000280    0.000006836    0.000565065
   6   Cl  :    0.000000016    0.000000406    0.000748190

Difference to translation invariance:
           :    0.0000000000   -0.0000000000   -0.0000000000

Difference to rotation invariance:
           :   -0.0000000007    0.0000000007   -0.0000000000

Norm of the Cartesian gradient     ...    0.0013249535
RMS gradient                       ...    0.0003122945
MAX gradient                       ...    0.0008446327
------------------------------------------------------------------------------
                         ORCA GEOMETRY RELAXATION STEP
------------------------------------------------------------------------------

Reading the OPT-File                    .... done
Getting information on internals        .... done
Copying old internal coords+grads       .... done
Making the new internal coordinates     .... (2022 redundants) done
Validating the new internal coordinates .... (2022 redundants) done
Calculating the B-matrix                .... done
Calculating the G,G- and P matrices     .... done
Transforming gradient to internals      .... done
Projecting the internal gradient        .... done
Number of atoms                         ....   6
Number of internal coordinates          ....  17
Current Energy                          ....   -12.280374094 Eh
Current gradient norm                   ....     0.001324954 Eh/bohr
Maximum allowed component of the step   ....  0.300
Current trust radius                    ....  0.300
Updating the Hessian (BFGS)             .... done
Forming the augmented Hessian           .... done
Diagonalizing the augmented Hessian     .... done
Last element of RFO vector              ....  0.995645022
Lowest eigenvalues of augmented Hessian:
 -0.000042145  0.004556082  0.046211185  0.046244387  0.133588377
Length of the computed step             ....  0.093633255
The final length of the internal step   ....  0.093633255
Converting the step to Cartesian space:
 Initial RMS(Int)=    0.0227094000
Transforming coordinates:
 Iter   0:  RMS(Cart)=    0.0103955960 RMS(Int)=    0.0227213589
done
Storing new coordinates                 .... done
The predicted energy change is          ....    -0.000021257
Previously predicted energy change      ....    -0.000031408
Actually observed energy change         ....    -0.000046078
Ratio of predicted to observed change   ....     1.467100381
New trust radius                        ....     0.300000000

                                .--------------------.
          ----------------------|Geometry convergence|-------------------------
          Item                value                   Tolerance       Converged
          ---------------------------------------------------------------------
          Energy change      -0.0000460784            0.0000050000      NO
          RMS gradient        0.0001723399            0.0001000000      NO
          MAX gradient        0.0005650659            0.0003000000      NO
          RMS step            0.0227094000            0.0020000000      NO
          MAX step            0.0494437808            0.0040000000      NO
          -------------------------------------------------------------------------
          ........................................................
          Max(Bonds)      0.0262      Max(Angles)    0.02
          Max(Dihed)        0.00      Max(Improp)    0.00
          ---------------------------------------------------------------------

The optimization has not yet converged - more geometry cycles are needed


    ---------------------------------------------------------------------------
                         Redundant Internal Coordinates
                            (Angstroem and degrees)

        Definition                    Value    dE/dq     Step     New-Value
    ----------------------------------------------------------------------------
     1. B(H   1,C   0)                1.0778 -0.000058  0.0000    1.0779   
     2. B(H   2,C   0)                1.0777 -0.000105  0.0003    1.0780   
     3. B(H   3,C   0)                1.0777 -0.000108  0.0003    1.0780   
     4. B(I   4,C   0)                2.1731  0.000565 -0.0047    2.1684   
     5. B(Cl  5,H   3)                2.6768 -0.000197  0.0241    2.7010   
     6. B(Cl  5,H   2)                2.6768 -0.000197  0.0241    2.7010   
     7. B(Cl  5,H   1)                2.6768 -0.000197  0.0241    2.7010   
     8. B(Cl  5,C   0)                2.8039 -0.000202  0.0262    2.8300   
     9. A(H   1,C   0,H   3)          110.99 -0.000017    0.00    110.99   
    10. A(H   2,C   0,H   3)          111.01  0.000033   -0.02    111.00   
    11. A(H   1,C   0,I   4)          107.89 -0.000017    0.01    107.90   
    12. A(H   2,C   0,I   4)          107.91  0.000010   -0.00    107.90   
    13. A(H   3,C   0,I   4)          107.91  0.000011   -0.00    107.90   
    14. A(H   1,C   0,Cl  5)           72.10 -0.000003   -0.00     72.10   
    15. A(H   2,C   0,Cl  5)           72.10 -0.000001   -0.00     72.10   
    16. A(H   3,C   0,Cl  5)           72.10 -0.000001   -0.00     72.10   
    17. A(H   1,C   0,H   2)          110.98 -0.000020    0.01    110.99   
    ----------------------------------------------------------------------------

Geometry step timings:
Preparation and reading OPT file:      0.000 s ( 2.665 %)
Internal coordinates            :      0.000 s ( 3.997 %)
B/P matrices and projection     :      0.000 s (11.677 %)
Hessian update/contruction      :      0.000 s (29.702 %)
Making the step                 :      0.000 s ( 8.150 %)
Converting the step to Cartesian:      0.000 s ( 2.978 %)
Storing new data                :      0.000 s ( 7.524 %)
Checking convergence            :      0.000 s ( 8.542 %)
Final printing                  :      0.000 s (24.765 %)
Total time                      :      0.001 s

Time for energy+gradient        :      0.030 s
Time for complete geometry iter :      0.033 s

         *************************************************************
         *                GEOMETRY OPTIMIZATION CYCLE   3            *
         *************************************************************
---------------------------------
CARTESIAN COORDINATES (ANGSTROEM)
---------------------------------
  C     0.000001   -0.000003    0.286202
  H     0.000003    1.025650   -0.045164
  H     0.888404   -0.512871   -0.045203
  H    -0.888409   -0.512876   -0.045204
  I     0.000002   -0.000002    2.454565
  Cl   -0.000002   -0.000031   -2.543801

----------------------------
CARTESIAN COORDINATES (A.U.)
----------------------------
  NO LB    ZA    FRAG    MASS        X           Y           Z
   0 C   6.0000    0    12.011    0.000002   -0.000006    0.540843
   1 H   1.0000    0     1.008    0.000006    1.938197   -0.085348
   2 H   1.0000    0     1.008    1.678841   -0.969185   -0.085421
   3 H   1.0000    0     1.008   -1.678849   -0.969196   -0.085423
   4 I  53.0000    0   126.900    0.000004   -0.000004    4.638456
   5 Cl 17.0000    0    35.453   -0.000004   -0.000058   -4.807088

      -----------------------------------------------------------      
     |                   =====================                   |     
     |                           x T B                           |     
     |                   =====================                   |     
     |                         S. Grimme                         |     
     |          Mulliken Center for Theoretical Chemistry        |     
     |                    University of Bonn                     |     
      -----------------------------------------------------------      

   * xtb version 6.7.1 (edcfbbe) compiled by 'albert@albert-system' on 2024-07-22

   xtb is free software: you can redistribute it and/or modify it under
   the terms of the GNU Lesser General Public License as published by
   the Free Software Foundation, either version 3 of the License, or
   (at your option) any later version.
   
   xtb is distributed in the hope that it will be useful,
   but WITHOUT ANY WARRANTY; without even the implied warranty of
   MERCHANTABILITY or FITNESS FOR A PARTICULAR PURPOSE.  See the
   GNU Lesser General Public License for more details.
   
   Cite this work as:
   * C. Bannwarth, E. Caldeweyher, S. Ehlert, A. Hansen, P. Pracht,
     J. Seibert, S. Spicher, S. Grimme, WIREs Comput. Mol. Sci., 2020, 11,
     e01493. DOI: 10.1002/wcms.1493
   
   for GFN2-xTB:
   * C. Bannwarth, S. Ehlert and S. Grimme., J. Chem. Theory Comput., 2019,
     15, 1652-1671. DOI: 10.1021/acs.jctc.8b01176
   for GFN1-xTB:
   * S. Grimme, C. Bannwarth, P. Shushkov, J. Chem. Theory Comput., 2017,
     13, 1989-2009. DOI: 10.1021/acs.jctc.7b00118
   for GFN0-xTB:
   * P. Pracht, E. Caldeweyher, S. Ehlert, S. Grimme, ChemRxiv, 2019, preprint.
     DOI: 10.26434/chemrxiv.8326202.v1
   for GFN-FF:
   * S. Spicher and S. Grimme, Angew. Chem. Int. Ed., 2020, 59, 15665-15673.
     DOI: 10.1002/anie.202004239
   
   for ALPB and GBSA implicit solvation:
   * S. Ehlert, M. Stahn, S. Spicher, S. Grimme, J. Chem. Theory Comput.,
     2021, 17, 4250-4261. DOI: 10.1021/acs.jctc.1c00471
   
   for ddCOSMO and CPCM-X implicit solvation:
   * M. Stahn, S. Ehlert, S. Grimme, J. Phys. Chem. A,
     2023, XX, XXXX-XXXX. DOI: 10.1021/acs.jpca.3c04382
   
   for DFT-D4:
   * E. Caldeweyher, C. Bannwarth and S. Grimme, J. Chem. Phys., 2017,
     147, 034112. DOI: 10.1063/1.4993215
   * E. Caldeweyher, S. Ehlert, A. Hansen, H. Neugebauer, S. Spicher,
     C. Bannwarth and S. Grimme, J. Chem. Phys., 2019, 150, 154122.
     DOI: 10.1063/1.5090222
   * E. Caldeweyher, J.-M. Mewes, S. Ehlert and S. Grimme, Phys. Chem. Chem. Phys.
     2020, 22, 8499-8512. DOI: 10.1039/D0CP00502A
   
   for sTDA-xTB:
   * S. Grimme and C. Bannwarth, J. Chem. Phys., 2016, 145, 054103.
     DOI: 10.1063/1.4959605
   
   in the mass-spec context:
   * V. Asgeirsson, C. Bauer and S. Grimme, Chem. Sci., 2017, 8, 4879.
     DOI: 10.1039/c7sc00601b
   * J. Koopman and S. Grimme, ACS Omega 2019, 4, 12, 15120-15133.
     DOI: 10.1021/acsomega.9b02011
   
   for metadynamics refer to:
   * S. Grimme, J. Chem. Theory Comput., 2019, 155, 2847-2862
     DOI: 10.1021/acs.jctc.9b00143
   
   for SPH calculations refer to:
   * S. Spicher and S. Grimme, J. Chem. Theory Comput., 2021, 17, 1701-1714
     DOI: 10.1021/acs.jctc.0c01306
   
   for ONIOM refer to:
   * C. Plett, A. Katbashev, S. Ehlert, S. Grimme, M. Bursch,
     Phys. Chem. Chem. Phys., 2023, 25, 17860-17868. DOI: 10.1039/D3CP02178E
   
   for DIPRO refer to:
   * J. Kohn, N. Gildemeister, S. Grimme, D. Fazzi, A. Hansen,
     J. Chem. Phys., 2023, just accepted.
   
   for PTB refer to:
   * S. Grimme, M. Mueller, A. Hansen, J. Chem. Phys., 2023, 158, 124111.
     DOI: 10.1063/5.0137838
   
   with help from (in alphabetical order)
   P. Atkinson, C. Bannwarth, F. Bohle, G. Brandenburg, E. Caldeweyher
   M. Checinski, S. Dohm, S. Ehlert, S. Ehrlich, I. Gerasimov, C. Hölzer
   A. Katbashev, J. Kohn, J. Koopman, C. Lavigne, S. Lehtola, F. März, M. Müller,
   F. Musil, H. Neugebauer, J. Pisarek, C. Plett, P. Pracht, F. Pultar,
   J. Seibert, P. Shushkov, S. Spicher, M. Stahn, M. Steiner, T. Strunk,
   J. Stückrath, T. Rose, and J. Unsleber
   
 * started run on 2026/03/16 at 14:19:16.569     
   ID    Z sym.   atoms
    1    6 C      1
    2    1 H      2-4
    3   53 I      5
    4   17 Cl     6

           -------------------------------------------------
          |                Calculation Setup                |
           -------------------------------------------------

          program call               : /software/orca-6.1.0-el8-x86_64/bin/otool_xtb product_optfreq_XTB.xyz --grad -c -1 -u 0 -P 8 --namespace product_optfreq --input product_optfreq_XTB.input.tmp --acc 0.200000
          hostname                   : midway3-login4.rcc.local
          calculation namespace      : product_optfreq
          coordinate file            : product_optfreq_XTB.xyz
          omp threads                :                     8


molecular fragmentation (1/2 indicates fragments):
111112
# atoms in fragment 1/2:     5     1
 fragment masses (1/2) :      141.94       35.45
CMA distance (Bohr)    :   8.998
constraining FC (au)   :  0.0500

           -------------------------------------------------
          |                 G F N 2 - x T B                 |
           -------------------------------------------------

        Reference                      10.1021/acs.jctc.8b01176
      * Hamiltonian:
        H0-scaling (s, p, d)           1.850000    2.230000    2.230000
        zeta-weighting                 0.500000
      * Dispersion:
        s8                             2.700000
        a1                             0.520000
        a2                             5.000000
        s9                             5.000000
      * Repulsion:
        kExp                           1.500000    1.000000
        rExp                           1.000000
      * Coulomb:
        alpha                          2.000000
        third order                    shell-resolved
        anisotropic                    true
        a3                             3.000000
        a5                             4.000000
        cn-shift                       1.200000
        cn-exp                         4.000000
        max-rad                        5.000000

q/qsh data taken from xtbrestart
CAMM data taken from xtbrestart

          ...................................................
          :                      SETUP                      :
          :.................................................:
          :  # basis functions                  27          :
          :  # atomic orbitals                  25          :
          :  # shells                           11          :
          :  # electrons                        22          :
          :  max. iterations                   250          :
          :  Hamiltonian                  GFN2-xTB          :
          :  restarted?                       true          :
          :  GBSA solvation                  false          :
          :  PC potential                    false          :
          :  electronic temp.          300.0000000     K    :
          :  accuracy                    0.2000000          :
          :  -> integral cutoff          0.3198970E+02      :
          :  -> integral neglect         0.2000000E-08      :
          :  -> SCF convergence          0.2000000E-06 Eh   :
          :  -> wf. convergence          0.2000000E-04 e    :
          :  Broyden damping             0.4000000          :
          :  net charge                         -1          :
          :  unpaired electrons                  0          :
          ...................................................

 iter      E             dE          RMSdq      gap      omega  full diag
   1    -12.3416431 -0.123416E+02  0.112E-01    2.76       0.0  T
   2    -12.3416492 -0.611376E-05  0.429E-02    2.74       1.0  T
   3    -12.3416504 -0.115620E-05  0.194E-02    2.73       2.1  T
   4    -12.3416504 -0.377894E-07  0.167E-02    2.73       2.4  T
   5    -12.3416505 -0.923726E-07  0.362E-03    2.72      11.3  T
   6    -12.3416505 -0.960558E-08  0.128E-03    2.73      31.9  T
   7    -12.3416505 -0.716815E-09  0.856E-04    2.73      47.7  T
   8    -12.3416505 -0.193706E-09  0.106E-04    2.73     386.0  T
   9    -12.3416505 -0.537170E-11  0.352E-05    2.73    1160.4  T

   *** convergence criteria satisfied after 9 iterations ***

         #    Occupation            Energy/Eh            Energy/eV
      -------------------------------------------------------------
         1        2.0000           -0.8009853             -21.7959
       ...           ...                  ...                  ...
         5        2.0000           -0.3635816              -9.8936
         6        2.0000           -0.3480455              -9.4708
         7        2.0000           -0.2860912              -7.7849
         8        2.0000           -0.2860907              -7.7849
         9        2.0000           -0.2000591              -5.4439
        10        2.0000           -0.1989993              -5.4150
        11        2.0000           -0.1989993              -5.4150 (HOMO)
        12                         -0.0988568              -2.6900 (LUMO)
        13                          0.1536808               4.1819
        14                          0.1536826               4.1819
        15                          0.1830773               4.9818
        16                          0.1830786               4.9818
       ...                                ...                  ...
        25                          0.4831796              13.1480
      -------------------------------------------------------------
                  HL-Gap            0.1001425 Eh            2.7250 eV
             Fermi-level           -0.1489280 Eh           -4.0525 eV

 SCC (total)                   0 d,  0 h,  0 min,  0.015 sec
 SCC setup                      ...        0 min,  0.000 sec (  1.478%)
 Dispersion                     ...        0 min,  0.000 sec (  0.375%)
 classical contributions        ...        0 min,  0.000 sec (  0.190%)
 integral evaluation            ...        0 min,  0.012 sec ( 83.414%)
 iterations                     ...        0 min,  0.001 sec (  9.681%)
 molecular gradient             ...        0 min,  0.001 sec (  3.794%)
 printout                       ...        0 min,  0.000 sec (  0.953%)

         :::::::::::::::::::::::::::::::::::::::::::::::::::::
         ::                     SUMMARY                     ::
         :::::::::::::::::::::::::::::::::::::::::::::::::::::
         :: total energy             -12.280396933441 Eh    ::
         :: gradient norm              0.000595866829 Eh/a0 ::
         :: HOMO-LUMO gap              2.725016059292 eV    ::
         ::.................................................::
         :: SCC energy               -12.341651409285 Eh    ::
         :: -> isotropic ES            0.146538646511 Eh    ::
         :: -> anisotropic ES         -0.008756168875 Eh    ::
         :: -> anisotropic XC         -0.003515890729 Eh    ::
         :: -> dispersion             -0.003159659956 Eh    ::
         :: repulsion energy           0.061254475844 Eh    ::
         :: add. restraining           0.000000000000 Eh    ::
         :: total charge              -1.000000000000 e     ::
         :::::::::::::::::::::::::::::::::::::::::::::::::::::


Property printout bound to 'properties.out'

           -------------------------------------------------
          | TOTAL ENERGY              -12.280396933441 Eh   |
          | GRADIENT NORM               0.000595866829 Eh/α |
          | HOMO-LUMO GAP               2.725016059292 eV   |
           -------------------------------------------------

------------------------------------------------------------------------
 * finished run on 2026/03/16 at 14:19:16.595     
------------------------------------------------------------------------
 total:
 * wall-time:     0 d,  0 h,  0 min,  0.025 sec
 *  cpu-time:     0 d,  0 h,  0 min,  0.168 sec
 * ratio c/w:     6.598 speedup
 SCF:
 * wall-time:     0 d,  0 h,  0 min,  0.015 sec
 *  cpu-time:     0 d,  0 h,  0 min,  0.108 sec
 * ratio c/w:     7.255 speedup


-------------------------   --------------------
FINAL SINGLE POINT ENERGY       -12.280396933440
-------------------------   --------------------


-------------
DIPOLE MOMENT
-------------
                                X             Y             Z
Total Dipole Moment    :      0.00000       0.00000       2.07100
                        -----------------------------------------
Magnitude (a.u.)       :      2.07100
Magnitude (Debye)      :      5.26406


------------------
CARTESIAN GRADIENT
------------------

   1   C   :    0.000003746    0.000089746   -0.000491333
   2   H   :    0.000000451   -0.000125035    0.000177256
   3   H   :   -0.000013603    0.000019084    0.000147402
   4   H   :    0.000009403    0.000016138    0.000145919
   5   I   :    0.000000017    0.000000360   -0.000074456
   6   Cl  :   -0.000000013   -0.000000293    0.000095212

Difference to translation invariance:
           :   -0.0000000000    0.0000000000   -0.0000000000

Difference to rotation invariance:
           :   -0.0000000043    0.0000000011   -0.0000000000

Norm of the Cartesian gradient     ...    0.0005958668
RMS gradient                       ...    0.0001404472
MAX gradient                       ...    0.0004913331
------------------------------------------------------------------------------
                         ORCA GEOMETRY RELAXATION STEP
------------------------------------------------------------------------------

Reading the OPT-File                    .... done
Getting information on internals        .... done
Copying old internal coords+grads       .... done
Making the new internal coordinates     .... (2022 redundants) done
Validating the new internal coordinates .... (2022 redundants) done
Calculating the B-matrix                .... done
Calculating the G,G- and P matrices     .... done
Transforming gradient to internals      .... done
Projecting the internal gradient        .... done
Number of atoms                         ....   6
Number of internal coordinates          ....  17
Current Energy                          ....   -12.280396933 Eh
Current gradient norm                   ....     0.000595867 Eh/bohr
Maximum allowed component of the step   ....  0.300
Current trust radius                    ....  0.300
Updating the Hessian (BFGS)             .... done
Forming the augmented Hessian           .... done
Diagonalizing the augmented Hessian     .... done
Last element of RFO vector              ....  0.999911110
Lowest eigenvalues of augmented Hessian:
 -0.000001231  0.003975344  0.046211183  0.046244387  0.135937397
Length of the computed step             ....  0.013334322
The final length of the internal step   ....  0.013334322
Converting the step to Cartesian space:
 Initial RMS(Int)=    0.0032340482
Transforming coordinates:
 Iter   0:  RMS(Cart)=    0.0015471576 RMS(Int)=    0.0032342666
done
Storing new coordinates                 .... done
The predicted energy change is          ....    -0.000000615
Previously predicted energy change      ....    -0.000021257
Actually observed energy change         ....    -0.000022839
Ratio of predicted to observed change   ....     1.074404970
New trust radius                        ....     0.450000000

                                .--------------------.
          ----------------------|Geometry convergence|-------------------------
          Item                value                   Tolerance       Converged
          ---------------------------------------------------------------------
          Energy change      -0.0000228391            0.0000050000      NO
          RMS gradient        0.0000852394            0.0001000000      YES
          MAX gradient        0.0001748738            0.0003000000      YES
          RMS step            0.0032340482            0.0020000000      NO
          MAX step            0.0077293000            0.0040000000      NO
          -------------------------------------------------------------------------
          ........................................................
          Max(Bonds)      0.0041      Max(Angles)    0.03
          Max(Dihed)        0.00      Max(Improp)    0.00
          ---------------------------------------------------------------------

The optimization has not yet converged - more geometry cycles are needed


    ---------------------------------------------------------------------------
                         Redundant Internal Coordinates
                            (Angstroem and degrees)

        Definition                    Value    dE/dq     Step     New-Value
    ----------------------------------------------------------------------------
     1. B(H   1,C   0)                1.0779 -0.000175  0.0003    1.0781   
     2. B(H   2,C   0)                1.0780 -0.000067  0.0001    1.0781   
     3. B(H   3,C   0)                1.0780 -0.000062  0.0001    1.0781   
     4. B(I   4,C   0)                2.1684 -0.000074 -0.0001    2.1683   
     5. B(Cl  5,H   3)                2.7010  0.000019  0.0033    2.7043   
     6. B(Cl  5,H   2)                2.7010  0.000019  0.0033    2.7043   
     7. B(Cl  5,H   1)                2.7010  0.000018  0.0033    2.7043   
     8. B(Cl  5,C   0)                2.8300 -0.000148  0.0041    2.8341   
     9. A(H   1,C   0,H   3)          110.99  0.000069   -0.02    110.97   
    10. A(H   2,C   0,H   3)          111.00  0.000090   -0.03    110.97   
    11. A(H   1,C   0,I   4)          107.90 -0.000081    0.03    107.93   
    12. A(H   2,C   0,I   4)          107.90 -0.000080    0.03    107.93   
    13. A(H   3,C   0,I   4)          107.90 -0.000080    0.03    107.93   
    14. A(H   1,C   0,Cl  5)           72.10  0.000083   -0.03     72.07   
    15. A(H   2,C   0,Cl  5)           72.10  0.000079   -0.03     72.07   
    16. A(H   3,C   0,Cl  5)           72.10  0.000079   -0.03     72.07   
    17. A(H   1,C   0,H   2)          110.99  0.000068   -0.02    110.97   
    ----------------------------------------------------------------------------

Geometry step timings:
Preparation and reading OPT file:      0.000 s ( 2.347 %)
Internal coordinates            :      0.000 s ( 3.194 %)
B/P matrices and projection     :      0.000 s (12.516 %)
Hessian update/contruction      :      0.000 s (25.684 %)
Making the step                 :      0.000 s ( 8.279 %)
Converting the step to Cartesian:      0.000 s ( 3.325 %)
Storing new data                :      0.000 s ( 8.605 %)
Checking convergence            :      0.000 s (10.821 %)
Final printing                  :      0.000 s (25.098 %)
Total time                      :      0.002 s

Time for energy+gradient        :      0.035 s
Time for complete geometry iter :      0.037 s

         *************************************************************
         *                GEOMETRY OPTIMIZATION CYCLE   4            *
         *************************************************************
---------------------------------
CARTESIAN COORDINATES (ANGSTROEM)
---------------------------------
  C     0.000001   -0.000009    0.287163
  H     0.000001    1.025747   -0.044778
  H     0.888347   -0.512901   -0.044762
  H    -0.888347   -0.512901   -0.044761
  I     0.000001   -0.000031    2.455461
  Cl   -0.000002   -0.000038   -2.546929

----------------------------
CARTESIAN COORDINATES (A.U.)
----------------------------
  NO LB    ZA    FRAG    MASS        X           Y           Z
   0 C   6.0000    0    12.011    0.000001   -0.000018    0.542660
   1 H   1.0000    0     1.008    0.000001    1.938381   -0.084619
   2 H   1.0000    0     1.008    1.678733   -0.969242   -0.084589
[...]
        25                          0.4832604              13.1502
      -------------------------------------------------------------
                  HL-Gap            0.0997595 Eh            2.7146 eV
             Fermi-level           -0.1489897 Eh           -4.0542 eV

 SCC (total)                   0 d,  0 h,  0 min,  0.071 sec
 SCC setup                      ...        0 min,  0.000 sec (  0.267%)
 Dispersion                     ...        0 min,  0.000 sec (  0.074%)
 classical contributions        ...        0 min,  0.000 sec (  0.062%)
 integral evaluation            ...        0 min,  0.069 sec ( 96.876%)
 iterations                     ...        0 min,  0.001 sec (  1.285%)
 molecular gradient             ...        0 min,  0.001 sec (  1.218%)
 printout                       ...        0 min,  0.000 sec (  0.195%)

         :::::::::::::::::::::::::::::::::::::::::::::::::::::
         ::                     SUMMARY                     ::
         :::::::::::::::::::::::::::::::::::::::::::::::::::::
         :: total energy             -12.280397964083 Eh    ::
         :: gradient norm              0.000269879785 Eh/a0 ::
         :: HOMO-LUMO gap              2.714595342600 eV    ::
         ::.................................................::
         :: SCC energy               -12.341574794527 Eh    ::
         :: -> isotropic ES            0.146648802580 Eh    ::
         :: -> anisotropic ES         -0.008744151001 Eh    ::
         :: -> anisotropic XC         -0.003502851587 Eh    ::
         :: -> dispersion             -0.003156757901 Eh    ::
         :: repulsion energy           0.061176830444 Eh    ::
         :: add. restraining           0.000000000000 Eh    ::
         :: total charge              -1.000000000000 e     ::
         :::::::::::::::::::::::::::::::::::::::::::::::::::::

           ------------------------------------------------- 
          |                Numerical Hessian                |
           ------------------------------------------------- 
step length          :   0.00500
SCC accuracy         :   0.30000
Hessian scale factor :   1.00000
frozen atoms in %    :   0.00000    0
RMS gradient         :   0.00027
estimated CPU  time      0.00 min
estimated wall time      0.00 min

writing file <hessian>.

 projected vibrational frequencies (cm⁻¹)
eigval :       -0.00    -0.00     0.00     0.00     0.00     0.00
eigval :       88.95    89.02   112.60   483.64   914.11   914.16
eigval :     1269.07  1436.33  1436.45  3102.06  3122.84  3123.01

Property printout bound to 'properties.out'
Molecule has the following symmetry elements: (C3) 3*(sigma) 
It seems to be the C3v point group

           -------------------------------------------------
          | TOTAL ENERGY              -12.280397964083 Eh   |
          | TOTAL ENTHALPY            -12.237373230026 Eh   |
          | TOTAL FREE ENERGY         -12.273718994522 Eh   |
          | GRADIENT NORM               0.000269886391 Eh/α |
          | HOMO-LUMO GAP               2.714595597252 eV   |
           -------------------------------------------------

------------------------------------------------------------------------
 * finished run on 2026/03/16 at 14:19:17.046     
------------------------------------------------------------------------
 total:
 * wall-time:     0 d,  0 h,  0 min,  0.169 sec
 *  cpu-time:     0 d,  0 h,  0 min,  0.460 sec
 * ratio c/w:     2.716 speedup
 SCF:
 * wall-time:     0 d,  0 h,  0 min,  0.071 sec
 *  cpu-time:     0 d,  0 h,  0 min,  0.228 sec
 * ratio c/w:     3.187 speedup
 analytical hessian:
 * wall-time:     0 d,  0 h,  0 min,  0.020 sec
 *  cpu-time:     0 d,  0 h,  0 min,  0.159 sec
 * ratio c/w:     7.925 speedup


-------------------------   --------------------
FINAL SINGLE POINT ENERGY       -12.280397964080
-------------------------   --------------------


-------------
DIPOLE MOMENT
-------------
                                X             Y             Z
Total Dipole Moment    :      0.00000       0.00000       2.08500
                        -----------------------------------------
Magnitude (a.u.)       :      2.08500
Magnitude (Debye)      :      5.29965


-----------------------
VIBRATIONAL FREQUENCIES
-----------------------

Scaling factor for frequencies =  1.000000000  (already applied!)

     0:       0.00 cm**-1
     1:       0.00 cm**-1
     2:       0.00 cm**-1
     3:       0.00 cm**-1
     4:       0.00 cm**-1
     5:       0.00 cm**-1
     6:      88.95 cm**-1
     7:      89.02 cm**-1
     8:     112.60 cm**-1
     9:     483.64 cm**-1
    10:     914.08 cm**-1
    11:     914.13 cm**-1
    12:    1269.04 cm**-1
    13:    1436.29 cm**-1
    14:    1436.40 cm**-1
    15:    3101.97 cm**-1
    16:    3122.76 cm**-1
    17:    3122.93 cm**-1


------------
NORMAL MODES
------------

These modes are the Cartesian displacements weighted by the diagonal matrix
M(i,i)=1/sqrt(m[i]) where m[i] is the mass of the displaced atom
Thus, these vectors are normalized but *not* orthogonal

                  0          1          2          3          4          5    
      0       0.000000   0.000000   0.000000   0.000000   0.000000   0.000000
      1       0.000000   0.000000   0.000000   0.000000   0.000000   0.000000
      2       0.000000   0.000000   0.000000   0.000000   0.000000   0.000000
      3       0.000000   0.000000   0.000000   0.000000   0.000000   0.000000
      4       0.000000   0.000000   0.000000   0.000000   0.000000   0.000000
      5       0.000000   0.000000   0.000000   0.000000   0.000000   0.000000
      6       0.000000   0.000000   0.000000   0.000000   0.000000   0.000000
      7       0.000000   0.000000   0.000000   0.000000   0.000000   0.000000
      8       0.000000   0.000000   0.000000   0.000000   0.000000   0.000000
      9       0.000000   0.000000   0.000000   0.000000   0.000000   0.000000
     10       0.000000   0.000000   0.000000   0.000000   0.000000   0.000000
     11       0.000000   0.000000   0.000000   0.000000   0.000000   0.000000
     12       0.000000   0.000000   0.000000   0.000000   0.000000   0.000000
     13       0.000000   0.000000   0.000000   0.000000   0.000000   0.000000
     14       0.000000   0.000000   0.000000   0.000000   0.000000   0.000000
     15       0.000000   0.000000   0.000000   0.000000   0.000000   0.000000
     16       0.000000   0.000000   0.000000   0.000000   0.000000   0.000000
     17       0.000000   0.000000   0.000000   0.000000   0.000000   0.000000
                  6          7          8          9         10         11    
      0       0.428897   0.001741  -0.000000   0.000002  -0.102595   0.001645
      1       0.001741  -0.428918   0.000532  -0.000039  -0.001645  -0.102590
      2      -0.000001   0.000002   0.245627   0.641861   0.000000  -0.000001
      3       0.493065   0.002000  -0.000001   0.000002   0.245497  -0.003936
      4       0.002030  -0.500020  -0.012774  -0.049813   0.002516   0.156953
      5       0.000865  -0.213044   0.177894   0.437994   0.012153   0.757909
      6       0.498268   0.005005  -0.011611  -0.043105   0.179699   0.035503
      7      -0.000967  -0.494820   0.007296   0.024906   0.041925   0.222790
      8       0.184138   0.107322   0.177501   0.437911   0.650364  -0.389586
      9       0.498291  -0.000958   0.011610   0.043108   0.178463  -0.041247
     10       0.004985  -0.494798   0.007295   0.024906  -0.034761   0.224019
     11      -0.185009   0.105822   0.177501   0.437908  -0.662529  -0.368529
     12      -0.028405  -0.000115   0.000000  -0.000000   0.004956  -0.000079
     13      -0.000115   0.028406  -0.000035   0.000002   0.000079   0.004955
     14       0.000000   0.000029   0.221671  -0.072096   0.000000   0.000002
     15      -0.085985  -0.000349  -0.000000  -0.000000  -0.000144   0.000002
     16      -0.000349   0.085988  -0.000107   0.000005  -0.000002  -0.000146
     17       0.000000  -0.000106  -0.891813   0.003252   0.000000  -0.000000
                 12         13         14         15         16         17    
      0      -0.000001  -0.000202  -0.072363  -0.000024  -0.002144   0.092260
      1       0.000005   0.072356  -0.000202  -0.000511   0.092259   0.002143
      2      -0.094167   0.000012   0.000000   0.037931   0.000227   0.000016
      3       0.000003   0.002098   0.749112  -0.000011  -0.000939   0.040251
      4       0.180114   0.123312  -0.000349   0.559450  -0.770175  -0.017739
      5       0.545961   0.294561  -0.000827  -0.158488   0.245363   0.005657
      6       0.155899  -0.377603   0.095813   0.478892   0.368507  -0.561683
      7      -0.090082  -0.529876   0.379291  -0.276804  -0.173051   0.348479
      8       0.545787  -0.148079  -0.254693  -0.156474  -0.129053   0.210379
      9      -0.155893   0.378127   0.093696  -0.478593  -0.342013  -0.578473
     10      -0.090083  -0.531997  -0.376319  -0.276618  -0.156669  -0.356293
     11       0.545784  -0.146653   0.255516  -0.156357  -0.119136  -0.216231
     12       0.000000  -0.000002  -0.000568  -0.000000  -0.000001   0.000024
     13       0.000000   0.000568  -0.000002   0.000000   0.000024   0.000001
     14      -0.003337  -0.000000   0.000000   0.000088   0.000001   0.000000
     15      -0.000000  -0.000000  -0.000139   0.000000   0.000002  -0.000069
     16      -0.000001   0.000138  -0.000000   0.000001  -0.000069  -0.000002
     17      -0.002713   0.000001  -0.000000   0.000237   0.000001   0.000000


The first frequency considered to be a vibration is 6
The total number of vibrations considered is 12


--------------------------
THERMOCHEMISTRY AT 298.15K
--------------------------

Temperature         ...   298.15 K
Pressure            ...     1.00 atm
Total Mass          ...   177.39 AMU
Quasi RRHO          ...     True
Cut-Off Frequency   ...     1.00 cm^-1

Throughout the following assumptions are being made:
  (1) The electronic state is orbitally nondegenerate
  (2) There are no thermally accessible electronically excited states
  (3) Hindered rotations indicated by low frequency modes are not
      treated as such but are treated as vibrations and this may
      cause some error
  (4) All equations used are the standard statistical mechanics
      equations for an ideal gas
  (5) All vibrations are strictly harmonic

freq.      88.95  E(vib)   ...       0.47 
freq.      89.02  E(vib)   ...       0.47 
freq.     112.60  E(vib)   ...       0.45 
freq.     483.64  E(vib)   ...       0.15 
freq.     914.08  E(vib)   ...       0.03 
freq.     914.13  E(vib)   ...       0.03 
freq.    1269.04  E(vib)   ...       0.01 
freq.    1436.29  E(vib)   ...       0.00 
freq.    1436.40  E(vib)   ...       0.00 
freq.    3101.97  E(vib)   ...       0.00 
freq.    3122.76  E(vib)   ...       0.00 
freq.    3122.93  E(vib)   ...       0.00 

------------
INNER ENERGY
------------

The inner energy is: U= E(el) + E(ZPE) + E(vib) + E(rot) + E(trans)
    E(el)   - is the total energy from the electronic structure calculation
              = E(kin-el) + E(nuc-el) + E(el-el) + E(nuc-nuc)
    E(ZPE)  - the the zero temperature vibrational energy from the frequency calculation
    E(vib)  - the the finite temperature correction to E(ZPE) due to population
              of excited vibrational states
    E(rot)  - is the rotational thermal energy
    E(trans)- is the translational thermal energy

Summary of contributions to the inner energy U:
Electronic energy                ...    -12.28039796 Eh
Zero point energy                ...      0.03665984 Eh      23.00 kcal/mol
Thermal vibrational correction   ...      0.00258711 Eh       1.62 kcal/mol
Thermal rotational correction    ...      0.00141627 Eh       0.89 kcal/mol
Thermal translational correction ...      0.00141627 Eh       0.89 kcal/mol
-----------------------------------------------------------------------
Total thermal energy                    -12.23831847 Eh


Summary of corrections to the electronic energy:
(perhaps to be used in another calculation)
Total thermal correction                  0.00541965 Eh       3.40 kcal/mol
Non-thermal (ZPE) correction              0.03665984 Eh      23.00 kcal/mol
-----------------------------------------------------------------------
Total correction                          0.04207949 Eh      26.41 kcal/mol


--------
ENTHALPY
--------

The enthalpy is H = U + kB*T
                kB is Boltzmann's constant
Total thermal energy              ...    -12.23831847 Eh 
Thermal Enthalpy correction       ...      0.00094421 Eh       0.59 kcal/mol
-----------------------------------------------------------------------
Total Enthalpy                    ...    -12.23737427 Eh


WARNING (ORCA/SYM): The number of Z matrix atoms does not agree with
the number of centers in the basis set. The point group will therefore
be determined without considering basis set information.


Note: Rotational entropy computed according to Herzberg 
Infrared and Raman Spectra, Chapter V,1, Van Nostrand Reinhold, 1945 
Point Group:  C3v, Symmetry Number:   3  
Rotational constants in cm-1:     5.299188     0.023624     0.023624 

Vibrational entropy computed according to the QRRHO of S. Grimme
Chem.Eur.J. 2012 18 9955 using a reference frequency of 100.0 cm-1


-------
ENTROPY
-------

The entropy contributions are T*S = T*(S(el)+S(vib)+S(rot)+S(trans))
     S(el)   - electronic entropy
     S(vib)  - vibrational entropy
     S(rot)  - rotational entropy
     S(trans)- translational entropy
The entropies will be listed as multiplied by the temperature to get
units of energy

Electronic entropy                ...      0.00000000 Eh      0.00 kcal/mol
Vibrational entropy               ...      0.00501479 Eh      3.15 kcal/mol
Rotational entropy                ...      0.01122269 Eh      7.04 kcal/mol
Translational entropy             ...      0.01968301 Eh     12.35 kcal/mol
-----------------------------------------------------------------------
Final entropy term                ...      0.03592048 Eh     22.54 kcal/mol

In case the symmetry of your molecule has not been determined correctly
or in case you have a reason to use a different symmetry number we print 
out the resulting rotational entropy values for sn=1,12:

 non-linear molecules -----------------------------------
|  sn= 1 | S(rot)=       0.01225998 Eh      7.69 kcal/mol|
|  sn= 2 | S(rot)=       0.01160553 Eh      7.28 kcal/mol|
|  sn= 3 | S(rot)=       0.01122269 Eh      7.04 kcal/mol|
|  sn= 4 | S(rot)=       0.01095107 Eh      6.87 kcal/mol|
|  sn= 5 | S(rot)=       0.01074038 Eh      6.74 kcal/mol|
|  sn= 6 | S(rot)=       0.01056824 Eh      6.63 kcal/mol|
|  sn= 7 | S(rot)=       0.01042269 Eh      6.54 kcal/mol|
|  sn= 8 | S(rot)=       0.01029661 Eh      6.46 kcal/mol|
|  sn= 9 | S(rot)=       0.01018540 Eh      6.39 kcal/mol|
|  sn=10 | S(rot)=       0.01008592 Eh      6.33 kcal/mol|
|  sn=11 | S(rot)=       0.00999593 Eh      6.27 kcal/mol|
|  sn=12 | S(rot)=       0.00991378 Eh      6.22 kcal/mol|
 linear molecules ---------------------------------------
|  Dinfh | S(rot)=       0.00886221 Eh      5.56 kcal/mol|
|  Cinfv | S(rot)=       0.00951667 Eh      5.97 kcal/mol|
 --------------------------------------------------------


-------------------
GIBBS FREE ENERGY
-------------------

The Gibbs free energy is G = H - T*S

Total enthalpy                    ...    -12.23737427 Eh 
Total entropy correction          ...     -0.03592048 Eh    -22.54 kcal/mol
-----------------------------------------------------------------------
Final Gibbs free energy         ...    -12.27329475 Eh

For completeness - the Gibbs free energy minus the electronic energy
G-E(el)                           ...      0.00710321 Eh      4.46 kcal/mol


--------------------------------
SUGGESTED CITATIONS FOR THIS RUN
--------------------------------

Below you find a list of papers that are relevant to this ORCA run
We neither can nor want to force you to cite these papers, but we appreciate if you do
You receive ORCA, which is the product of decades of hard work by many enthusiastic individuals, for free
The only thing we kindly ask in return is that you cite our papers,
We deeply appreciate it, if you show your appreciation for ORCA by not just citing the generic ORCA reference.

Please note that relegating all ORCA citations to the supporting information does *not* help us.
SI sections are not indexed - citations you put there will not count into any citation statistics
But we need these citations in order to attract the funding resources that allow us to do what we are doing

Therefore, if you are a happy ORCA user, please consider citing a few of the papers listed below in the main body of your paper

In addition to the list printed below, the program has created the file product_optfreq.bibtex that contains the list in bibtex format
You can import this file easily into all common literature databanks and citation aid programs


List of essential papers. We consider these as the minimum necessary citations

  1. Bannwarth, C.; Ehlert, S.; Grimme, S.
     GFN2-xTB—An Accurate and Broadly Parametrized Self-Consistent Tight-Binding Quantum Chemical Method with Multipole Electrostatics and Density-Dependent Dispersion Contributions
     J. Chem. Theory Comput. 2019 15(3), 1652-1671
     doi.org/10.1021/acs.jctc.8b01176
  2. Neese, F.
     Software update: the ORCA program system, version 6.0
     WIRES Comput. Molec. Sci. 2025 15(1), e70019
     doi.org/10.1002/wcms.7019

List of papers to cite with high priority. The work reported in these papers was absolutely
necessary for this run to complete.
Our perspective: the developers of density functionals and basis sets usually get cited in chemistry papers
Good! But without the algorithms to do something with them, the functionals or basis sets would not do anything.
Hence, in our opinion, the algorithm design and method developments papers are equally worthy of getting cited

  1. Bykov, D.; Petrenko, T.; Izsak, R.; Kossmann, S.; Becker, U.; Valeev, E.; Neese, F.
     Efficient implementation of the analytic second derivatives of Hartree-Fock and hybrid DFT energies: a detailed analysis of different approximations
     Molec. Phys. 2015 113 , 1961-1977
     doi.org/10.1080/00268976.2015.1025114
  2. Bannwarth, C.; Caldeweyher, E.; Ehlert, S.; Hansen, A.; Pracht, P.; Seibert, J.; Spicher, S.; Grimme, S.
     Extended tight-binding quantum chemistry methods
     WIRES Comput. Molec. Sci. 2020 11(2), e1493
     doi.org/10.1002/wcms.1493

List of suggested additional citations. These are papers that are important in the 'surrounding' of 
of this run, or papers that preceded the highly important papers. If you like your results we are grateful for a citation.

  1. Neese, F.
     The ORCA program system
     WIRES Comput. Molec. Sci. 2012 2(1), 73-78
     doi.org/10.1002/wcms.81
  2. Neese, F.
     Software update: the ORCA program system, version 4.0
     WIRES Comput. Molec. Sci. 2018 8(1), 1-6
     doi.org/10.1002/wcms.1327
  3. Neese, F.; Wennmohs, F.; Becker, U.; Riplinger, C.
     The ORCA quantum chemistry program package
     J. Chem. Phys. 2020 152(22), 224108
     doi.org/10.1063/5.0004608
  4. Neese, F.
     Software update: The ORCA program system—Version 5.0
     WIRES Comput. Molec. Sci. 2022 12(1), e1606
     doi.org/10.1002/wcms.1606

List of optional additional citations

  1. Neese, F.
     Approximate second-order SCF convergence for spin unrestricted wavefunctions
     Chem. Phys. Lett. 2000 325(1-3), 93-98
     doi.org/10.1016/s0009-2614(00)00662-x

Timings for individual modules:

Sum of individual times          ...        0.549 sec (=   0.009 min)
Geometry relaxation              ...        0.013 sec (=   0.000 min)   2.3 %
XTB module                       ...        0.536 sec (=   0.009 min)  97.7 %
                             ****ORCA TERMINATED NORMALLY****
TOTAL RUN TIME: 0 days 0 hours 0 minutes 0 seconds 957 msec
