
                                 *****************
                                 * O   R   C   A *
                                 *****************

                                            #,                                       
                                            ###                                      
                                            ####                                     
                                            #####                                    
                                            ######                                   
                                           ########,                                 
                                     ,,################,,,,,                         
                               ,,#################################,,                 
                          ,,##########################################,,             
                       ,#########################################, ''#####,          
                    ,#############################################,,   '####,        
                  ,##################################################,,,,####,       
                ,###########''''           ''''###############################       
              ,#####''   ,,,,##########,,,,          '''####'''          '####       
            ,##' ,,,,###########################,,,                        '##       
           ' ,,###''''                  '''############,,,                           
         ,,##''                                '''############,,,,        ,,,,,,###''
      ,#''                                            '''#######################'''  
     '                                                          ''''####''''         
             ,#######,   #######,   ,#######,      ##                                
            ,#'     '#,  ##    ##  ,#'     '#,    #''#        ,####,    ,#,          
            ##       ##  ##   ,#'  ##            #'  '#       #'       ,# #          
            ##       ##  #######   ##           ,######,      #####,      #          
            '#,     ,#'  ##    ##  '#,     ,#' ,#      #,     #,   #      #          
             '#######'   ##     ##  '#######'  #'      '#     '####' #    #          



                #########################################################
                #                        -***-                          #
                #          Department of theory and spectroscopy        #
                #                                                       #
                #                      Frank Neese                      #
                #                                                       #
                #     Directorship, Architecture, Infrastructure        #
                #                    SHARK, DRIVERS                     #
                #        Core code/Algorithms in most modules           #
                #                                                       #
                #        Max Planck Institute fuer Kohlenforschung      #
                #                Kaiser Wilhelm Platz 1                 #
                #                 D-45470 Muelheim/Ruhr                 #
                #                      Germany                          #
                #                                                       #
                #                  All rights reserved                  #
                #                        -***-                          #
                #########################################################


                         Program Version 6.1.0  -  RELEASE   -
                                (GIT: $679e74b$)
                          ($2025-06-10 18:02:51 +0200$)


 With contributions from (in alphabetic order):
[Max-Planck-Institut fuer Kohlenforschung]                               
  Daniel Aravena         : Magnetic Suceptibility                        
  Michael Atanasov       : Ab Initio Ligand Field Theory (pilot matlab implementation)
  Alexander A. Auer      : GIAO ZORA, VPT2 properties, NMR spectrum      
  Ute Becker             : All parallelization in ORCA, NUMFREQ, NUMCALC 
  Giovanni Bistoni       : ED, misc. LED, open-shell LED, HFLD           
  Dmytro Bykov           : pre 5.0 version of the SCF Hessian            
  Marcos Casanova-Páez   : Triplet and SCS-CIS(D). UHF-(DLPNO)-IP/EA/STEOM-CCSD. UHF-CVS-IP/STEOM-CCSD   
  Vijay G. Chilkuri      : MRCI spin determinant printing, contributions to CSF-ICE 
  Pauline Colinet        : FMM embedding                                 
  Dipayan Datta          : RHF DLPNO-CCSD density                        
  Achintya Kumar Dutta   : EOM-CC, STEOM-CC                              
  Nicolas Foglia         : Exact transition moments, OPA infrastructure, MCD improvements    
  Dmitry Ganyushin       : Spin-Orbit,Spin-Spin,Magnetic field MRCI      
  Miquel Garcia-Rates    : C-PCM and meta-GGA Hessian, CCSD/C-PCM, Gaussian charge scheme 
  Tiago L. C. Gouveia    : GS-ROHF, GS-ROCIS                             
  Yang Guo               : DLPNO-NEVPT2, F12-NEVPT2, CIM, IAO-localization        
  Andreas Hansen         : Spin unrestricted coupled pair/coupled cluster methods 
  Ingolf Harden          : AUTO-CI MPn and infrastructure                
  Benjamin Helmich-Paris : MC-RPA, TRAH-(SCF,CASSCF), AVAS, COSX integrals, SCF dyn. polar., MC-PDFT, srDFT 
  Lee Huntington         : MR-EOM, pCC                                   
  Robert Izsak           : Overlap fitted RIJCOSX, COSX-SCS-MP3, EOM     
  Riya Kayal             : Wick's Theorem for AUTO-CI, AUTO-CI UHF-CCSDT 
  Emily Kempfer          : AUTO-CI RHF CISDT and CCSDT, approximate NEVPT4
  Christian Kollmar      : KDIIS, OOCD, Brueckner-CCSD(T), CCSD density, CASPT2, CASPT2-K, improved NEVPT2 
  Axel Koslowski         : Symmetry handling                             
  Simone Kossmann        : meta-GGA functionals, TD-DFT gradient, OOMP2, (MP2 Hessian; deprecated post 5.0) 
  Lucas Lang             : DCDCAS, Hyperfine gauge corrections, ICE-SOC+SSC
  Marvin Lechner         : AUTO-CI (C++ implementation), FIC-MRCC        
  Spencer Leger          : CASSCF response                               
  Dagmar Lenk            : GEPOL surface, SMD, ORCA-2-JSON               
  Dimitrios Liakos       : Extrapolation schemes; Compound Job, Property file
  Dimitrios Manganas     : Further ROCIS development; embedding schemes. LFT, Crystal Embedding 
  Dimitrios Pantazis     : SARC Basis sets                               
  Anastasios Papadopoulos: AUTO-CI, single reference methods and gradients 
  Taras Petrenko         : pre 6.0 DFT Hessian and TD-DFT gradient,  ECA, NRVS 
  Petra Pikulova         : Analytic Raman intensities                    
  Peter Pinski           : DLPNO-MP2, DLPNO-MP2 Gradient                 
  Shashank Vittal Rao    : ES-AILFT, MagRelax                            
  Christoph Reimann      : Effective Core Potentials                     
  Marius Retegan         : Local ZFS, SOC                                
  Christoph Riplinger    : Optimizer, TS searches, QM/MM, DLPNO-CCSD(T), (RO)-DLPNO pert. Triples 
  Michael Roemelt        : Original ROCIS implementation, recursive CI coupling coefficients
  Masaaki Saitow         : Open-shell DLPNO-CCSD energy and density      
  Barbara Sandhoefer     : DKH picture change effects                    
  Yorick L. A. Schmerwitz: GMF and freeze-and-release deltaSCF, NEB S-IDPP initial path                    
  Kantharuban Sivalingam : CASSCF convergence/infrastructure, NEVPT2, NEVPT3, NEVPT4(SD), FIC-MRCI and CEPA variants
  Bernardo de Souza      : ESD, SOC TD-DFT                               
  Georgi L. Stoychev     : AutoAux, RI-MP2 NMR, DLPNO-MP2 response, X2C  
  Van Anh Tran           : RI-MP2 g-tensors                              
  Willem Van den Heuvel  : Paramagnetic NMR                              
  Zikuan Wang            : NOTCH, Electric field optimization            
  Frank Wennmohs         : Technical directorship and infrastructure     
  Hang Xu                : AUTO-CI-Response properties                   
                                                                         
[FACCTs GmbH]                                                            
  Markus Bursch, Nicolas Foglia, Miquel Garcia-Rates, Ingolf Harden, Hagen Neugebauer, Anastasios Papadopoulos, 
  Christoph Riplinger, Bernardo de Souza, Georgi L. Stoychev                                                    
                                                                 
  APM, various basis sets, CI-OPT, improved COSX, DLPNO-Multilevel,           
  DOCKER, DRACO, updates on ESD, Fragmentator, GOAT, IRC, LR-CPCM, L-BFGS, MBIS, meta-GGA TD-DFT gradient, ML-optimized integration grids, 
  MM, NACMEs, nearIR, NEB, NEB-TS, NL-DFT gradient (VV10), 2- and 3-layer-ONIOM, interface openCOSMO-RS, QMMM,   
  Crystal-QMMM, RESP, rigid body optimization, SF, symmetry and pop. for TD-DFT, various functionals, SOLVATOR                                   
                                                                         
[Other institutions]                                                     
  V. Asgeirsson          : NEB                                           
  Christoph Bannwarth    : sTDA-DFT, sTD-DFT, PBEh-3c, B97-3c, D3        
  Giovanni Bistoni       : ETS/NOCV, ADLD/ADEX, COVALED                  
  Martin Brehm           : Molecular dynamics                            
  Ronald Cardenas        : ETS/NOCV                                      
  Martina Colucci        : COVALED                                       
  Sebastian Ehlert       : rSCAN, r2SCAN, r2SCAN-3c, D4, dhf basis sets  
  Marvin Friede          : D4 for Fr, Ra, Ac-Lr                          
  Lars Goerigk           : TD-DFT with DH, B97 family of functionals     
  Stefan Grimme          : VdW corrections, initial TS optimization, DFT functionals, gCP, sTDA/sTD-DF 
  Waldemar Hujo          : DFT-NL                                        
  H. Jonsson             : NEB                                           
  Holger Kruse           : gCP                                           
  Marcel Mueller         : wB97X-3c, vDZP basis set                      
  Hagen Neugebauer       : wr2SCAN, Native XTB                           
  Gianluca Regni         : ADLD/ADEX                                     
  Tobias Risthaus        : pre 6.0 range-separated hybrid DFT and stability analysis
  Lukas Wittmann         : regularized MP2, r2SCAN double-hybrids, wr2SCAN        
                                                                         
We gratefully acknowledge several colleagues who have allowed us to      
interface, adapt or use parts of their codes:                            
  Ed Valeev, F. Pavosevic, A. Kumar             : LibInt (2-el integral package), F12 methods 
  Garnet Chan, S. Sharma, J. Yang, R. Olivares  : DMRG                   
  Ulf Ekstrom                                   : XCFun DFT Library      
  Mihaly Kallay                                 : mrcc  (arbitrary order and MRCC methods)
  Frank Weinhold                                : gennbo (NPA and NBO analysis)           
  Simon Mueller                                 : openCOSMO-RS                            
  Christopher J. Cramer and Donald G. Truhlar   : smd solvation model                     
  S Lehtola, MJT Oliveira, MAL Marques          : LibXC Library                           
  Liviu Ungur et al                             : ANISO software                          


 Your calculation uses the libint2 library for the computation of 2-el integrals
 For citations please refer to: http://libint.valeyev.net

 Your ORCA version has been built with support for libXC version: 7.0.0
 For citations please refer to: https://libxc.gitlab.io

 This ORCA versions uses:
   CBLAS   interface :  Fast vector & matrix operations
   LAPACKE interface :  Fast linear algebra routines
   SCALAPACK package :  Parallel linear algebra routines
   Shared memory     :  Shared parallel matrices
   BLAS/LAPACK       :  OpenBLAS 0.3.29  USE64BITINT DYNAMIC_ARCH NO_AFFINITY SkylakeX SINGLE_THREADED
        Core in use  :  SkylakeX
   Copyright (c) 2011-2014, The OpenBLAS Project


  ***********************************
  * Starting time: Thu Mar 12 12:48:02 2026
  * Host name:     midway3-login4.rcc.local
  * Process ID:    2802139
  * Working dir.:  /home/rzhu16/orca_TS_search/sn2_i_cl/geo_opt_reactant_product
  ***********************************

Your calculation utilizes the semiempirical GFN2-xTB method
Please cite in your paper:
Bannwarth, C.; Ehlert S.; Grimme, S. J. Chem. Theory Comput. 2019, 15, 1652.
   

================================================================================

cite the ECPs for I  [Def2-ECP] as follows:
Ce-Yb(ecp-28): M. Dolg, H. Stoll, H.Preuss, J. Chem. Phys., 1989, 90, 1730-1734.
Y-Cd(ecp-28), Hf-Hg(ecp-46): D. Andrae,U. Haeussermann, M. Dolg, H. Stoll, H. Preuss, Theor. Chim. Acta, 1990, 77, 123-141.
In-Sb(ecp-28), Tl-Bi(ecp-46): B. Metz, H. Stoll, M. Dolg, J. Chem. Phys., 2000, 113, 2563-2569.
Te-Xe(ecp-28), Po-Rn(ecp-46): K. A. Peterson, D. Figgen, E. Goll, H. Stoll, M. Dolg, J. Chem. Phys., 2003, 119, 11113-11123.
Rb(ecp-28), Cs(ecp-46): T. Leininger, A. Nicklass, W. Kuechle, H. Stoll, M. Dolg, A. Bergner, Chem. Phys. Lett., 1996, 255, 274-280.
Sr(ecp-28), Ba(ecp-46): M. Kaupp, P. V. Schleyer, H. Stoll and H. Preuss, J. Chem. Phys., 1991, 94, 1360-1366.
La(ecp-46): M. Dolg, H. Stoll, A. Savin, H. Preuss, Theor. Chim. Acta, 1989, 75, 173-194.
Lu(ecp-28): X. Cao, M. Dolg, J. Chem. Phys., 2001, 115, 7348-7355.

ECP parameters for I  [Def2-ECP] have been obtained from:
TURBOMOLE (7.0.2)

================================================================================
                                        WARNINGS
                       Please study these warnings very carefully!
================================================================================


WARNING: Analytical Hessian for XTB is limited in the analysis of the data.
       : If you want to obtain extensive IR and deltaG analysis, please use ! XTB NumFreq. 


WARNING: Geometry Optimization
  ===> : Switching off AutoStart
         For restart on a previous wavefunction, please use MOREAD

WARNING: Found dipole moment calculation with XTB calculation
  ===> : Switching off dipole moment calculation


WARNING: Found frequency calculation in combination with XTB calculation
  ===> : Need to redirect dipole moment calculation to properties.out


================================================================================
                                       INPUT FILE
================================================================================
NAME = product_optfreq.inp
|  1> ! XTB2 Opt Freq PAL8
|  2> 
|  3> * xyz -1 1
|  4>   C       0.000157      0.000138      0.274775
|  5>   H       0.000068      1.026118     -0.055596
|  6>   H       0.888664     -0.512963     -0.055603
|  7>   H      -0.888592     -0.513001     -0.055635
|  8>   I       0.000057      0.000055      2.448267
|  9>   Cl     -0.000009     -0.000010     -2.494779
| 10> *
| 11> 
| 12>                          ****END OF INPUT****
================================================================================

                       *****************************
                       * Geometry Optimization Run *
                       *****************************

Geometry optimization settings:
Update method            Update   .... BFGS
Choice of coordinates    CoordSys .... (2022) Redundant Internals
Initial Hessian          InHess   .... Almloef's Model
Max. no of cycles        MaxIter  .... 50

Convergence Tolerances:
Energy Change            TolE     ....  5.0000e-06 Eh
Max. Gradient            TolMAXG  ....  3.0000e-04 Eh/bohr
RMS Gradient             TolRMSG  ....  1.0000e-04 Eh/bohr
Max. Displacement        TolMAXD  ....  4.0000e-03 bohr
RMS Displacement         TolRMSD  ....  2.0000e-03 bohr
Strict Convergence                .... False

------------------------------------------------------------------------------
                        ORCA OPTIMIZATION COORDINATE SETUP
------------------------------------------------------------------------------

The optimization will be done in redundant internal coordinates (2022)
Making redundant internal coordinates   ...  (2022 redundants) done
Evaluating the initial hessian          ...  (Almloef) done
Evaluating the coordinates              ...  done
Calculating the B-matrix                .... done
Calculating the G-matrix                .... done
The number of degrees of freedom        ....   17

    -----------------------------------------------------------------
                    Redundant Internal Coordinates


    -----------------------------------------------------------------
         Definition                    Initial Value    Approx d2E/dq
    -----------------------------------------------------------------
      1. B(H   1,C   0)                  1.0779         0.376525   
      2. B(H   2,C   0)                  1.0779         0.376469   
      3. B(H   3,C   0)                  1.0781         0.376154   
      4. B(I   4,C   0)                  2.1735         0.118092   
      5. B(Cl  5,H   2)                  2.6462         0.010000   
      6. B(Cl  5,H   1)                  2.6462         0.010000   
      7. B(Cl  5,H   3)                  2.6462         0.010000   
      8. B(Cl  5,C   0)                  2.7696         0.010000   
      9. A(H   1,C   0,H   3)          111.0415         0.294910   
     10. A(H   2,C   0,H   3)          111.0393         0.294903   
     11. A(H   1,C   0,I   4)          107.8510         0.287725   
     12. A(H   2,C   0,I   4)          107.8497         0.287718   
     13. A(H   3,C   0,I   4)          107.8431         0.287680   
     14. A(H   1,C   0,Cl  5)           72.1542         0.196703   
     15. A(H   2,C   0,Cl  5)           72.1529         0.196700   
     16. A(H   3,C   0,Cl  5)           72.1491         0.196679   
     17. A(H   1,C   0,H   2)          111.0530         0.294949   
    -----------------------------------------------------------------

Number of atoms                         .... 6
Number of degrees of freedom            .... 17


         *************************************************************
         *                GEOMETRY OPTIMIZATION CYCLE   1            *
         *************************************************************
---------------------------------
CARTESIAN COORDINATES (ANGSTROEM)
---------------------------------
  C     0.000157    0.000138    0.274775
  H     0.000068    1.026118   -0.055596
  H     0.888664   -0.512963   -0.055603
  H    -0.888592   -0.513001   -0.055635
  I     0.000057    0.000055    2.448267
  Cl   -0.000009   -0.000010   -2.494779

----------------------------
CARTESIAN COORDINATES (A.U.)
----------------------------
  NO LB    ZA    FRAG    MASS        X           Y           Z
   0 C   6.0000    0    12.011    0.000297    0.000261    0.519249
   1 H   1.0000    0     1.008    0.000129    1.939082   -0.105061
   2 H   1.0000    0     1.008    1.679332   -0.969360   -0.105074
   3 H   1.0000    0     1.008   -1.679196   -0.969431   -0.105135
   4 I  53.0000    0   126.900    0.000108    0.000104    4.626554
   5 Cl 17.0000    0    35.453   -0.000017   -0.000019   -4.714449

      -----------------------------------------------------------      
     |                   =====================                   |     
     |                           x T B                           |     
     |                   =====================                   |     
     |                         S. Grimme                         |     
     |          Mulliken Center for Theoretical Chemistry        |     
     |                    University of Bonn                     |     
      -----------------------------------------------------------      

   * xtb version 6.7.1 (edcfbbe) compiled by 'albert@albert-system' on 2024-07-22

   xtb is free software: you can redistribute it and/or modify it under
   the terms of the GNU Lesser General Public License as published by
   the Free Software Foundation, either version 3 of the License, or
   (at your option) any later version.
   
   xtb is distributed in the hope that it will be useful,
   but WITHOUT ANY WARRANTY; without even the implied warranty of
   MERCHANTABILITY or FITNESS FOR A PARTICULAR PURPOSE.  See the
   GNU Lesser General Public License for more details.
   
   Cite this work as:
   * C. Bannwarth, E. Caldeweyher, S. Ehlert, A. Hansen, P. Pracht,
     J. Seibert, S. Spicher, S. Grimme, WIREs Comput. Mol. Sci., 2020, 11,
     e01493. DOI: 10.1002/wcms.1493
   
   for GFN2-xTB:
   * C. Bannwarth, S. Ehlert and S. Grimme., J. Chem. Theory Comput., 2019,
     15, 1652-1671. DOI: 10.1021/acs.jctc.8b01176
   for GFN1-xTB:
   * S. Grimme, C. Bannwarth, P. Shushkov, J. Chem. Theory Comput., 2017,
     13, 1989-2009. DOI: 10.1021/acs.jctc.7b00118
   for GFN0-xTB:
   * P. Pracht, E. Caldeweyher, S. Ehlert, S. Grimme, ChemRxiv, 2019, preprint.
     DOI: 10.26434/chemrxiv.8326202.v1
   for GFN-FF:
   * S. Spicher and S. Grimme, Angew. Chem. Int. Ed., 2020, 59, 15665-15673.
     DOI: 10.1002/anie.202004239
   
   for ALPB and GBSA implicit solvation:
   * S. Ehlert, M. Stahn, S. Spicher, S. Grimme, J. Chem. Theory Comput.,
     2021, 17, 4250-4261. DOI: 10.1021/acs.jctc.1c00471
   
   for ddCOSMO and CPCM-X implicit solvation:
   * M. Stahn, S. Ehlert, S. Grimme, J. Phys. Chem. A,
     2023, XX, XXXX-XXXX. DOI: 10.1021/acs.jpca.3c04382
   
   for DFT-D4:
   * E. Caldeweyher, C. Bannwarth and S. Grimme, J. Chem. Phys., 2017,
     147, 034112. DOI: 10.1063/1.4993215
   * E. Caldeweyher, S. Ehlert, A. Hansen, H. Neugebauer, S. Spicher,
     C. Bannwarth and S. Grimme, J. Chem. Phys., 2019, 150, 154122.
     DOI: 10.1063/1.5090222
   * E. Caldeweyher, J.-M. Mewes, S. Ehlert and S. Grimme, Phys. Chem. Chem. Phys.
     2020, 22, 8499-8512. DOI: 10.1039/D0CP00502A
   
   for sTDA-xTB:
   * S. Grimme and C. Bannwarth, J. Chem. Phys., 2016, 145, 054103.
     DOI: 10.1063/1.4959605
   
   in the mass-spec context:
   * V. Asgeirsson, C. Bauer and S. Grimme, Chem. Sci., 2017, 8, 4879.
     DOI: 10.1039/c7sc00601b
   * J. Koopman and S. Grimme, ACS Omega 2019, 4, 12, 15120-15133.
     DOI: 10.1021/acsomega.9b02011
   
   for metadynamics refer to:
   * S. Grimme, J. Chem. Theory Comput., 2019, 155, 2847-2862
     DOI: 10.1021/acs.jctc.9b00143
   
   for SPH calculations refer to:
   * S. Spicher and S. Grimme, J. Chem. Theory Comput., 2021, 17, 1701-1714
     DOI: 10.1021/acs.jctc.0c01306
   
   for ONIOM refer to:
   * C. Plett, A. Katbashev, S. Ehlert, S. Grimme, M. Bursch,
     Phys. Chem. Chem. Phys., 2023, 25, 17860-17868. DOI: 10.1039/D3CP02178E
   
   for DIPRO refer to:
   * J. Kohn, N. Gildemeister, S. Grimme, D. Fazzi, A. Hansen,
     J. Chem. Phys., 2023, just accepted.
   
   for PTB refer to:
   * S. Grimme, M. Mueller, A. Hansen, J. Chem. Phys., 2023, 158, 124111.
     DOI: 10.1063/5.0137838
   
   with help from (in alphabetical order)
   P. Atkinson, C. Bannwarth, F. Bohle, G. Brandenburg, E. Caldeweyher
   M. Checinski, S. Dohm, S. Ehlert, S. Ehrlich, I. Gerasimov, C. Hölzer
   A. Katbashev, J. Kohn, J. Koopman, C. Lavigne, S. Lehtola, F. März, M. Müller,
   F. Musil, H. Neugebauer, J. Pisarek, C. Plett, P. Pracht, F. Pultar,
   J. Seibert, P. Shushkov, S. Spicher, M. Stahn, M. Steiner, T. Strunk,
   J. Stückrath, T. Rose, and J. Unsleber
   
 * started run on 2026/03/12 at 12:48:03.285     
   ID    Z sym.   atoms
    1    6 C      1
    2    1 H      2-4
    3   53 I      5
    4   17 Cl     6

           -------------------------------------------------
          |                Calculation Setup                |
           -------------------------------------------------

          program call               : /software/orca-6.1.0-el8-x86_64/bin/otool_xtb product_optfreq_XTB.xyz --grad -c -1 -u 0 -P 8 --namespace product_optfreq --input product_optfreq_XTB.input.tmp --acc 0.200000
          hostname                   : midway3-login4.rcc.local
          calculation namespace      : product_optfreq
          coordinate file            : product_optfreq_XTB.xyz
          omp threads                :                     8


molecular fragmentation (1/2 indicates fragments):
111112
# atoms in fragment 1/2:     5     1
 fragment masses (1/2) :      141.94       35.45
CMA distance (Bohr)    :   8.893
constraining FC (au)   :  0.0500

           -------------------------------------------------
          |                 G F N 2 - x T B                 |
           -------------------------------------------------

        Reference                      10.1021/acs.jctc.8b01176
      * Hamiltonian:
        H0-scaling (s, p, d)           1.850000    2.230000    2.230000
        zeta-weighting                 0.500000
      * Dispersion:
        s8                             2.700000
        a1                             0.520000
        a2                             5.000000
        s9                             5.000000
      * Repulsion:
        kExp                           1.500000    1.000000
        rExp                           1.000000
      * Coulomb:
        alpha                          2.000000
        third order                    shell-resolved
        anisotropic                    true
        a3                             3.000000
        a5                             4.000000
        cn-shift                       1.200000
        cn-exp                         4.000000
        max-rad                        5.000000


          ...................................................
          :                      SETUP                      :
          :.................................................:
          :  # basis functions                  27          :
          :  # atomic orbitals                  25          :
          :  # shells                           11          :
          :  # electrons                        22          :
          :  max. iterations                   250          :
          :  Hamiltonian                  GFN2-xTB          :
          :  restarted?                      false          :
          :  GBSA solvation                  false          :
          :  PC potential                    false          :
          :  electronic temp.          300.0000000     K    :
          :  accuracy                    0.2000000          :
          :  -> integral cutoff          0.3198970E+02      :
          :  -> integral neglect         0.2000000E-08      :
          :  -> SCF convergence          0.2000000E-06 Eh   :
          :  -> wf. convergence          0.2000000E-04 e    :
          :  Broyden damping             0.4000000          :
          :  net charge                         -1          :
          :  unpaired electrons                  0          :
          ...................................................

 iter      E             dE          RMSdq      gap      omega  full diag
   1    -12.3096482 -0.123096E+02  0.135E+01    5.10       0.0  T
   2    -12.3345968 -0.249486E-01  0.525E+00    4.81       1.0  T
   3    -12.3403770 -0.578023E-02  0.206E+00    3.15       1.0  T
   4    -12.3407471 -0.370116E-03  0.152E+00    2.96       1.0  T
   5    -12.3411884 -0.441258E-03  0.511E-01    2.77       1.0  T
   6    -12.3413210 -0.132604E-03  0.333E-01    2.77       1.0  T
   7    -12.3413428 -0.218418E-04  0.392E-02    2.86       1.0  T
   8    -12.3413454 -0.260691E-05  0.223E-02    2.84       1.8  T
   9    -12.3413460 -0.558330E-06  0.164E-02    2.83       2.5  T
  10    -12.3413465 -0.496603E-06  0.818E-03    2.84       5.0  T
  11    -12.3413465 -0.665509E-08  0.779E-04    2.84      52.4  T
  12    -12.3413465 -0.105628E-08  0.391E-04    2.84     104.5  T
  13    -12.3413465 -0.100751E-09  0.586E-06    2.84    6963.3  T
  14    -12.3413465 -0.319744E-13  0.291E-06    2.84   14037.9  T

   *** convergence criteria satisfied after 14 iterations ***

         #    Occupation            Energy/Eh            Energy/eV
      -------------------------------------------------------------
         1        2.0000           -0.8034626             -21.8633
       ...           ...                  ...                  ...
         5        2.0000           -0.3609741              -9.8226
         6        2.0000           -0.3450068              -9.3881
         7        2.0000           -0.2833282              -7.7098
         8        2.0000           -0.2833258              -7.7097
         9        2.0000           -0.2014494              -5.4817
        10        2.0000           -0.2005860              -5.4582
        11        2.0000           -0.2005859              -5.4582 (HOMO)
        12                         -0.0962146              -2.6181 (LUMO)
        13                          0.1575184               4.2863
        14                          0.1575266               4.2865
        15                          0.1864941               5.0748
        16                          0.1864983               5.0749
       ...                                ...                  ...
        25                          0.4825049              13.1296
      -------------------------------------------------------------
                  HL-Gap            0.1043713 Eh            2.8401 eV
             Fermi-level           -0.1484003 Eh           -4.0382 eV

 SCC (total)                   0 d,  0 h,  0 min,  0.072 sec
 SCC setup                      ...        0 min,  0.000 sec (  0.239%)
 Dispersion                     ...        0 min,  0.000 sec (  0.089%)
 classical contributions        ...        0 min,  0.000 sec (  0.037%)
 integral evaluation            ...        0 min,  0.069 sec ( 95.952%)
 iterations                     ...        0 min,  0.002 sec (  2.628%)
 molecular gradient             ...        0 min,  0.001 sec (  0.861%)
 printout                       ...        0 min,  0.000 sec (  0.166%)

         :::::::::::::::::::::::::::::::::::::::::::::::::::::
         ::                     SUMMARY                     ::
         :::::::::::::::::::::::::::::::::::::::::::::::::::::
         :: total energy             -12.280291571036 Eh    ::
         :: gradient norm              0.002067644112 Eh/a0 ::
         :: HOMO-LUMO gap              2.840087567656 eV    ::
         ::.................................................::
         :: SCC energy               -12.341347333718 Eh    ::
         :: -> isotropic ES            0.145187580362 Eh    ::
         :: -> anisotropic ES         -0.008917208390 Eh    ::
         :: -> anisotropic XC         -0.003497358773 Eh    ::
         :: -> dispersion             -0.003191393621 Eh    ::
         :: repulsion energy           0.061055762682 Eh    ::
         :: add. restraining           0.000000000000 Eh    ::
         :: total charge              -1.000000000000 e     ::
         :::::::::::::::::::::::::::::::::::::::::::::::::::::


Property printout bound to 'properties.out'

           -------------------------------------------------
          | TOTAL ENERGY              -12.280291571036 Eh   |
          | GRADIENT NORM               0.002067644112 Eh/α |
          | HOMO-LUMO GAP               2.840087567656 eV   |
           -------------------------------------------------

------------------------------------------------------------------------
 * finished run on 2026/03/12 at 12:48:03.388     
------------------------------------------------------------------------
 total:
 * wall-time:     0 d,  0 h,  0 min,  0.103 sec
 *  cpu-time:     0 d,  0 h,  0 min,  0.543 sec
 * ratio c/w:     5.282 speedup
 SCF:
 * wall-time:     0 d,  0 h,  0 min,  0.072 sec
 *  cpu-time:     0 d,  0 h,  0 min,  0.467 sec
 * ratio c/w:     6.487 speedup


-------------------------   --------------------
FINAL SINGLE POINT ENERGY       -12.280291571040
-------------------------   --------------------


-------------
DIPOLE MOMENT
-------------
                                X             Y             Z
Total Dipole Moment    :      0.00000       0.00000       1.90400
                        -----------------------------------------
Magnitude (a.u.)       :      1.90400
Magnitude (Debye)      :      4.83958


------------------
CARTESIAN GRADIENT
------------------

   1   C   :    0.000126356    0.000099195   -0.000455149
   2   H   :   -0.000005266    0.000004266   -0.000368578
   3   H   :    0.000020916   -0.000019382   -0.000375739
   4   H   :   -0.000138503   -0.000081191   -0.000416290
   5   I   :   -0.000002916   -0.000002391   -0.000255108
   6   Cl  :   -0.000000587   -0.000000496    0.001870864

Difference to translation invariance:
           :    0.0000000000    0.0000000000    0.0000000000

Difference to rotation invariance:
           :   -0.0000000007    0.0000000006   -0.0000000000

Norm of the Cartesian gradient     ...    0.0020676441
RMS gradient                       ...    0.0004873484
MAX gradient                       ...    0.0018708636
------------------------------------------------------------------------------
                         ORCA GEOMETRY RELAXATION STEP
------------------------------------------------------------------------------

Reading the OPT-File                    .... done
Getting information on internals        .... done
Copying old internal coords+grads       .... done
Making the new internal coordinates     .... (2022 redundants) done
Validating the new internal coordinates .... (2022 redundants) done
Calculating the B-matrix                .... done
Calculating the G,G- and P matrices     .... done
Transforming gradient to internals      .... done
Projecting the internal gradient        .... done
Number of atoms                         ....   6
Number of internal coordinates          ....  17
Current Energy                          ....   -12.280291571 Eh
Current gradient norm                   ....     0.002067644 Eh/bohr
Maximum allowed component of the step   ....  0.300
Current trust radius                    ....  0.300
Evaluating the initial hessian          ....  (Almloef) done
Projecting the Hessian                  .... done
Forming the augmented Hessian           .... done
Diagonalizing the augmented Hessian     .... done
Last element of RFO vector              ....  0.995196008
Lowest eigenvalues of augmented Hessian:
 -0.000098945  0.010097658  0.046444298  0.046456242  0.118092691
Length of the computed step             ....  0.098375124
The final length of the internal step   ....  0.098375124
Converting the step to Cartesian space:
 Initial RMS(Int)=    0.0238594721
Transforming coordinates:
 Iter   0:  RMS(Cart)=    0.0114070274 RMS(Int)=    0.0238749496
done
Storing new coordinates                 .... done

                                .--------------------.
          ----------------------|Geometry convergence|-------------------------
          Item                value                   Tolerance       Converged
          ---------------------------------------------------------------------
          RMS gradient        0.0002729556            0.0001000000      NO
          MAX gradient        0.0006457010            0.0003000000      NO
          RMS step            0.0238594721            0.0020000000      NO
          MAX step            0.0528164114            0.0040000000      NO
          -------------------------------------------------------------------------
          ........................................................
          Max(Bonds)      0.0279      Max(Angles)    0.02
          Max(Dihed)        0.00      Max(Improp)    0.00
          ---------------------------------------------------------------------

The optimization has not yet converged - more geometry cycles are needed


    ---------------------------------------------------------------------------
                         Redundant Internal Coordinates
                            (Angstroem and degrees)

        Definition                    Value    dE/dq     Step     New-Value
    ----------------------------------------------------------------------------
     1. B(H   1,C   0)                1.0779  0.000155 -0.0002    1.0776   
     2. B(H   2,C   0)                1.0779  0.000180 -0.0003    1.0776   
     3. B(H   3,C   0)                1.0781  0.000319 -0.0005    1.0777   
     4. B(I   4,C   0)                2.1735 -0.000255  0.0011    2.1746   
     5. B(Cl  5,H   2)                2.6462 -0.000443  0.0253    2.6716   
     6. B(Cl  5,H   1)                2.6462 -0.000443  0.0253    2.6716   
     7. B(Cl  5,H   3)                2.6462 -0.000443  0.0253    2.6715   
     8. B(Cl  5,C   0)                2.7696 -0.000646  0.0279    2.7975   
     9. A(H   1,C   0,H   3)          111.04  0.000058   -0.02    111.02   
    10. A(H   2,C   0,H   3)          111.04  0.000056   -0.02    111.02   
    11. A(H   1,C   0,I   4)          107.85 -0.000059    0.02    107.87   
    12. A(H   2,C   0,I   4)          107.85 -0.000062    0.02    107.87   
    13. A(H   3,C   0,I   4)          107.84 -0.000076    0.02    107.87   
    14. A(H   1,C   0,Cl  5)           72.15  0.000068   -0.02     72.13   
    15. A(H   2,C   0,Cl  5)           72.15  0.000067   -0.02     72.13   
    16. A(H   3,C   0,Cl  5)           72.15  0.000062   -0.02     72.13   
    17. A(H   1,C   0,H   2)          111.05  0.000070   -0.02    111.03   
    ----------------------------------------------------------------------------

Geometry step timings:
Preparation and reading OPT file:      0.000 s ( 2.093 %)
Internal coordinates            :      0.000 s ( 1.762 %)
B/P matrices and projection     :      0.000 s ( 5.874 %)
Hessian update/contruction      :      0.002 s (68.025 %)
Making the step                 :      0.000 s ( 5.286 %)
Converting the step to Cartesian:      0.000 s ( 1.872 %)
Storing new data                :      0.000 s ( 3.231 %)
Checking convergence            :      0.000 s ( 2.276 %)
Final printing                  :      0.000 s ( 9.435 %)
Total time                      :      0.003 s

Time for energy+gradient        :      0.113 s
Time for complete geometry iter :      0.118 s

         *************************************************************
         *                GEOMETRY OPTIMIZATION CYCLE   2            *
         *************************************************************
---------------------------------
CARTESIAN COORDINATES (ANGSTROEM)
---------------------------------
  C     0.000109    0.000100    0.279383
  H     0.000039    1.025746   -0.051293
  H     0.888310   -0.512798   -0.051292
  H    -0.888159   -0.512757   -0.051279
  I     0.000051    0.000052    2.454017
  Cl   -0.000005   -0.000006   -2.518107

----------------------------
CARTESIAN COORDINATES (A.U.)
----------------------------
  NO LB    ZA    FRAG    MASS        X           Y           Z
   0 C   6.0000    0    12.011    0.000206    0.000188    0.527958
   1 H   1.0000    0     1.008    0.000074    1.938379   -0.096930
   2 H   1.0000    0     1.008    1.678662   -0.969047   -0.096928
   3 H   1.0000    0     1.008   -1.678377   -0.968971   -0.096903
   4 I  53.0000    0   126.900    0.000097    0.000098    4.637421
   5 Cl 17.0000    0    35.453   -0.000010   -0.000012   -4.758533

      -----------------------------------------------------------      
     |                   =====================                   |     
     |                           x T B                           |     
     |                   =====================                   |     
     |                         S. Grimme                         |     
     |          Mulliken Center for Theoretical Chemistry        |     
     |                    University of Bonn                     |     
      -----------------------------------------------------------      

   * xtb version 6.7.1 (edcfbbe) compiled by 'albert@albert-system' on 2024-07-22

   xtb is free software: you can redistribute it and/or modify it under
   the terms of the GNU Lesser General Public License as published by
   the Free Software Foundation, either version 3 of the License, or
   (at your option) any later version.
   
   xtb is distributed in the hope that it will be useful,
   but WITHOUT ANY WARRANTY; without even the implied warranty of
   MERCHANTABILITY or FITNESS FOR A PARTICULAR PURPOSE.  See the
   GNU Lesser General Public License for more details.
   
   Cite this work as:
   * C. Bannwarth, E. Caldeweyher, S. Ehlert, A. Hansen, P. Pracht,
     J. Seibert, S. Spicher, S. Grimme, WIREs Comput. Mol. Sci., 2020, 11,
     e01493. DOI: 10.1002/wcms.1493
   
   for GFN2-xTB:
   * C. Bannwarth, S. Ehlert and S. Grimme., J. Chem. Theory Comput., 2019,
     15, 1652-1671. DOI: 10.1021/acs.jctc.8b01176
   for GFN1-xTB:
   * S. Grimme, C. Bannwarth, P. Shushkov, J. Chem. Theory Comput., 2017,
     13, 1989-2009. DOI: 10.1021/acs.jctc.7b00118
   for GFN0-xTB:
   * P. Pracht, E. Caldeweyher, S. Ehlert, S. Grimme, ChemRxiv, 2019, preprint.
     DOI: 10.26434/chemrxiv.8326202.v1
   for GFN-FF:
   * S. Spicher and S. Grimme, Angew. Chem. Int. Ed., 2020, 59, 15665-15673.
     DOI: 10.1002/anie.202004239
   
   for ALPB and GBSA implicit solvation:
   * S. Ehlert, M. Stahn, S. Spicher, S. Grimme, J. Chem. Theory Comput.,
     2021, 17, 4250-4261. DOI: 10.1021/acs.jctc.1c00471
   
   for ddCOSMO and CPCM-X implicit solvation:
   * M. Stahn, S. Ehlert, S. Grimme, J. Phys. Chem. A,
     2023, XX, XXXX-XXXX. DOI: 10.1021/acs.jpca.3c04382
   
   for DFT-D4:
   * E. Caldeweyher, C. Bannwarth and S. Grimme, J. Chem. Phys., 2017,
     147, 034112. DOI: 10.1063/1.4993215
   * E. Caldeweyher, S. Ehlert, A. Hansen, H. Neugebauer, S. Spicher,
     C. Bannwarth and S. Grimme, J. Chem. Phys., 2019, 150, 154122.
     DOI: 10.1063/1.5090222
   * E. Caldeweyher, J.-M. Mewes, S. Ehlert and S. Grimme, Phys. Chem. Chem. Phys.
     2020, 22, 8499-8512. DOI: 10.1039/D0CP00502A
   
   for sTDA-xTB:
   * S. Grimme and C. Bannwarth, J. Chem. Phys., 2016, 145, 054103.
     DOI: 10.1063/1.4959605
   
   in the mass-spec context:
   * V. Asgeirsson, C. Bauer and S. Grimme, Chem. Sci., 2017, 8, 4879.
     DOI: 10.1039/c7sc00601b
   * J. Koopman and S. Grimme, ACS Omega 2019, 4, 12, 15120-15133.
     DOI: 10.1021/acsomega.9b02011
   
   for metadynamics refer to:
   * S. Grimme, J. Chem. Theory Comput., 2019, 155, 2847-2862
     DOI: 10.1021/acs.jctc.9b00143
   
   for SPH calculations refer to:
   * S. Spicher and S. Grimme, J. Chem. Theory Comput., 2021, 17, 1701-1714
     DOI: 10.1021/acs.jctc.0c01306
   
   for ONIOM refer to:
   * C. Plett, A. Katbashev, S. Ehlert, S. Grimme, M. Bursch,
     Phys. Chem. Chem. Phys., 2023, 25, 17860-17868. DOI: 10.1039/D3CP02178E
   
   for DIPRO refer to:
   * J. Kohn, N. Gildemeister, S. Grimme, D. Fazzi, A. Hansen,
     J. Chem. Phys., 2023, just accepted.
   
   for PTB refer to:
   * S. Grimme, M. Mueller, A. Hansen, J. Chem. Phys., 2023, 158, 124111.
     DOI: 10.1063/5.0137838
   
   with help from (in alphabetical order)
   P. Atkinson, C. Bannwarth, F. Bohle, G. Brandenburg, E. Caldeweyher
   M. Checinski, S. Dohm, S. Ehlert, S. Ehrlich, I. Gerasimov, C. Hölzer
   A. Katbashev, J. Kohn, J. Koopman, C. Lavigne, S. Lehtola, F. März, M. Müller,
   F. Musil, H. Neugebauer, J. Pisarek, C. Plett, P. Pracht, F. Pultar,
   J. Seibert, P. Shushkov, S. Spicher, M. Stahn, M. Steiner, T. Strunk,
   J. Stückrath, T. Rose, and J. Unsleber
   
 * started run on 2026/03/12 at 12:48:03.403     
   ID    Z sym.   atoms
    1    6 C      1
    2    1 H      2-4
    3   53 I      5
    4   17 Cl     6

           -------------------------------------------------
          |                Calculation Setup                |
           -------------------------------------------------

          program call               : /software/orca-6.1.0-el8-x86_64/bin/otool_xtb product_optfreq_XTB.xyz --grad -c -1 -u 0 -P 8 --namespace product_optfreq --input product_optfreq_XTB.input.tmp --acc 0.200000
          hostname                   : midway3-login4.rcc.local
          calculation namespace      : product_optfreq
          coordinate file            : product_optfreq_XTB.xyz
          omp threads                :                     8


molecular fragmentation (1/2 indicates fragments):
111112
# atoms in fragment 1/2:     5     1
 fragment masses (1/2) :      141.94       35.45
CMA distance (Bohr)    :   8.947
constraining FC (au)   :  0.0500

           -------------------------------------------------
          |                 G F N 2 - x T B                 |
           -------------------------------------------------

        Reference                      10.1021/acs.jctc.8b01176
      * Hamiltonian:
        H0-scaling (s, p, d)           1.850000    2.230000    2.230000
        zeta-weighting                 0.500000
      * Dispersion:
        s8                             2.700000
        a1                             0.520000
        a2                             5.000000
        s9                             5.000000
      * Repulsion:
        kExp                           1.500000    1.000000
        rExp                           1.000000
      * Coulomb:
        alpha                          2.000000
        third order                    shell-resolved
        anisotropic                    true
        a3                             3.000000
        a5                             4.000000
        cn-shift                       1.200000
        cn-exp                         4.000000
        max-rad                        5.000000

q/qsh data taken from xtbrestart
CAMM data taken from xtbrestart

          ...................................................
          :                      SETUP                      :
          :.................................................:
          :  # basis functions                  27          :
          :  # atomic orbitals                  25          :
          :  # shells                           11          :
          :  # electrons                        22          :
          :  max. iterations                   250          :
          :  Hamiltonian                  GFN2-xTB          :
          :  restarted?                       true          :
          :  GBSA solvation                  false          :
          :  PC potential                    false          :
          :  electronic temp.          300.0000000     K    :
          :  accuracy                    0.2000000          :
          :  -> integral cutoff          0.3198970E+02      :
          :  -> integral neglect         0.2000000E-08      :
          :  -> SCF convergence          0.2000000E-06 Eh   :
          :  -> wf. convergence          0.2000000E-04 e    :
          :  Broyden damping             0.4000000          :
          :  net charge                         -1          :
          :  unpaired electrons                  0          :
          ...................................................

 iter      E             dE          RMSdq      gap      omega  full diag
   1    -12.3415018 -0.123415E+02  0.758E-02    2.79       0.0  T
   2    -12.3415064 -0.464940E-05  0.576E-02    2.78       1.0  T
   3    -12.3415074 -0.990183E-06  0.322E-02    2.77       1.3  T
   4    -12.3415075 -0.962645E-07  0.163E-02    2.77       2.5  T
   5    -12.3415077 -0.118304E-06  0.603E-03    2.77       6.8  T
   6    -12.3415077 -0.216146E-07  0.165E-03    2.77      24.7  T
   7    -12.3415077 -0.542322E-09  0.704E-04    2.77      58.0  T
   8    -12.3415077 -0.218336E-09  0.219E-04    2.77     186.7  T
   9    -12.3415077 -0.804903E-10  0.585E-05    2.77     697.8  T
  10    -12.3415077 -0.884626E-12  0.270E-06    2.77   15126.0  T

   *** convergence criteria satisfied after 10 iterations ***

         #    Occupation            Energy/Eh            Energy/eV
      -------------------------------------------------------------
         1        2.0000           -0.8024230             -21.8350
       ...           ...                  ...                  ...
         5        2.0000           -0.3621057              -9.8534
         6        2.0000           -0.3461846              -9.4202
         7        2.0000           -0.2845122              -7.7420
         8        2.0000           -0.2845106              -7.7419
         9        2.0000           -0.2009088              -5.4670
        10        2.0000           -0.1999171              -5.4400
        11        2.0000           -0.1999171              -5.4400 (HOMO)
        12                         -0.0981377              -2.6705 (LUMO)
        13                          0.1560884               4.2474
        14                          0.1560916               4.2475
        15                          0.1849112               5.0317
        16                          0.1849131               5.0317
       ...                                ...                  ...
        25                          0.4800002              13.0615
      -------------------------------------------------------------
                  HL-Gap            0.1017794 Eh            2.7696 eV
             Fermi-level           -0.1490274 Eh           -4.0552 eV

 SCC (total)                   0 d,  0 h,  0 min,  0.108 sec
 SCC setup                      ...        0 min,  0.000 sec (  0.226%)
 Dispersion                     ...        0 min,  0.002 sec (  1.818%)
 classical contributions        ...        0 min,  0.000 sec (  0.039%)
 integral evaluation            ...        0 min,  0.103 sec ( 95.639%)
 iterations                     ...        0 min,  0.002 sec (  1.571%)
 molecular gradient             ...        0 min,  0.001 sec (  0.561%)
 printout                       ...        0 min,  0.000 sec (  0.123%)

         :::::::::::::::::::::::::::::::::::::::::::::::::::::
         ::                     SUMMARY                     ::
         :::::::::::::::::::::::::::::::::::::::::::::::::::::
         :: total energy             -12.280362969324 Eh    ::
         :: gradient norm              0.001670891926 Eh/a0 ::
         :: HOMO-LUMO gap              2.769557492720 eV    ::
         ::.................................................::
         :: SCC energy               -12.341508539797 Eh    ::
         :: -> isotropic ES            0.145726203412 Eh    ::
         :: -> anisotropic ES         -0.008787308994 Eh    ::
         :: -> anisotropic XC         -0.003397997846 Eh    ::
         :: -> dispersion             -0.003174223983 Eh    ::
         :: repulsion energy           0.061145570472 Eh    ::
         :: add. restraining           0.000000000000 Eh    ::
         :: total charge              -1.000000000000 e     ::
         :::::::::::::::::::::::::::::::::::::::::::::::::::::


Property printout bound to 'properties.out'

           -------------------------------------------------
          | TOTAL ENERGY              -12.280362969324 Eh   |
          | GRADIENT NORM               0.001670891926 Eh/α |
          | HOMO-LUMO GAP               2.769557492720 eV   |
           -------------------------------------------------

------------------------------------------------------------------------
 * finished run on 2026/03/12 at 12:48:03.569     
------------------------------------------------------------------------
 total:
 * wall-time:     0 d,  0 h,  0 min,  0.165 sec
 *  cpu-time:     0 d,  0 h,  0 min,  0.558 sec
 * ratio c/w:     3.374 speedup
 SCF:
 * wall-time:     0 d,  0 h,  0 min,  0.108 sec
 *  cpu-time:     0 d,  0 h,  0 min,  0.420 sec
 * ratio c/w:     3.881 speedup


-------------------------   --------------------
FINAL SINGLE POINT ENERGY       -12.280362969320
-------------------------   --------------------


-------------
DIPOLE MOMENT
-------------
                                X             Y             Z
Total Dipole Moment    :      0.00000       0.00000       1.97900
                        -----------------------------------------
Magnitude (a.u.)       :      1.97900
Magnitude (Debye)      :      5.03022


------------------
CARTESIAN GRADIENT
------------------

   1   C   :    0.000026470    0.000020937   -0.001100933
   2   H   :   -0.000007402   -0.000206456   -0.000178442
   3   H   :   -0.000180861    0.000094271   -0.000179306
   4   H   :    0.000164128    0.000093157   -0.000183950
   5   I   :   -0.000002114   -0.000001705    0.000744378
   6   Cl  :   -0.000000221   -0.000000204    0.000898253

Difference to translation invariance:
           :    0.0000000000   -0.0000000000   -0.0000000000

Difference to rotation invariance:
           :   -0.0000000002    0.0000000002    0.0000000000

Norm of the Cartesian gradient     ...    0.0016708919
RMS gradient                       ...    0.0003938330
MAX gradient                       ...    0.0011009329
------------------------------------------------------------------------------
                         ORCA GEOMETRY RELAXATION STEP
------------------------------------------------------------------------------

Reading the OPT-File                    .... done
Getting information on internals        .... done
Copying old internal coords+grads       .... done
Making the new internal coordinates     .... (2022 redundants) done
Validating the new internal coordinates .... (2022 redundants) done
Calculating the B-matrix                .... done
Calculating the G,G- and P matrices     .... done
Transforming gradient to internals      .... done
Projecting the internal gradient        .... done
Number of atoms                         ....   6
Number of internal coordinates          ....  17
Current Energy                          ....   -12.280362969 Eh
Current gradient norm                   ....     0.001670892 Eh/bohr
Maximum allowed component of the step   ....  0.300
Current trust radius                    ....  0.300
Updating the Hessian (BFGS)             .... done
Forming the augmented Hessian           .... done
Diagonalizing the augmented Hessian     .... done
Last element of RFO vector              ....  0.994178013
Lowest eigenvalues of augmented Hessian:
 -0.000059681  0.004761249  0.046444296  0.046456242  0.135633995
Length of the computed step             ....  0.108381064
The final length of the internal step   ....  0.108381064
Converting the step to Cartesian space:
 Initial RMS(Int)=    0.0262862690
Transforming coordinates:
 Iter   0:  RMS(Cart)=    0.0120286881 RMS(Int)=    0.0263023906
done
Storing new coordinates                 .... done
The predicted energy change is          ....    -0.000030191
Previously predicted energy change      ....    -0.000049951
Actually observed energy change         ....    -0.000071398
Ratio of predicted to observed change   ....     1.429354409
New trust radius                        ....     0.300000000

                                .--------------------.
          ----------------------|Geometry convergence|-------------------------
          Item                value                   Tolerance       Converged
          ---------------------------------------------------------------------
          Energy change      -0.0000713983            0.0000050000      NO
          RMS gradient        0.0002198052            0.0001000000      NO
          MAX gradient        0.0007443776            0.0003000000      NO
          RMS step            0.0262862690            0.0020000000      NO
          MAX step            0.0573035528            0.0040000000      NO
          -------------------------------------------------------------------------
          ........................................................
          Max(Bonds)      0.0303      Max(Angles)    0.01
          Max(Dihed)        0.00      Max(Improp)    0.00
          ---------------------------------------------------------------------

The optimization has not yet converged - more geometry cycles are needed


    ---------------------------------------------------------------------------
                         Redundant Internal Coordinates
                            (Angstroem and degrees)

        Definition                    Value    dE/dq     Step     New-Value
    ----------------------------------------------------------------------------
     1. B(H   1,C   0)                1.0776 -0.000122  0.0003    1.0779   
     2. B(H   2,C   0)                1.0776 -0.000120  0.0002    1.0779   
     3. B(H   3,C   0)                1.0777 -0.000104  0.0002    1.0778   
     4. B(I   4,C   0)                2.1746  0.000744 -0.0058    2.1688   
     5. B(Cl  5,H   2)                2.6716 -0.000235  0.0279    2.6995   
     6. B(Cl  5,H   1)                2.6716 -0.000235  0.0279    2.6995   
     7. B(Cl  5,H   3)                2.6715 -0.000236  0.0279    2.6994   
     8. B(Cl  5,C   0)                2.7975 -0.000247  0.0303    2.8278   
     9. A(H   1,C   0,H   3)          111.02 -0.000004   -0.00    111.02   
    10. A(H   2,C   0,H   3)          111.02 -0.000007   -0.00    111.02   
    11. A(H   1,C   0,I   4)          107.87  0.000004    0.00    107.87   
    12. A(H   2,C   0,I   4)          107.87  0.000002    0.00    107.87   
    13. A(H   3,C   0,I   4)          107.87 -0.000008    0.01    107.87   
    14. A(H   1,C   0,Cl  5)           72.13  0.000001   -0.01     72.13   
    15. A(H   2,C   0,Cl  5)           72.13  0.000001   -0.01     72.13   
    16. A(H   3,C   0,Cl  5)           72.13  0.000000   -0.00     72.12   
    17. A(H   1,C   0,H   2)          111.03  0.000013   -0.01    111.02   
    ----------------------------------------------------------------------------

Geometry step timings:
Preparation and reading OPT file:      0.000 s ( 3.260 %)
Internal coordinates            :      0.000 s ( 3.586 %)
B/P matrices and projection     :      0.000 s (12.062 %)
Hessian update/contruction      :      0.000 s (31.377 %)
Making the step                 :      0.000 s ( 8.883 %)
Converting the step to Cartesian:      0.000 s ( 2.852 %)
Storing new data                :      0.000 s ( 7.009 %)
Checking convergence            :      0.000 s ( 7.498 %)
Final printing                  :      0.000 s (23.309 %)
Total time                      :      0.001 s

Time for energy+gradient        :      0.175 s
Time for complete geometry iter :      0.178 s

         *************************************************************
         *                GEOMETRY OPTIMIZATION CYCLE   3            *
         *************************************************************
---------------------------------
CARTESIAN COORDINATES (ANGSTROEM)
---------------------------------
  C     0.000063    0.000062    0.285487
  H     0.000044    1.025929   -0.045360
  H     0.888471   -0.512885   -0.045358
  H    -0.888311   -0.512844   -0.045342
  I     0.000071    0.000069    2.454303
  Cl    0.000008    0.000006   -2.542301

----------------------------
CARTESIAN COORDINATES (A.U.)
----------------------------
  NO LB    ZA    FRAG    MASS        X           Y           Z
   0 C   6.0000    0    12.011    0.000118    0.000118    0.539493
   1 H   1.0000    0     1.008    0.000083    1.938725   -0.085718
   2 H   1.0000    0     1.008    1.678966   -0.969212   -0.085715
   3 H   1.0000    0     1.008   -1.678664   -0.969136   -0.085683
   4 I  53.0000    0   126.900    0.000133    0.000130    4.637960
   5 Cl 17.0000    0    35.453    0.000015    0.000011   -4.804252

      -----------------------------------------------------------      
     |                   =====================                   |     
     |                           x T B                           |     
     |                   =====================                   |     
     |                         S. Grimme                         |     
     |          Mulliken Center for Theoretical Chemistry        |     
     |                    University of Bonn                     |     
      -----------------------------------------------------------      

   * xtb version 6.7.1 (edcfbbe) compiled by 'albert@albert-system' on 2024-07-22

   xtb is free software: you can redistribute it and/or modify it under
   the terms of the GNU Lesser General Public License as published by
   the Free Software Foundation, either version 3 of the License, or
   (at your option) any later version.
   
   xtb is distributed in the hope that it will be useful,
   but WITHOUT ANY WARRANTY; without even the implied warranty of
   MERCHANTABILITY or FITNESS FOR A PARTICULAR PURPOSE.  See the
   GNU Lesser General Public License for more details.
   
   Cite this work as:
   * C. Bannwarth, E. Caldeweyher, S. Ehlert, A. Hansen, P. Pracht,
     J. Seibert, S. Spicher, S. Grimme, WIREs Comput. Mol. Sci., 2020, 11,
     e01493. DOI: 10.1002/wcms.1493
   
   for GFN2-xTB:
   * C. Bannwarth, S. Ehlert and S. Grimme., J. Chem. Theory Comput., 2019,
     15, 1652-1671. DOI: 10.1021/acs.jctc.8b01176
   for GFN1-xTB:
   * S. Grimme, C. Bannwarth, P. Shushkov, J. Chem. Theory Comput., 2017,
     13, 1989-2009. DOI: 10.1021/acs.jctc.7b00118
   for GFN0-xTB:
   * P. Pracht, E. Caldeweyher, S. Ehlert, S. Grimme, ChemRxiv, 2019, preprint.
     DOI: 10.26434/chemrxiv.8326202.v1
   for GFN-FF:
   * S. Spicher and S. Grimme, Angew. Chem. Int. Ed., 2020, 59, 15665-15673.
     DOI: 10.1002/anie.202004239
   
   for ALPB and GBSA implicit solvation:
   * S. Ehlert, M. Stahn, S. Spicher, S. Grimme, J. Chem. Theory Comput.,
     2021, 17, 4250-4261. DOI: 10.1021/acs.jctc.1c00471
   
   for ddCOSMO and CPCM-X implicit solvation:
   * M. Stahn, S. Ehlert, S. Grimme, J. Phys. Chem. A,
     2023, XX, XXXX-XXXX. DOI: 10.1021/acs.jpca.3c04382
   
   for DFT-D4:
   * E. Caldeweyher, C. Bannwarth and S. Grimme, J. Chem. Phys., 2017,
     147, 034112. DOI: 10.1063/1.4993215
   * E. Caldeweyher, S. Ehlert, A. Hansen, H. Neugebauer, S. Spicher,
     C. Bannwarth and S. Grimme, J. Chem. Phys., 2019, 150, 154122.
     DOI: 10.1063/1.5090222
   * E. Caldeweyher, J.-M. Mewes, S. Ehlert and S. Grimme, Phys. Chem. Chem. Phys.
     2020, 22, 8499-8512. DOI: 10.1039/D0CP00502A
   
   for sTDA-xTB:
   * S. Grimme and C. Bannwarth, J. Chem. Phys., 2016, 145, 054103.
     DOI: 10.1063/1.4959605
   
   in the mass-spec context:
   * V. Asgeirsson, C. Bauer and S. Grimme, Chem. Sci., 2017, 8, 4879.
     DOI: 10.1039/c7sc00601b
   * J. Koopman and S. Grimme, ACS Omega 2019, 4, 12, 15120-15133.
     DOI: 10.1021/acsomega.9b02011
   
   for metadynamics refer to:
   * S. Grimme, J. Chem. Theory Comput., 2019, 155, 2847-2862
     DOI: 10.1021/acs.jctc.9b00143
   
   for SPH calculations refer to:
   * S. Spicher and S. Grimme, J. Chem. Theory Comput., 2021, 17, 1701-1714
     DOI: 10.1021/acs.jctc.0c01306
   
   for ONIOM refer to:
   * C. Plett, A. Katbashev, S. Ehlert, S. Grimme, M. Bursch,
     Phys. Chem. Chem. Phys., 2023, 25, 17860-17868. DOI: 10.1039/D3CP02178E
   
   for DIPRO refer to:
   * J. Kohn, N. Gildemeister, S. Grimme, D. Fazzi, A. Hansen,
     J. Chem. Phys., 2023, just accepted.
   
   for PTB refer to:
   * S. Grimme, M. Mueller, A. Hansen, J. Chem. Phys., 2023, 158, 124111.
     DOI: 10.1063/5.0137838
   
   with help from (in alphabetical order)
   P. Atkinson, C. Bannwarth, F. Bohle, G. Brandenburg, E. Caldeweyher
   M. Checinski, S. Dohm, S. Ehlert, S. Ehrlich, I. Gerasimov, C. Hölzer
   A. Katbashev, J. Kohn, J. Koopman, C. Lavigne, S. Lehtola, F. März, M. Müller,
   F. Musil, H. Neugebauer, J. Pisarek, C. Plett, P. Pracht, F. Pultar,
   J. Seibert, P. Shushkov, S. Spicher, M. Stahn, M. Steiner, T. Strunk,
   J. Stückrath, T. Rose, and J. Unsleber
   
 * started run on 2026/03/12 at 12:48:03.581     
   ID    Z sym.   atoms
    1    6 C      1
    2    1 H      2-4
    3   53 I      5
    4   17 Cl     6

           -------------------------------------------------
          |                Calculation Setup                |
           -------------------------------------------------

          program call               : /software/orca-6.1.0-el8-x86_64/bin/otool_xtb product_optfreq_XTB.xyz --grad -c -1 -u 0 -P 8 --namespace product_optfreq --input product_optfreq_XTB.input.tmp --acc 0.200000
          hostname                   : midway3-login4.rcc.local
          calculation namespace      : product_optfreq
          coordinate file            : product_optfreq_XTB.xyz
          omp threads                :                     8


molecular fragmentation (1/2 indicates fragments):
111112
# atoms in fragment 1/2:     5     1
 fragment masses (1/2) :      141.94       35.45
CMA distance (Bohr)    :   8.995
constraining FC (au)   :  0.0500

           -------------------------------------------------
          |                 G F N 2 - x T B                 |
           -------------------------------------------------

        Reference                      10.1021/acs.jctc.8b01176
      * Hamiltonian:
        H0-scaling (s, p, d)           1.850000    2.230000    2.230000
        zeta-weighting                 0.500000
      * Dispersion:
        s8                             2.700000
        a1                             0.520000
        a2                             5.000000
        s9                             5.000000
      * Repulsion:
        kExp                           1.500000    1.000000
        rExp                           1.000000
      * Coulomb:
        alpha                          2.000000
        third order                    shell-resolved
        anisotropic                    true
        a3                             3.000000
        a5                             4.000000
        cn-shift                       1.200000
        cn-exp                         4.000000
        max-rad                        5.000000

q/qsh data taken from xtbrestart
CAMM data taken from xtbrestart

          ...................................................
          :                      SETUP                      :
          :.................................................:
          :  # basis functions                  27          :
          :  # atomic orbitals                  25          :
          :  # shells                           11          :
          :  # electrons                        22          :
          :  max. iterations                   250          :
          :  Hamiltonian                  GFN2-xTB          :
          :  restarted?                       true          :
          :  GBSA solvation                  false          :
          :  PC potential                    false          :
          :  electronic temp.          300.0000000     K    :
          :  accuracy                    0.2000000          :
          :  -> integral cutoff          0.3198970E+02      :
          :  -> integral neglect         0.2000000E-08      :
          :  -> SCF convergence          0.2000000E-06 Eh   :
          :  -> wf. convergence          0.2000000E-04 e    :
          :  Broyden damping             0.4000000          :
          :  net charge                         -1          :
          :  unpaired electrons                  0          :
          ...................................................

 iter      E             dE          RMSdq      gap      omega  full diag
   1    -12.3416597 -0.123417E+02  0.134E-01    2.77       0.0  T
   2    -12.3416682 -0.857178E-05  0.504E-02    2.75       1.0  T
   3    -12.3416699 -0.162018E-05  0.230E-02    2.74       1.8  T
   4    -12.3416699 -0.575132E-07  0.198E-02    2.73       2.1  T
   5    -12.3416700 -0.129802E-06  0.453E-03    2.73       9.0  T
   6    -12.3416701 -0.142406E-07  0.156E-03    2.73      26.2  T
   7    -12.3416701 -0.946537E-09  0.103E-03    2.73      39.7  T
   8    -12.3416701 -0.279464E-09  0.137E-04    2.73     297.6  T
   9    -12.3416701 -0.112479E-10  0.465E-05    2.73     877.9  T

   *** convergence criteria satisfied after 9 iterations ***

         #    Occupation            Energy/Eh            Energy/eV
      -------------------------------------------------------------
         1        2.0000           -0.8010742             -21.7983
       ...           ...                  ...                  ...
         5        2.0000           -0.3635264              -9.8921
         6        2.0000           -0.3479038              -9.4669
         7        2.0000           -0.2859909              -7.7822
         8        2.0000           -0.2859907              -7.7822
         9        2.0000           -0.2001122              -5.4453
        10        2.0000           -0.1990551              -5.4166
        11        2.0000           -0.1990551              -5.4166 (HOMO)
        12                         -0.0988085              -2.6887 (LUMO)
        13                          0.1538380               4.1861
        14                          0.1538385               4.1862
        15                          0.1832112               4.9854
        16                          0.1832118               4.9854
       ...                                ...                  ...
        25                          0.4829181              13.1409
      -------------------------------------------------------------
                  HL-Gap            0.1002466 Eh            2.7278 eV
             Fermi-level           -0.1489318 Eh           -4.0526 eV

 SCC (total)                   0 d,  0 h,  0 min,  0.057 sec
 SCC setup                      ...        0 min,  0.000 sec (  0.313%)
 Dispersion                     ...        0 min,  0.000 sec (  0.086%)
 classical contributions        ...        0 min,  0.000 sec (  0.048%)
 integral evaluation            ...        0 min,  0.053 sec ( 94.029%)
 iterations                     ...        0 min,  0.002 sec (  3.151%)
 molecular gradient             ...        0 min,  0.001 sec (  2.052%)
 printout                       ...        0 min,  0.000 sec (  0.288%)

         :::::::::::::::::::::::::::::::::::::::::::::::::::::
         ::                     SUMMARY                     ::
         :::::::::::::::::::::::::::::::::::::::::::::::::::::
         :: total energy             -12.280396002139 Eh    ::
         :: gradient norm              0.000766547703 Eh/a0 ::
         :: HOMO-LUMO gap              2.727849172818 eV    ::
         ::.................................................::
         :: SCC energy               -12.341670964139 Eh    ::
         :: -> isotropic ES            0.146488655773 Eh    ::
         :: -> anisotropic ES         -0.008756075972 Eh    ::
         :: -> anisotropic XC         -0.003512931153 Eh    ::
         :: -> dispersion             -0.003160597073 Eh    ::
         :: repulsion energy           0.061274961999 Eh    ::
         :: add. restraining           0.000000000000 Eh    ::
         :: total charge              -1.000000000000 e     ::
         :::::::::::::::::::::::::::::::::::::::::::::::::::::


Property printout bound to 'properties.out'

           -------------------------------------------------
          | TOTAL ENERGY              -12.280396002139 Eh   |
          | GRADIENT NORM               0.000766547703 Eh/α |
          | HOMO-LUMO GAP               2.727849172818 eV   |
           -------------------------------------------------

------------------------------------------------------------------------
 * finished run on 2026/03/12 at 12:48:03.661     
------------------------------------------------------------------------
 total:
 * wall-time:     0 d,  0 h,  0 min,  0.079 sec
 *  cpu-time:     0 d,  0 h,  0 min,  0.284 sec
 * ratio c/w:     3.593 speedup
 SCF:
 * wall-time:     0 d,  0 h,  0 min,  0.057 sec
 *  cpu-time:     0 d,  0 h,  0 min,  0.218 sec
 * ratio c/w:     3.844 speedup


-------------------------   --------------------
FINAL SINGLE POINT ENERGY       -12.280396002140
-------------------------   --------------------


-------------
DIPOLE MOMENT
-------------
                                X             Y             Z
Total Dipole Moment    :     -0.00000      -0.00000       2.06500
                        -----------------------------------------
Magnitude (a.u.)       :      2.06500
Magnitude (Debye)      :      5.24881


------------------
CARTESIAN GRADIENT
------------------

   1   C   :   -0.000023780   -0.000018567   -0.000655473
   2   H   :   -0.000003372   -0.000066605    0.000190433
   3   H   :   -0.000064807    0.000032817    0.000191969
   4   H   :    0.000092088    0.000052462    0.000201197
   5   I   :   -0.000000132   -0.000000088   -0.000063822
   6   Cl  :    0.000000003   -0.000000019    0.000135695

Difference to translation invariance:
           :    0.0000000000   -0.0000000000   -0.0000000000

Difference to rotation invariance:
           :    0.0000000010   -0.0000000012   -0.0000000000

Norm of the Cartesian gradient     ...    0.0007665477
RMS gradient                       ...    0.0001806770
MAX gradient                       ...    0.0006554727
------------------------------------------------------------------------------
                         ORCA GEOMETRY RELAXATION STEP
------------------------------------------------------------------------------

Reading the OPT-File                    .... done
Getting information on internals        .... done
Copying old internal coords+grads       .... done
Making the new internal coordinates     .... (2022 redundants) done
Validating the new internal coordinates .... (2022 redundants) done
Calculating the B-matrix                .... done
Calculating the G,G- and P matrices     .... done
Transforming gradient to internals      .... done
Projecting the internal gradient        .... done
Number of atoms                         ....   6
Number of internal coordinates          ....  17
Current Energy                          ....   -12.280396002 Eh
Current gradient norm                   ....     0.000766548 Eh/bohr
Maximum allowed component of the step   ....  0.300
Current trust radius                    ....  0.300
Updating the Hessian (BFGS)             .... done
Forming the augmented Hessian           .... done
Diagonalizing the augmented Hessian     .... done
Last element of RFO vector              ....  0.999818601
Lowest eigenvalues of augmented Hessian:
 -0.000002238  0.004048292  0.046444293  0.046456242  0.137623601
Length of the computed step             ....  0.019049849
The final length of the internal step   ....  0.019049849
Converting the step to Cartesian space:
 Initial RMS(Int)=    0.0046202670
Transforming coordinates:
 Iter   0:  RMS(Cart)=    0.0021802743 RMS(Int)=    0.0046207083
done
Storing new coordinates                 .... done
The predicted energy change is          ....    -0.000001120
Previously predicted energy change      ....    -0.000030191
Actually observed energy change         ....    -0.000033033
Ratio of predicted to observed change   ....     1.094125314
New trust radius                        ....     0.450000000

                                .--------------------.
          ----------------------|Geometry convergence|-------------------------
          Item                value                   Tolerance       Converged
          ---------------------------------------------------------------------
          Energy change      -0.0000330328            0.0000050000      NO
          RMS gradient        0.0001044932            0.0001000000      NO
          MAX gradient        0.0001875845            0.0003000000      YES
          RMS step            0.0046202670            0.0020000000      NO
          MAX step            0.0109536808            0.0040000000      NO
          -------------------------------------------------------------------------
          ........................................................
          Max(Bonds)      0.0058      Max(Angles)    0.04
          Max(Dihed)        0.00      Max(Improp)    0.00
          ---------------------------------------------------------------------

The optimization has not yet converged - more geometry cycles are needed


    ---------------------------------------------------------------------------
                         Redundant Internal Coordinates
                            (Angstroem and degrees)

        Definition                    Value    dE/dq     Step     New-Value
    ----------------------------------------------------------------------------
     1. B(H   1,C   0)                1.0779 -0.000123  0.0002    1.0781   
     2. B(H   2,C   0)                1.0779 -0.000129  0.0002    1.0781   
     3. B(H   3,C   0)                1.0778 -0.000164  0.0003    1.0781   
     4. B(I   4,C   0)                2.1688 -0.000064 -0.0003    2.1685   
     5. B(Cl  5,H   2)                2.6995  0.000019  0.0047    2.7042   
     6. B(Cl  5,H   1)                2.6995  0.000019  0.0047    2.7042   
     7. B(Cl  5,H   3)                2.6994  0.000018  0.0047    2.7042   
     8. B(Cl  5,C   0)                2.8278 -0.000188  0.0058    2.8336   
     9. A(H   1,C   0,H   3)          111.02  0.000092   -0.03    110.99   
    10. A(H   2,C   0,H   3)          111.02  0.000090   -0.03    110.99   
    11. A(H   1,C   0,I   4)          107.87 -0.000100    0.03    107.91   
    12. A(H   2,C   0,I   4)          107.87 -0.000100    0.03    107.91   
    13. A(H   3,C   0,I   4)          107.88 -0.000100    0.04    107.91   
    14. A(H   1,C   0,Cl  5)           72.13  0.000100   -0.03     72.09   
    15. A(H   2,C   0,Cl  5)           72.13  0.000100   -0.03     72.09   
    16. A(H   3,C   0,Cl  5)           72.12  0.000101   -0.03     72.09   
    17. A(H   1,C   0,H   2)          111.02  0.000100   -0.03    110.99   
    ----------------------------------------------------------------------------

Geometry step timings:
Preparation and reading OPT file:      0.000 s ( 2.877 %)
Internal coordinates            :      0.000 s ( 3.051 %)
B/P matrices and projection     :      0.000 s (14.211 %)
Hessian update/contruction      :      0.000 s (29.294 %)
Making the step                 :      0.000 s ( 7.759 %)
Converting the step to Cartesian:      0.000 s ( 2.616 %)
Storing new data                :      0.000 s ( 7.585 %)
Checking convergence            :      0.000 s ( 7.672 %)
Final printing                  :      0.000 s (24.760 %)
Total time                      :      0.001 s

Time for energy+gradient        :      0.089 s
Time for complete geometry iter :      0.093 s

         *************************************************************
         *                GEOMETRY OPTIMIZATION CYCLE   4            *
         *************************************************************
---------------------------------
CARTESIAN COORDINATES (ANGSTROEM)
---------------------------------
  C     0.000062    0.000062    0.286852
  H     0.000061    1.025935   -0.044689
  H     0.888493   -0.512875   -0.044690
  H    -0.888364   -0.512872   -0.044690
  I     0.000080    0.000077    2.455375
  Cl    0.000012    0.000010   -2.546730

----------------------------
CARTESIAN COORDINATES (A.U.)
----------------------------
  NO LB    ZA    FRAG    MASS        X           Y           Z
   0 C   6.0000    0    12.011    0.000118    0.000117    0.542071
   1 H   1.0000    0     1.008    0.000115    1.938737   -0.084450
   2 H   1.0000    0     1.008    1.679009   -0.969193   -0.084451
[...]
        25                          0.4831556              13.1473
      -------------------------------------------------------------
                  HL-Gap            0.0997380 Eh            2.7140 eV
             Fermi-level           -0.1489992 Eh           -4.0545 eV

 SCC (total)                   0 d,  0 h,  0 min,  0.089 sec
 SCC setup                      ...        0 min,  0.000 sec (  0.252%)
 Dispersion                     ...        0 min,  0.000 sec (  0.056%)
 classical contributions        ...        0 min,  0.000 sec (  0.035%)
 integral evaluation            ...        0 min,  0.087 sec ( 97.776%)
 iterations                     ...        0 min,  0.001 sec (  1.066%)
 molecular gradient             ...        0 min,  0.001 sec (  0.660%)
 printout                       ...        0 min,  0.000 sec (  0.135%)

         :::::::::::::::::::::::::::::::::::::::::::::::::::::
         ::                     SUMMARY                     ::
         :::::::::::::::::::::::::::::::::::::::::::::::::::::
         :: total energy             -12.280397824416 Eh    ::
         :: gradient norm              0.000344126446 Eh/a0 ::
         :: HOMO-LUMO gap              2.714010225736 eV    ::
         ::.................................................::
         :: SCC energy               -12.341573828113 Eh    ::
         :: -> isotropic ES            0.146648639493 Eh    ::
         :: -> anisotropic ES         -0.008741282501 Eh    ::
         :: -> anisotropic XC         -0.003501341022 Eh    ::
         :: -> dispersion             -0.003156643162 Eh    ::
         :: repulsion energy           0.061176003697 Eh    ::
         :: add. restraining           0.000000000000 Eh    ::
         :: total charge              -1.000000000000 e     ::
         :::::::::::::::::::::::::::::::::::::::::::::::::::::

           ------------------------------------------------- 
          |                Numerical Hessian                |
           ------------------------------------------------- 
step length          :   0.00500
SCC accuracy         :   0.30000
Hessian scale factor :   1.00000
frozen atoms in %    :   0.00000    0
RMS gradient         :   0.00034
estimated CPU  time      0.00 min
estimated wall time      0.00 min

writing file <hessian>.

 projected vibrational frequencies (cm⁻¹)
eigval :       -0.00    -0.00    -0.00    -0.00     0.00     0.00
eigval :       88.97    89.01   112.52   483.43   914.22   914.22
eigval :     1268.83  1436.23  1436.33  3102.06  3123.00  3123.06

Property printout bound to 'properties.out'
Molecule has the following symmetry elements: (C3) 3*(sigma) 
It seems to be the C3v point group

           -------------------------------------------------
          | TOTAL ENERGY              -12.280397824416 Eh   |
          | TOTAL ENTHALPY            -12.237373617377 Eh   |
          | TOTAL FREE ENERGY         -12.273720208384 Eh   |
          | GRADIENT NORM               0.000344134241 Eh/α |
          | HOMO-LUMO GAP               2.714010575820 eV   |
           -------------------------------------------------

------------------------------------------------------------------------
 * finished run on 2026/03/12 at 12:48:04.054     
------------------------------------------------------------------------
 total:
 * wall-time:     0 d,  0 h,  0 min,  0.170 sec
 *  cpu-time:     0 d,  0 h,  0 min,  0.593 sec
 * ratio c/w:     3.497 speedup
 SCF:
 * wall-time:     0 d,  0 h,  0 min,  0.089 sec
 *  cpu-time:     0 d,  0 h,  0 min,  0.396 sec
 * ratio c/w:     4.454 speedup
 analytical hessian:
 * wall-time:     0 d,  0 h,  0 min,  0.063 sec
 *  cpu-time:     0 d,  0 h,  0 min,  0.121 sec
 * ratio c/w:     1.934 speedup


-------------------------   --------------------
FINAL SINGLE POINT ENERGY       -12.280397824420
-------------------------   --------------------


-------------
DIPOLE MOMENT
-------------
                                X             Y             Z
Total Dipole Moment    :     -0.00000      -0.00000       2.08600
                        -----------------------------------------
Magnitude (a.u.)       :      2.08600
Magnitude (Debye)      :      5.30219


-----------------------
VIBRATIONAL FREQUENCIES
-----------------------

Scaling factor for frequencies =  1.000000000  (already applied!)

     0:       0.00 cm**-1
     1:       0.00 cm**-1
     2:       0.00 cm**-1
     3:       0.00 cm**-1
     4:       0.00 cm**-1
     5:       0.00 cm**-1
     6:      88.97 cm**-1
     7:      89.01 cm**-1
     8:     112.52 cm**-1
     9:     483.43 cm**-1
    10:     914.19 cm**-1
    11:     914.20 cm**-1
    12:    1268.80 cm**-1
    13:    1436.19 cm**-1
    14:    1436.29 cm**-1
    15:    3101.97 cm**-1
    16:    3122.91 cm**-1
    17:    3122.98 cm**-1


------------
NORMAL MODES
------------

These modes are the Cartesian displacements weighted by the diagonal matrix
M(i,i)=1/sqrt(m[i]) where m[i] is the mass of the displaced atom
Thus, these vectors are normalized but *not* orthogonal

                  0          1          2          3          4          5    
      0       0.000000   0.000000   0.000000   0.000000   0.000000   0.000000
      1       0.000000   0.000000   0.000000   0.000000   0.000000   0.000000
      2       0.000000   0.000000   0.000000   0.000000   0.000000   0.000000
      3       0.000000   0.000000   0.000000   0.000000   0.000000   0.000000
      4       0.000000   0.000000   0.000000   0.000000   0.000000   0.000000
      5       0.000000   0.000000   0.000000   0.000000   0.000000   0.000000
      6       0.000000   0.000000   0.000000   0.000000   0.000000   0.000000
      7       0.000000   0.000000   0.000000   0.000000   0.000000   0.000000
      8       0.000000   0.000000   0.000000   0.000000   0.000000   0.000000
      9       0.000000   0.000000   0.000000   0.000000   0.000000   0.000000
     10       0.000000   0.000000   0.000000   0.000000   0.000000   0.000000
     11       0.000000   0.000000   0.000000   0.000000   0.000000   0.000000
     12       0.000000   0.000000   0.000000   0.000000   0.000000   0.000000
     13       0.000000   0.000000   0.000000   0.000000   0.000000   0.000000
     14       0.000000   0.000000   0.000000   0.000000   0.000000   0.000000
     15       0.000000   0.000000   0.000000   0.000000   0.000000   0.000000
     16       0.000000   0.000000   0.000000   0.000000   0.000000   0.000000
     17       0.000000   0.000000   0.000000   0.000000   0.000000   0.000000
                  6          7          8          9         10         11    
      0      -0.428243   0.024105  -0.000093  -0.000007  -0.086960  -0.054412
      1       0.024104   0.428252   0.000417   0.000023   0.054411  -0.086958
      2      -0.000002  -0.000004   0.245807  -0.642058   0.000001   0.000000
      3      -0.492279   0.027743  -0.000107  -0.000001   0.208092   0.130215
      4       0.028099   0.499210  -0.012919   0.049855  -0.083192   0.132959
      5       0.011976   0.212760   0.177930  -0.437830  -0.402125   0.642687
      6      -0.497659   0.025022  -0.011726   0.043138   0.131369   0.127508
      7       0.030748   0.493833   0.007167  -0.024918  -0.085916   0.209686
      8      -0.190280  -0.096047   0.177587  -0.437827   0.757677   0.026911
      9      -0.497322   0.030948   0.011510  -0.043140   0.172106   0.062376
     10       0.024865   0.494219   0.007166  -0.024919  -0.151002   0.168960
     11       0.178296  -0.116784   0.177661  -0.437848  -0.355513  -0.669614
     12       0.028361  -0.001596   0.000009   0.000001   0.004201   0.002629
     13      -0.001596  -0.028362  -0.000024  -0.000001  -0.002629   0.004201
     14      -0.000006  -0.000022   0.221625   0.072127  -0.000000   0.000000
     15       0.085853  -0.004832   0.000007   0.000000  -0.000122  -0.000076
     16      -0.004832  -0.085854  -0.000095  -0.000004   0.000076  -0.000122
     17       0.000023   0.000083  -0.891718  -0.003303   0.000000  -0.000000
                 12         13         14         15         16         17    
      0       0.000001   0.000916  -0.072369   0.000133   0.086502   0.032180
      1       0.000013   0.072364   0.000917   0.000180   0.032180  -0.086503
      2      -0.094130   0.000015   0.000000   0.037905  -0.000083   0.000053
      3      -0.000002  -0.009479   0.749085   0.000059   0.037729   0.014041
      4       0.179978   0.123245   0.001555   0.553677  -0.271000   0.725997
      5       0.545941   0.294463   0.003722  -0.156537   0.086189  -0.230985
      6       0.155782  -0.379028   0.090003   0.480599  -0.412629  -0.528536
      7      -0.090055  -0.535719   0.371033  -0.277438   0.274052   0.275533
      8       0.545848  -0.144098  -0.256916  -0.156942   0.157268   0.189514
      9      -0.155782   0.376622   0.099570  -0.482245  -0.656347   0.130861
     10      -0.090053  -0.526156  -0.384480  -0.278457  -0.386686   0.029727
     11       0.545868  -0.150566   0.253190  -0.157553  -0.242426   0.040816
     12      -0.000000   0.000007  -0.000568   0.000000   0.000022   0.000008
     13      -0.000000   0.000568   0.000007   0.000000   0.000008  -0.000022
     14      -0.003341  -0.000000   0.000000   0.000088  -0.000000   0.000000
     15       0.000000   0.000002  -0.000137  -0.000000  -0.000064  -0.000024
     16      -0.000001   0.000138   0.000002   0.000001  -0.000024   0.000064
     17      -0.002713   0.000001  -0.000000   0.000237  -0.000000   0.000000


The first frequency considered to be a vibration is 6
The total number of vibrations considered is 12


--------------------------
THERMOCHEMISTRY AT 298.15K
--------------------------

Temperature         ...   298.15 K
Pressure            ...     1.00 atm
Total Mass          ...   177.39 AMU
Quasi RRHO          ...     True
Cut-Off Frequency   ...     1.00 cm^-1

Throughout the following assumptions are being made:
  (1) The electronic state is orbitally nondegenerate
  (2) There are no thermally accessible electronically excited states
  (3) Hindered rotations indicated by low frequency modes are not
      treated as such but are treated as vibrations and this may
      cause some error
  (4) All equations used are the standard statistical mechanics
      equations for an ideal gas
  (5) All vibrations are strictly harmonic

freq.      88.97  E(vib)   ...       0.47 
freq.      89.01  E(vib)   ...       0.47 
freq.     112.52  E(vib)   ...       0.45 
freq.     483.43  E(vib)   ...       0.15 
freq.     914.19  E(vib)   ...       0.03 
freq.     914.20  E(vib)   ...       0.03 
freq.    1268.80  E(vib)   ...       0.01 
freq.    1436.19  E(vib)   ...       0.00 
freq.    1436.29  E(vib)   ...       0.00 
freq.    3101.97  E(vib)   ...       0.00 
freq.    3122.91  E(vib)   ...       0.00 
freq.    3122.98  E(vib)   ...       0.00 

------------
INNER ENERGY
------------

The inner energy is: U= E(el) + E(ZPE) + E(vib) + E(rot) + E(trans)
    E(el)   - is the total energy from the electronic structure calculation
              = E(kin-el) + E(nuc-el) + E(el-el) + E(nuc-nuc)
    E(ZPE)  - the the zero temperature vibrational energy from the frequency calculation
    E(vib)  - the the finite temperature correction to E(ZPE) due to population
              of excited vibrational states
    E(rot)  - is the rotational thermal energy
    E(trans)- is the translational thermal energy

Summary of contributions to the inner energy U:
Electronic energy                ...    -12.28039782 Eh
Zero point energy                ...      0.03665905 Eh      23.00 kcal/mol
Thermal vibrational correction   ...      0.00258737 Eh       1.62 kcal/mol
Thermal rotational correction    ...      0.00141627 Eh       0.89 kcal/mol
Thermal translational correction ...      0.00141627 Eh       0.89 kcal/mol
-----------------------------------------------------------------------
Total thermal energy                    -12.23831886 Eh


Summary of corrections to the electronic energy:
(perhaps to be used in another calculation)
Total thermal correction                  0.00541991 Eh       3.40 kcal/mol
Non-thermal (ZPE) correction              0.03665905 Eh      23.00 kcal/mol
-----------------------------------------------------------------------
Total correction                          0.04207896 Eh      26.40 kcal/mol


--------
ENTHALPY
--------

The enthalpy is H = U + kB*T
                kB is Boltzmann's constant
Total thermal energy              ...    -12.23831886 Eh 
Thermal Enthalpy correction       ...      0.00094421 Eh       0.59 kcal/mol
-----------------------------------------------------------------------
Total Enthalpy                    ...    -12.23737465 Eh


WARNING (ORCA/SYM): The number of Z matrix atoms does not agree with
the number of centers in the basis set. The point group will therefore
be determined without considering basis set information.


Note: Rotational entropy computed according to Herzberg 
Infrared and Raman Spectra, Chapter V,1, Van Nostrand Reinhold, 1945 
Point Group:  C3v, Symmetry Number:   3  
Rotational constants in cm-1:     5.298457     0.023623     0.023623 

Vibrational entropy computed according to the QRRHO of S. Grimme
Chem.Eur.J. 2012 18 9955 using a reference frequency of 100.0 cm-1


-------
ENTROPY
-------

The entropy contributions are T*S = T*(S(el)+S(vib)+S(rot)+S(trans))
     S(el)   - electronic entropy
     S(vib)  - vibrational entropy
     S(rot)  - rotational entropy
     S(trans)- translational entropy
The entropies will be listed as multiplied by the temperature to get
units of energy

Electronic entropy                ...      0.00000000 Eh      0.00 kcal/mol
Vibrational entropy               ...      0.00501533 Eh      3.15 kcal/mol
Rotational entropy                ...      0.01122281 Eh      7.04 kcal/mol
Translational entropy             ...      0.01968301 Eh     12.35 kcal/mol
-----------------------------------------------------------------------
Final entropy term                ...      0.03592114 Eh     22.54 kcal/mol

In case the symmetry of your molecule has not been determined correctly
or in case you have a reason to use a different symmetry number we print 
out the resulting rotational entropy values for sn=1,12:

 non-linear molecules -----------------------------------
|  sn= 1 | S(rot)=       0.01226010 Eh      7.69 kcal/mol|
|  sn= 2 | S(rot)=       0.01160564 Eh      7.28 kcal/mol|
|  sn= 3 | S(rot)=       0.01122281 Eh      7.04 kcal/mol|
|  sn= 4 | S(rot)=       0.01095119 Eh      6.87 kcal/mol|
|  sn= 5 | S(rot)=       0.01074050 Eh      6.74 kcal/mol|
|  sn= 6 | S(rot)=       0.01056835 Eh      6.63 kcal/mol|
|  sn= 7 | S(rot)=       0.01042281 Eh      6.54 kcal/mol|
|  sn= 8 | S(rot)=       0.01029673 Eh      6.46 kcal/mol|
|  sn= 9 | S(rot)=       0.01018552 Eh      6.39 kcal/mol|
|  sn=10 | S(rot)=       0.01008604 Eh      6.33 kcal/mol|
|  sn=11 | S(rot)=       0.00999605 Eh      6.27 kcal/mol|
|  sn=12 | S(rot)=       0.00991390 Eh      6.22 kcal/mol|
 linear molecules ---------------------------------------
|  Dinfh | S(rot)=       0.00886227 Eh      5.56 kcal/mol|
|  Cinfv | S(rot)=       0.00951672 Eh      5.97 kcal/mol|
 --------------------------------------------------------


-------------------
GIBBS FREE ENERGY
-------------------

The Gibbs free energy is G = H - T*S

Total enthalpy                    ...    -12.23737465 Eh 
Total entropy correction          ...     -0.03592114 Eh    -22.54 kcal/mol
-----------------------------------------------------------------------
Final Gibbs free energy         ...    -12.27329580 Eh

For completeness - the Gibbs free energy minus the electronic energy
G-E(el)                           ...      0.00710203 Eh      4.46 kcal/mol


--------------------------------
SUGGESTED CITATIONS FOR THIS RUN
--------------------------------

Below you find a list of papers that are relevant to this ORCA run
We neither can nor want to force you to cite these papers, but we appreciate if you do
You receive ORCA, which is the product of decades of hard work by many enthusiastic individuals, for free
The only thing we kindly ask in return is that you cite our papers,
We deeply appreciate it, if you show your appreciation for ORCA by not just citing the generic ORCA reference.

Please note that relegating all ORCA citations to the supporting information does *not* help us.
SI sections are not indexed - citations you put there will not count into any citation statistics
But we need these citations in order to attract the funding resources that allow us to do what we are doing

Therefore, if you are a happy ORCA user, please consider citing a few of the papers listed below in the main body of your paper

In addition to the list printed below, the program has created the file product_optfreq.bibtex that contains the list in bibtex format
You can import this file easily into all common literature databanks and citation aid programs


List of essential papers. We consider these as the minimum necessary citations

  1. Bannwarth, C.; Ehlert, S.; Grimme, S.
     GFN2-xTB—An Accurate and Broadly Parametrized Self-Consistent Tight-Binding Quantum Chemical Method with Multipole Electrostatics and Density-Dependent Dispersion Contributions
     J. Chem. Theory Comput. 2019 15(3), 1652-1671
     doi.org/10.1021/acs.jctc.8b01176
  2. Neese, F.
     Software update: the ORCA program system, version 6.0
     WIRES Comput. Molec. Sci. 2025 15(1), e70019
     doi.org/10.1002/wcms.7019

List of papers to cite with high priority. The work reported in these papers was absolutely
necessary for this run to complete.
Our perspective: the developers of density functionals and basis sets usually get cited in chemistry papers
Good! But without the algorithms to do something with them, the functionals or basis sets would not do anything.
Hence, in our opinion, the algorithm design and method developments papers are equally worthy of getting cited

  1. Bykov, D.; Petrenko, T.; Izsak, R.; Kossmann, S.; Becker, U.; Valeev, E.; Neese, F.
     Efficient implementation of the analytic second derivatives of Hartree-Fock and hybrid DFT energies: a detailed analysis of different approximations
     Molec. Phys. 2015 113 , 1961-1977
     doi.org/10.1080/00268976.2015.1025114
  2. Bannwarth, C.; Caldeweyher, E.; Ehlert, S.; Hansen, A.; Pracht, P.; Seibert, J.; Spicher, S.; Grimme, S.
     Extended tight-binding quantum chemistry methods
     WIRES Comput. Molec. Sci. 2020 11(2), e1493
     doi.org/10.1002/wcms.1493

List of suggested additional citations. These are papers that are important in the 'surrounding' of 
of this run, or papers that preceded the highly important papers. If you like your results we are grateful for a citation.

  1. Neese, F.
     The ORCA program system
     WIRES Comput. Molec. Sci. 2012 2(1), 73-78
     doi.org/10.1002/wcms.81
  2. Neese, F.
     Software update: the ORCA program system, version 4.0
     WIRES Comput. Molec. Sci. 2018 8(1), 1-6
     doi.org/10.1002/wcms.1327
  3. Neese, F.; Wennmohs, F.; Becker, U.; Riplinger, C.
     The ORCA quantum chemistry program package
     J. Chem. Phys. 2020 152(22), 224108
     doi.org/10.1063/5.0004608
  4. Neese, F.
     Software update: The ORCA program system—Version 5.0
     WIRES Comput. Molec. Sci. 2022 12(1), e1606
     doi.org/10.1002/wcms.1606

List of optional additional citations

  1. Neese, F.
     Approximate second-order SCF convergence for spin unrestricted wavefunctions
     Chem. Phys. Lett. 2000 325(1-3), 93-98
     doi.org/10.1016/s0009-2614(00)00662-x

Timings for individual modules:

Sum of individual times          ...        0.770 sec (=   0.013 min)
Geometry relaxation              ...        0.011 sec (=   0.000 min)   1.5 %
XTB module                       ...        0.759 sec (=   0.013 min)  98.5 %
                             ****ORCA TERMINATED NORMALLY****
TOTAL RUN TIME: 0 days 0 hours 0 minutes 1 seconds 248 msec
