
                                 *****************
                                 * O   R   C   A *
                                 *****************

                                            #,                                       
                                            ###                                      
                                            ####                                     
                                            #####                                    
                                            ######                                   
                                           ########,                                 
                                     ,,################,,,,,                         
                               ,,#################################,,                 
                          ,,##########################################,,             
                       ,#########################################, ''#####,          
                    ,#############################################,,   '####,        
                  ,##################################################,,,,####,       
                ,###########''''           ''''###############################       
              ,#####''   ,,,,##########,,,,          '''####'''          '####       
            ,##' ,,,,###########################,,,                        '##       
           ' ,,###''''                  '''############,,,                           
         ,,##''                                '''############,,,,        ,,,,,,###''
      ,#''                                            '''#######################'''  
     '                                                          ''''####''''         
             ,#######,   #######,   ,#######,      ##                                
            ,#'     '#,  ##    ##  ,#'     '#,    #''#        ,####,    ,#,          
            ##       ##  ##   ,#'  ##            #'  '#       #'       ,# #          
            ##       ##  #######   ##           ,######,      #####,      #          
            '#,     ,#'  ##    ##  '#,     ,#' ,#      #,     #,   #      #          
             '#######'   ##     ##  '#######'  #'      '#     '####' #    #          



                #########################################################
                #                        -***-                          #
                #          Department of theory and spectroscopy        #
                #                                                       #
                #                      Frank Neese                      #
                #                                                       #
                #     Directorship, Architecture, Infrastructure        #
                #                    SHARK, DRIVERS                     #
                #        Core code/Algorithms in most modules           #
                #                                                       #
                #        Max Planck Institute fuer Kohlenforschung      #
                #                Kaiser Wilhelm Platz 1                 #
                #                 D-45470 Muelheim/Ruhr                 #
                #                      Germany                          #
                #                                                       #
                #                  All rights reserved                  #
                #                        -***-                          #
                #########################################################


                         Program Version 6.1.0  -  RELEASE   -
                                (GIT: $679e74b$)
                          ($2025-06-10 18:02:51 +0200$)


 With contributions from (in alphabetic order):
[Max-Planck-Institut fuer Kohlenforschung]                               
  Daniel Aravena         : Magnetic Suceptibility                        
  Michael Atanasov       : Ab Initio Ligand Field Theory (pilot matlab implementation)
  Alexander A. Auer      : GIAO ZORA, VPT2 properties, NMR spectrum      
  Ute Becker             : All parallelization in ORCA, NUMFREQ, NUMCALC 
  Giovanni Bistoni       : ED, misc. LED, open-shell LED, HFLD           
  Dmytro Bykov           : pre 5.0 version of the SCF Hessian            
  Marcos Casanova-Páez   : Triplet and SCS-CIS(D). UHF-(DLPNO)-IP/EA/STEOM-CCSD. UHF-CVS-IP/STEOM-CCSD   
  Vijay G. Chilkuri      : MRCI spin determinant printing, contributions to CSF-ICE 
  Pauline Colinet        : FMM embedding                                 
  Dipayan Datta          : RHF DLPNO-CCSD density                        
  Achintya Kumar Dutta   : EOM-CC, STEOM-CC                              
  Nicolas Foglia         : Exact transition moments, OPA infrastructure, MCD improvements    
  Dmitry Ganyushin       : Spin-Orbit,Spin-Spin,Magnetic field MRCI      
  Miquel Garcia-Rates    : C-PCM and meta-GGA Hessian, CCSD/C-PCM, Gaussian charge scheme 
  Tiago L. C. Gouveia    : GS-ROHF, GS-ROCIS                             
  Yang Guo               : DLPNO-NEVPT2, F12-NEVPT2, CIM, IAO-localization        
  Andreas Hansen         : Spin unrestricted coupled pair/coupled cluster methods 
  Ingolf Harden          : AUTO-CI MPn and infrastructure                
  Benjamin Helmich-Paris : MC-RPA, TRAH-(SCF,CASSCF), AVAS, COSX integrals, SCF dyn. polar., MC-PDFT, srDFT 
  Lee Huntington         : MR-EOM, pCC                                   
  Robert Izsak           : Overlap fitted RIJCOSX, COSX-SCS-MP3, EOM     
  Riya Kayal             : Wick's Theorem for AUTO-CI, AUTO-CI UHF-CCSDT 
  Emily Kempfer          : AUTO-CI RHF CISDT and CCSDT, approximate NEVPT4
  Christian Kollmar      : KDIIS, OOCD, Brueckner-CCSD(T), CCSD density, CASPT2, CASPT2-K, improved NEVPT2 
  Axel Koslowski         : Symmetry handling                             
  Simone Kossmann        : meta-GGA functionals, TD-DFT gradient, OOMP2, (MP2 Hessian; deprecated post 5.0) 
  Lucas Lang             : DCDCAS, Hyperfine gauge corrections, ICE-SOC+SSC
  Marvin Lechner         : AUTO-CI (C++ implementation), FIC-MRCC        
  Spencer Leger          : CASSCF response                               
  Dagmar Lenk            : GEPOL surface, SMD, ORCA-2-JSON               
  Dimitrios Liakos       : Extrapolation schemes; Compound Job, Property file
  Dimitrios Manganas     : Further ROCIS development; embedding schemes. LFT, Crystal Embedding 
  Dimitrios Pantazis     : SARC Basis sets                               
  Anastasios Papadopoulos: AUTO-CI, single reference methods and gradients 
  Taras Petrenko         : pre 6.0 DFT Hessian and TD-DFT gradient,  ECA, NRVS 
  Petra Pikulova         : Analytic Raman intensities                    
  Peter Pinski           : DLPNO-MP2, DLPNO-MP2 Gradient                 
  Shashank Vittal Rao    : ES-AILFT, MagRelax                            
  Christoph Reimann      : Effective Core Potentials                     
  Marius Retegan         : Local ZFS, SOC                                
  Christoph Riplinger    : Optimizer, TS searches, QM/MM, DLPNO-CCSD(T), (RO)-DLPNO pert. Triples 
  Michael Roemelt        : Original ROCIS implementation, recursive CI coupling coefficients
  Masaaki Saitow         : Open-shell DLPNO-CCSD energy and density      
  Barbara Sandhoefer     : DKH picture change effects                    
  Yorick L. A. Schmerwitz: GMF and freeze-and-release deltaSCF, NEB S-IDPP initial path                    
  Kantharuban Sivalingam : CASSCF convergence/infrastructure, NEVPT2, NEVPT3, NEVPT4(SD), FIC-MRCI and CEPA variants
  Bernardo de Souza      : ESD, SOC TD-DFT                               
  Georgi L. Stoychev     : AutoAux, RI-MP2 NMR, DLPNO-MP2 response, X2C  
  Van Anh Tran           : RI-MP2 g-tensors                              
  Willem Van den Heuvel  : Paramagnetic NMR                              
  Zikuan Wang            : NOTCH, Electric field optimization            
  Frank Wennmohs         : Technical directorship and infrastructure     
  Hang Xu                : AUTO-CI-Response properties                   
                                                                         
[FACCTs GmbH]                                                            
  Markus Bursch, Nicolas Foglia, Miquel Garcia-Rates, Ingolf Harden, Hagen Neugebauer, Anastasios Papadopoulos, 
  Christoph Riplinger, Bernardo de Souza, Georgi L. Stoychev                                                    
                                                                 
  APM, various basis sets, CI-OPT, improved COSX, DLPNO-Multilevel,           
  DOCKER, DRACO, updates on ESD, Fragmentator, GOAT, IRC, LR-CPCM, L-BFGS, MBIS, meta-GGA TD-DFT gradient, ML-optimized integration grids, 
  MM, NACMEs, nearIR, NEB, NEB-TS, NL-DFT gradient (VV10), 2- and 3-layer-ONIOM, interface openCOSMO-RS, QMMM,   
  Crystal-QMMM, RESP, rigid body optimization, SF, symmetry and pop. for TD-DFT, various functionals, SOLVATOR                                   
                                                                         
[Other institutions]                                                     
  V. Asgeirsson          : NEB                                           
  Christoph Bannwarth    : sTDA-DFT, sTD-DFT, PBEh-3c, B97-3c, D3        
  Giovanni Bistoni       : ETS/NOCV, ADLD/ADEX, COVALED                  
  Martin Brehm           : Molecular dynamics                            
  Ronald Cardenas        : ETS/NOCV                                      
  Martina Colucci        : COVALED                                       
  Sebastian Ehlert       : rSCAN, r2SCAN, r2SCAN-3c, D4, dhf basis sets  
  Marvin Friede          : D4 for Fr, Ra, Ac-Lr                          
  Lars Goerigk           : TD-DFT with DH, B97 family of functionals     
  Stefan Grimme          : VdW corrections, initial TS optimization, DFT functionals, gCP, sTDA/sTD-DF 
  Waldemar Hujo          : DFT-NL                                        
  H. Jonsson             : NEB                                           
  Holger Kruse           : gCP                                           
  Marcel Mueller         : wB97X-3c, vDZP basis set                      
  Hagen Neugebauer       : wr2SCAN, Native XTB                           
  Gianluca Regni         : ADLD/ADEX                                     
  Tobias Risthaus        : pre 6.0 range-separated hybrid DFT and stability analysis
  Lukas Wittmann         : regularized MP2, r2SCAN double-hybrids, wr2SCAN        
                                                                         
We gratefully acknowledge several colleagues who have allowed us to      
interface, adapt or use parts of their codes:                            
  Ed Valeev, F. Pavosevic, A. Kumar             : LibInt (2-el integral package), F12 methods 
  Garnet Chan, S. Sharma, J. Yang, R. Olivares  : DMRG                   
  Ulf Ekstrom                                   : XCFun DFT Library      
  Mihaly Kallay                                 : mrcc  (arbitrary order and MRCC methods)
  Frank Weinhold                                : gennbo (NPA and NBO analysis)           
  Simon Mueller                                 : openCOSMO-RS                            
  Christopher J. Cramer and Donald G. Truhlar   : smd solvation model                     
  S Lehtola, MJT Oliveira, MAL Marques          : LibXC Library                           
  Liviu Ungur et al                             : ANISO software                          


 Your calculation uses the libint2 library for the computation of 2-el integrals
 For citations please refer to: http://libint.valeyev.net

 Your ORCA version has been built with support for libXC version: 7.0.0
 For citations please refer to: https://libxc.gitlab.io

 This ORCA versions uses:
   CBLAS   interface :  Fast vector & matrix operations
   LAPACKE interface :  Fast linear algebra routines
   SCALAPACK package :  Parallel linear algebra routines
   Shared memory     :  Shared parallel matrices
   BLAS/LAPACK       :  OpenBLAS 0.3.29  USE64BITINT DYNAMIC_ARCH NO_AFFINITY SkylakeX SINGLE_THREADED
        Core in use  :  SkylakeX
   Copyright (c) 2011-2014, The OpenBLAS Project


  ***********************************
  * Starting time: Mon Mar 16 14:19:15 2026
  * Host name:     midway3-login4.rcc.local
  * Process ID:    123565
  * Working dir.:  /home/rzhu16/evans-polanyi-principle-validation/runs/sn2_i_cl/geo_opt_reactant_product
  ***********************************

Your calculation utilizes the semiempirical GFN2-xTB method
Please cite in your paper:
Bannwarth, C.; Ehlert S.; Grimme, S. J. Chem. Theory Comput. 2019, 15, 1652.
   

================================================================================

cite the ECPs for I  [Def2-ECP] as follows:
Ce-Yb(ecp-28): M. Dolg, H. Stoll, H.Preuss, J. Chem. Phys., 1989, 90, 1730-1734.
Y-Cd(ecp-28), Hf-Hg(ecp-46): D. Andrae,U. Haeussermann, M. Dolg, H. Stoll, H. Preuss, Theor. Chim. Acta, 1990, 77, 123-141.
In-Sb(ecp-28), Tl-Bi(ecp-46): B. Metz, H. Stoll, M. Dolg, J. Chem. Phys., 2000, 113, 2563-2569.
Te-Xe(ecp-28), Po-Rn(ecp-46): K. A. Peterson, D. Figgen, E. Goll, H. Stoll, M. Dolg, J. Chem. Phys., 2003, 119, 11113-11123.
Rb(ecp-28), Cs(ecp-46): T. Leininger, A. Nicklass, W. Kuechle, H. Stoll, M. Dolg, A. Bergner, Chem. Phys. Lett., 1996, 255, 274-280.
Sr(ecp-28), Ba(ecp-46): M. Kaupp, P. V. Schleyer, H. Stoll and H. Preuss, J. Chem. Phys., 1991, 94, 1360-1366.
La(ecp-46): M. Dolg, H. Stoll, A. Savin, H. Preuss, Theor. Chim. Acta, 1989, 75, 173-194.
Lu(ecp-28): X. Cao, M. Dolg, J. Chem. Phys., 2001, 115, 7348-7355.

ECP parameters for I  [Def2-ECP] have been obtained from:
TURBOMOLE (7.0.2)

================================================================================
                                        WARNINGS
                       Please study these warnings very carefully!
================================================================================


WARNING: Analytical Hessian for XTB is limited in the analysis of the data.
       : If you want to obtain extensive IR and deltaG analysis, please use ! XTB NumFreq. 


WARNING: Geometry Optimization
  ===> : Switching off AutoStart
         For restart on a previous wavefunction, please use MOREAD

WARNING: Found dipole moment calculation with XTB calculation
  ===> : Switching off dipole moment calculation


WARNING: Found frequency calculation in combination with XTB calculation
  ===> : Need to redirect dipole moment calculation to properties.out


================================================================================
                                       INPUT FILE
================================================================================
NAME = reactant_optfreq.inp
|  1> ! XTB2 Opt Freq PAL8
|  2> 
|  3> %geom
|  4>   MaxIter 500
|  5> end
|  6> 
|  7> * xyz -1 1
|  8>   C      -0.000010     -0.000036     -0.432890
|  9>   H      -0.000000      1.028169     -0.093385
| 10>   H       0.890351     -0.514012     -0.093390
| 11>   H      -0.890345     -0.514005     -0.093391
| 12>   I       0.000002      0.000011      2.796040
| 13>   Cl      0.000001      0.000006     -2.217577
| 14> *
| 15> 
| 16>                          ****END OF INPUT****
================================================================================

                       *****************************
                       * Geometry Optimization Run *
                       *****************************

Geometry optimization settings:
Update method            Update   .... BFGS
Choice of coordinates    CoordSys .... (2022) Redundant Internals
Initial Hessian          InHess   .... Almloef's Model
Max. no of cycles        MaxIter  .... 500

Convergence Tolerances:
Energy Change            TolE     ....  5.0000e-06 Eh
Max. Gradient            TolMAXG  ....  3.0000e-04 Eh/bohr
RMS Gradient             TolRMSG  ....  1.0000e-04 Eh/bohr
Max. Displacement        TolMAXD  ....  4.0000e-03 bohr
RMS Displacement         TolRMSD  ....  2.0000e-03 bohr
Strict Convergence                .... False

------------------------------------------------------------------------------
                        ORCA OPTIMIZATION COORDINATE SETUP
------------------------------------------------------------------------------

The optimization will be done in redundant internal coordinates (2022)
Making redundant internal coordinates   ...  (2022 redundants) done
Evaluating the initial hessian          ...  (Almloef) done
Evaluating the coordinates              ...  done
Calculating the B-matrix                .... done
Calculating the G-matrix                .... done
The number of degrees of freedom        ....   17

    -----------------------------------------------------------------
                    Redundant Internal Coordinates


    -----------------------------------------------------------------
         Definition                    Initial Value    Approx d2E/dq
    -----------------------------------------------------------------
      1. B(H   1,C   0)                  1.0828         0.369743   
      2. B(H   2,C   0)                  1.0827         0.369928   
      3. B(H   3,C   0)                  1.0826         0.369962   
      4. B(I   4,H   2)                  3.0669         0.010000   
      5. B(I   4,H   3)                  3.0669         0.010000   
      6. B(I   4,H   1)                  3.0669         0.010000   
      7. B(I   4,C   0)                  3.2289         0.010000   
      8. B(Cl  5,C   0)                  1.7847         0.328879   
      9. A(H   1,C   0,H   3)          110.6392         0.293296   
     10. A(H   2,C   0,H   3)          110.6461         0.293319   
     11. A(H   1,C   0,Cl  5)          108.2715         0.332268   
     12. A(H   2,C   0,Cl  5)          108.2753         0.332296   
     13. A(H   3,C   0,Cl  5)          108.2763         0.332301   
     14. A(H   1,C   0,I   4)           71.7264         0.171288   
     15. A(H   2,C   0,I   4)           71.7253         0.171298   
     16. A(H   3,C   0,I   4)           71.7253         0.171300   
     17. A(H   1,C   0,H   2)          110.6381         0.293292   
    -----------------------------------------------------------------

Number of atoms                         .... 6
Number of degrees of freedom            .... 17


         *************************************************************
         *                GEOMETRY OPTIMIZATION CYCLE   1            *
         *************************************************************
---------------------------------
CARTESIAN COORDINATES (ANGSTROEM)
---------------------------------
  C    -0.000010   -0.000036   -0.432890
  H    -0.000000    1.028169   -0.093385
  H     0.890351   -0.514012   -0.093390
  H    -0.890345   -0.514005   -0.093391
  I     0.000002    0.000011    2.796040
  Cl    0.000001    0.000006   -2.217577

----------------------------
CARTESIAN COORDINATES (A.U.)
----------------------------
  NO LB    ZA    FRAG    MASS        X           Y           Z
   0 C   6.0000    0    12.011   -0.000019   -0.000068   -0.818044
   1 H   1.0000    0     1.008   -0.000000    1.942958   -0.176472
   2 H   1.0000    0     1.008    1.682520   -0.971342   -0.176482
   3 H   1.0000    0     1.008   -1.682508   -0.971329   -0.176483
   4 I  53.0000    0   126.900    0.000004    0.000021    5.283750
   5 Cl 17.0000    0    35.453    0.000002    0.000011   -4.190613

      -----------------------------------------------------------      
     |                   =====================                   |     
     |                           x T B                           |     
     |                   =====================                   |     
     |                         S. Grimme                         |     
     |          Mulliken Center for Theoretical Chemistry        |     
     |                    University of Bonn                     |     
      -----------------------------------------------------------      

   * xtb version 6.7.1 (edcfbbe) compiled by 'albert@albert-system' on 2024-07-22

   xtb is free software: you can redistribute it and/or modify it under
   the terms of the GNU Lesser General Public License as published by
   the Free Software Foundation, either version 3 of the License, or
   (at your option) any later version.
   
   xtb is distributed in the hope that it will be useful,
   but WITHOUT ANY WARRANTY; without even the implied warranty of
   MERCHANTABILITY or FITNESS FOR A PARTICULAR PURPOSE.  See the
   GNU Lesser General Public License for more details.
   
   Cite this work as:
   * C. Bannwarth, E. Caldeweyher, S. Ehlert, A. Hansen, P. Pracht,
     J. Seibert, S. Spicher, S. Grimme, WIREs Comput. Mol. Sci., 2020, 11,
     e01493. DOI: 10.1002/wcms.1493
   
   for GFN2-xTB:
   * C. Bannwarth, S. Ehlert and S. Grimme., J. Chem. Theory Comput., 2019,
     15, 1652-1671. DOI: 10.1021/acs.jctc.8b01176
   for GFN1-xTB:
   * S. Grimme, C. Bannwarth, P. Shushkov, J. Chem. Theory Comput., 2017,
     13, 1989-2009. DOI: 10.1021/acs.jctc.7b00118
   for GFN0-xTB:
   * P. Pracht, E. Caldeweyher, S. Ehlert, S. Grimme, ChemRxiv, 2019, preprint.
     DOI: 10.26434/chemrxiv.8326202.v1
   for GFN-FF:
   * S. Spicher and S. Grimme, Angew. Chem. Int. Ed., 2020, 59, 15665-15673.
     DOI: 10.1002/anie.202004239
   
   for ALPB and GBSA implicit solvation:
   * S. Ehlert, M. Stahn, S. Spicher, S. Grimme, J. Chem. Theory Comput.,
     2021, 17, 4250-4261. DOI: 10.1021/acs.jctc.1c00471
   
   for ddCOSMO and CPCM-X implicit solvation:
   * M. Stahn, S. Ehlert, S. Grimme, J. Phys. Chem. A,
     2023, XX, XXXX-XXXX. DOI: 10.1021/acs.jpca.3c04382
   
   for DFT-D4:
   * E. Caldeweyher, C. Bannwarth and S. Grimme, J. Chem. Phys., 2017,
     147, 034112. DOI: 10.1063/1.4993215
   * E. Caldeweyher, S. Ehlert, A. Hansen, H. Neugebauer, S. Spicher,
     C. Bannwarth and S. Grimme, J. Chem. Phys., 2019, 150, 154122.
     DOI: 10.1063/1.5090222
   * E. Caldeweyher, J.-M. Mewes, S. Ehlert and S. Grimme, Phys. Chem. Chem. Phys.
     2020, 22, 8499-8512. DOI: 10.1039/D0CP00502A
   
   for sTDA-xTB:
   * S. Grimme and C. Bannwarth, J. Chem. Phys., 2016, 145, 054103.
     DOI: 10.1063/1.4959605
   
   in the mass-spec context:
   * V. Asgeirsson, C. Bauer and S. Grimme, Chem. Sci., 2017, 8, 4879.
     DOI: 10.1039/c7sc00601b
   * J. Koopman and S. Grimme, ACS Omega 2019, 4, 12, 15120-15133.
     DOI: 10.1021/acsomega.9b02011
   
   for metadynamics refer to:
   * S. Grimme, J. Chem. Theory Comput., 2019, 155, 2847-2862
     DOI: 10.1021/acs.jctc.9b00143
   
   for SPH calculations refer to:
   * S. Spicher and S. Grimme, J. Chem. Theory Comput., 2021, 17, 1701-1714
     DOI: 10.1021/acs.jctc.0c01306
   
   for ONIOM refer to:
   * C. Plett, A. Katbashev, S. Ehlert, S. Grimme, M. Bursch,
     Phys. Chem. Chem. Phys., 2023, 25, 17860-17868. DOI: 10.1039/D3CP02178E
   
   for DIPRO refer to:
   * J. Kohn, N. Gildemeister, S. Grimme, D. Fazzi, A. Hansen,
     J. Chem. Phys., 2023, just accepted.
   
   for PTB refer to:
   * S. Grimme, M. Mueller, A. Hansen, J. Chem. Phys., 2023, 158, 124111.
     DOI: 10.1063/5.0137838
   
   with help from (in alphabetical order)
   P. Atkinson, C. Bannwarth, F. Bohle, G. Brandenburg, E. Caldeweyher
   M. Checinski, S. Dohm, S. Ehlert, S. Ehrlich, I. Gerasimov, C. Hölzer
   A. Katbashev, J. Kohn, J. Koopman, C. Lavigne, S. Lehtola, F. März, M. Müller,
   F. Musil, H. Neugebauer, J. Pisarek, C. Plett, P. Pracht, F. Pultar,
   J. Seibert, P. Shushkov, S. Spicher, M. Stahn, M. Steiner, T. Strunk,
   J. Stückrath, T. Rose, and J. Unsleber
   
 * started run on 2026/03/16 at 14:19:15.615     
   ID    Z sym.   atoms
    1    6 C      1
    2    1 H      2-4
    3   53 I      5
    4   17 Cl     6

           -------------------------------------------------
          |                Calculation Setup                |
           -------------------------------------------------

          program call               : /software/orca-6.1.0-el8-x86_64/bin/otool_xtb reactant_optfreq_XTB.xyz --grad -c -1 -u 0 -P 8 --namespace reactant_optfreq --input reactant_optfreq_XTB.input.tmp --acc 0.200000
          hostname                   : midway3-login4.rcc.local
          calculation namespace      : reactant_optfreq
          coordinate file            : reactant_optfreq_XTB.xyz
          omp threads                :                     8


molecular fragmentation (1/2 indicates fragments):
111121
# atoms in fragment 1/2:     5     1
 fragment masses (1/2) :       50.49      126.90
CMA distance (Bohr)    :   8.432
constraining FC (au)   :  0.0500

           -------------------------------------------------
          |                 G F N 2 - x T B                 |
           -------------------------------------------------

        Reference                      10.1021/acs.jctc.8b01176
      * Hamiltonian:
        H0-scaling (s, p, d)           1.850000    2.230000    2.230000
        zeta-weighting                 0.500000
      * Dispersion:
        s8                             2.700000
        a1                             0.520000
        a2                             5.000000
        s9                             5.000000
      * Repulsion:
        kExp                           1.500000    1.000000
        rExp                           1.000000
      * Coulomb:
        alpha                          2.000000
        third order                    shell-resolved
        anisotropic                    true
        a3                             3.000000
        a5                             4.000000
        cn-shift                       1.200000
        cn-exp                         4.000000
        max-rad                        5.000000


          ...................................................
          :                      SETUP                      :
          :.................................................:
          :  # basis functions                  27          :
          :  # atomic orbitals                  25          :
          :  # shells                           11          :
          :  # electrons                        22          :
          :  max. iterations                   250          :
          :  Hamiltonian                  GFN2-xTB          :
          :  restarted?                      false          :
          :  GBSA solvation                  false          :
          :  PC potential                    false          :
          :  electronic temp.          300.0000000     K    :
          :  accuracy                    0.2000000          :
          :  -> integral cutoff          0.3198970E+02      :
          :  -> integral neglect         0.2000000E-08      :
          :  -> SCF convergence          0.2000000E-06 Eh   :
          :  -> wf. convergence          0.2000000E-04 e    :
          :  Broyden damping             0.4000000          :
          :  net charge                         -1          :
          :  unpaired electrons                  0          :
          ...................................................

 iter      E             dE          RMSdq      gap      omega  full diag
   1    -12.3170584 -0.123171E+02  0.592E+00    3.31       0.0  T
   2    -12.3419716 -0.249133E-01  0.336E+00    2.95       1.0  T
   3    -12.3427126 -0.740956E-03  0.125E+00    3.42       1.0  T
   4    -12.3431699 -0.457340E-03  0.364E-01    3.50       1.0  T
   5    -12.3433103 -0.140362E-03  0.191E-01    3.45       1.0  T
   6    -12.3433784 -0.680690E-04  0.126E-01    3.36       1.0  T
   7    -12.3434194 -0.410763E-04  0.624E-02    3.36       1.0  T
   8    -12.3434275 -0.808377E-05  0.187E-02    3.35       2.2  T
   9    -12.3434279 -0.367375E-06  0.101E-02    3.36       4.0  T
  10    -12.3434281 -0.207850E-06  0.711E-04    3.35      57.5  T
  11    -12.3434281 -0.305034E-09  0.130E-04    3.35     313.8  T
  12    -12.3434281 -0.335678E-10  0.212E-05    3.35    1924.3  T

   *** convergence criteria satisfied after 12 iterations ***

         #    Occupation            Energy/Eh            Energy/eV
      -------------------------------------------------------------
         1        2.0000           -0.9406098             -25.5953
       ...           ...                  ...                  ...
         5        2.0000           -0.3820025             -10.3948
         6        2.0000           -0.3767873             -10.2529
         7        2.0000           -0.2993396              -8.1454
         8        2.0000           -0.2993371              -8.1454
         9        2.0000           -0.1658892              -4.5141
        10        2.0000           -0.1619451              -4.4067
        11        2.0000           -0.1619450              -4.4067 (HOMO)
        12                         -0.0386988              -1.0530 (LUMO)
        13                          0.1397467               3.8027
        14                          0.1397521               3.8028
        15                          0.1438951               3.9156
        16                          0.1438952               3.9156
       ...                                ...                  ...
        25                          0.4351611              11.8413
      -------------------------------------------------------------
                  HL-Gap            0.1232463 Eh            3.3537 eV
             Fermi-level           -0.1003219 Eh           -2.7299 eV

 SCC (total)                   0 d,  0 h,  0 min,  0.024 sec
 SCC setup                      ...        0 min,  0.000 sec (  1.120%)
 Dispersion                     ...        0 min,  0.000 sec (  0.242%)
 classical contributions        ...        0 min,  0.000 sec (  0.152%)
 integral evaluation            ...        0 min,  0.021 sec ( 86.353%)
 iterations                     ...        0 min,  0.002 sec (  8.463%)
 molecular gradient             ...        0 min,  0.001 sec (  2.684%)
 printout                       ...        0 min,  0.000 sec (  0.907%)

         :::::::::::::::::::::::::::::::::::::::::::::::::::::
         ::                     SUMMARY                     ::
         :::::::::::::::::::::::::::::::::::::::::::::::::::::
         :: total energy             -12.286172506600 Eh    ::
         :: gradient norm              0.001713198451 Eh/a0 ::
         :: HOMO-LUMO gap              3.353701811075 eV    ::
         ::.................................................::
         :: SCC energy               -12.343428908640 Eh    ::
         :: -> isotropic ES            0.150934595283 Eh    ::
         :: -> anisotropic ES         -0.001056151732 Eh    ::
         :: -> anisotropic XC          0.001820595831 Eh    ::
         :: -> dispersion             -0.003071349436 Eh    ::
         :: repulsion energy           0.057256402040 Eh    ::
         :: add. restraining           0.000000000000 Eh    ::
         :: total charge              -1.000000000000 e     ::
         :::::::::::::::::::::::::::::::::::::::::::::::::::::


Property printout bound to 'properties.out'

           -------------------------------------------------
          | TOTAL ENERGY              -12.286172506600 Eh   |
          | GRADIENT NORM               0.001713198451 Eh/α |
          | HOMO-LUMO GAP               3.353701811075 eV   |
           -------------------------------------------------

------------------------------------------------------------------------
 * finished run on 2026/03/16 at 14:19:15.658     
------------------------------------------------------------------------
 total:
 * wall-time:     0 d,  0 h,  0 min,  0.043 sec
 *  cpu-time:     0 d,  0 h,  0 min,  0.258 sec
 * ratio c/w:     6.013 speedup
 SCF:
 * wall-time:     0 d,  0 h,  0 min,  0.025 sec
 *  cpu-time:     0 d,  0 h,  0 min,  0.177 sec
 * ratio c/w:     7.182 speedup


-------------------------   --------------------
FINAL SINGLE POINT ENERGY       -12.286172506600
-------------------------   --------------------


-------------
DIPOLE MOMENT
-------------
                                X             Y             Z
Total Dipole Moment    :     -0.00000      -0.00000      -3.82500
                        -----------------------------------------
Magnitude (a.u.)       :      3.82500
Magnitude (Debye)      :      9.72238


------------------
CARTESIAN GRADIENT
------------------

   1   C   :   -0.000013597   -0.000092488    0.000324273
   2   H   :    0.000000452    0.000064185    0.000334321
   3   H   :   -0.000008773    0.000009439    0.000310499
   4   H   :    0.000021322    0.000016162    0.000306501
   5   I   :    0.000000041    0.000000181   -0.001559875
   6   Cl  :    0.000000555    0.000002521    0.000284282

Difference to translation invariance:
           :    0.0000000000    0.0000000000   -0.0000000000

Difference to rotation invariance:
           :    0.0000000019    0.0000000001    0.0000000000

Norm of the Cartesian gradient     ...    0.0017131985
RMS gradient                       ...    0.0004038047
MAX gradient                       ...    0.0015598750
------------------------------------------------------------------------------
                         ORCA GEOMETRY RELAXATION STEP
------------------------------------------------------------------------------

Reading the OPT-File                    .... done
Getting information on internals        .... done
Copying old internal coords+grads       .... done
Making the new internal coordinates     .... (2022 redundants) done
Validating the new internal coordinates .... (2022 redundants) done
Calculating the B-matrix                .... done
Calculating the G,G- and P matrices     .... done
Transforming gradient to internals      .... done
Projecting the internal gradient        .... done
Number of atoms                         ....   6
Number of internal coordinates          ....  17
Current Energy                          ....   -12.286172507 Eh
Current gradient norm                   ....     0.001713198 Eh/bohr
Maximum allowed component of the step   ....  0.300
Current trust radius                    ....  0.300
Evaluating the initial hessian          ....  (Almloef) done
Projecting the Hessian                  .... done
Forming the augmented Hessian           .... done
Diagonalizing the augmented Hessian     .... done
Last element of RFO vector              ....  0.996737358
Lowest eigenvalues of augmented Hessian:
 -0.000066530  0.010065990  0.041109833  0.041115756  0.192976714
Length of the computed step             ....  0.080977511
The final length of the internal step   ....  0.080977511
Converting the step to Cartesian space:
 Initial RMS(Int)=    0.0196399312
Transforming coordinates:
 Iter   0:  RMS(Cart)=    0.0091833608 RMS(Int)=    0.0196464733
done
Storing new coordinates                 .... done

                                .--------------------.
          ----------------------|Geometry convergence|-------------------------
          Item                value                   Tolerance       Converged
          ---------------------------------------------------------------------
          RMS gradient        0.0002200813            0.0001000000      NO
          MAX gradient        0.0005091130            0.0003000000      NO
          RMS step            0.0196399312            0.0020000000      NO
          MAX step            0.0427338024            0.0040000000      NO
          -------------------------------------------------------------------------
          ........................................................
          Max(Bonds)      0.0226      Max(Angles)    0.02
          Max(Dihed)        0.00      Max(Improp)    0.00
          ---------------------------------------------------------------------

The optimization has not yet converged - more geometry cycles are needed


    ---------------------------------------------------------------------------
                         Redundant Internal Coordinates
                            (Angstroem and degrees)

        Definition                    Value    dE/dq     Step     New-Value
    ----------------------------------------------------------------------------
     1. B(H   1,C   0)                1.0828  0.000174 -0.0003    1.0826   
     2. B(H   2,C   0)                1.0827  0.000094 -0.0001    1.0825   
     3. B(H   3,C   0)                1.0826  0.000079 -0.0001    1.0825   
     4. B(I   4,H   2)                3.0669 -0.000372  0.0210    3.0879   
     5. B(I   4,H   3)                3.0669 -0.000372  0.0210    3.0879   
     6. B(I   4,H   1)                3.0669 -0.000372  0.0210    3.0879   
     7. B(I   4,C   0)                3.2289 -0.000509  0.0226    3.2515   
     8. B(Cl  5,C   0)                1.7847 -0.000284  0.0005    1.7851   
     9. A(H   1,C   0,H   3)          110.64  0.000047   -0.01    110.62   
    10. A(H   2,C   0,H   3)          110.65  0.000055   -0.02    110.63   
    11. A(H   1,C   0,Cl  5)          108.27 -0.000057    0.02    108.29   
    12. A(H   2,C   0,Cl  5)          108.28 -0.000050    0.02    108.29   
    13. A(H   3,C   0,Cl  5)          108.28 -0.000048    0.01    108.29   
    14. A(H   1,C   0,I   4)           71.73  0.000051   -0.02     71.71   
    15. A(H   2,C   0,I   4)           71.73  0.000052   -0.02     71.71   
    16. A(H   3,C   0,I   4)           71.73  0.000052   -0.02     71.71   
    17. A(H   1,C   0,H   2)          110.64  0.000046   -0.01    110.62   
    ----------------------------------------------------------------------------

Geometry step timings:
Preparation and reading OPT file:      0.000 s ( 2.752 %)
Internal coordinates            :      0.000 s ( 4.440 %)
B/P matrices and projection     :      0.000 s (10.569 %)
Hessian update/contruction      :      0.001 s (34.647 %)
Making the step                 :      0.000 s (10.194 %)
Converting the step to Cartesian:      0.000 s ( 3.752 %)
Storing new data                :      0.000 s ( 6.004 %)
Checking convergence            :      0.000 s ( 5.316 %)
Final printing                  :      0.000 s (22.076 %)
Total time                      :      0.002 s

Time for energy+gradient        :      0.053 s
Time for complete geometry iter :      0.056 s

         *************************************************************
         *                GEOMETRY OPTIMIZATION CYCLE   2            *
         *************************************************************
---------------------------------
CARTESIAN COORDINATES (ANGSTROEM)
---------------------------------
  C    -0.000005   -0.000003   -0.436695
  H     0.000003    1.027870   -0.096984
  H     0.890159   -0.513882   -0.096961
  H    -0.890161   -0.513883   -0.096957
  I     0.000001    0.000013    2.814843
  Cl    0.000001    0.000019   -2.221839

----------------------------
CARTESIAN COORDINATES (A.U.)
----------------------------
  NO LB    ZA    FRAG    MASS        X           Y           Z
   0 C   6.0000    0    12.011   -0.000009   -0.000007   -0.825234
   1 H   1.0000    0     1.008    0.000006    1.942392   -0.183273
   2 H   1.0000    0     1.008    1.682156   -0.971096   -0.183230
   3 H   1.0000    0     1.008   -1.682160   -0.971099   -0.183223
   4 I  53.0000    0   126.900    0.000003    0.000025    5.319283
   5 Cl 17.0000    0    35.453    0.000002    0.000035   -4.198668

      -----------------------------------------------------------      
     |                   =====================                   |     
     |                           x T B                           |     
     |                   =====================                   |     
     |                         S. Grimme                         |     
     |          Mulliken Center for Theoretical Chemistry        |     
     |                    University of Bonn                     |     
      -----------------------------------------------------------      

   * xtb version 6.7.1 (edcfbbe) compiled by 'albert@albert-system' on 2024-07-22

   xtb is free software: you can redistribute it and/or modify it under
   the terms of the GNU Lesser General Public License as published by
   the Free Software Foundation, either version 3 of the License, or
   (at your option) any later version.
   
   xtb is distributed in the hope that it will be useful,
   but WITHOUT ANY WARRANTY; without even the implied warranty of
   MERCHANTABILITY or FITNESS FOR A PARTICULAR PURPOSE.  See the
   GNU Lesser General Public License for more details.
   
   Cite this work as:
   * C. Bannwarth, E. Caldeweyher, S. Ehlert, A. Hansen, P. Pracht,
     J. Seibert, S. Spicher, S. Grimme, WIREs Comput. Mol. Sci., 2020, 11,
     e01493. DOI: 10.1002/wcms.1493
   
   for GFN2-xTB:
   * C. Bannwarth, S. Ehlert and S. Grimme., J. Chem. Theory Comput., 2019,
     15, 1652-1671. DOI: 10.1021/acs.jctc.8b01176
   for GFN1-xTB:
   * S. Grimme, C. Bannwarth, P. Shushkov, J. Chem. Theory Comput., 2017,
     13, 1989-2009. DOI: 10.1021/acs.jctc.7b00118
   for GFN0-xTB:
   * P. Pracht, E. Caldeweyher, S. Ehlert, S. Grimme, ChemRxiv, 2019, preprint.
     DOI: 10.26434/chemrxiv.8326202.v1
   for GFN-FF:
   * S. Spicher and S. Grimme, Angew. Chem. Int. Ed., 2020, 59, 15665-15673.
     DOI: 10.1002/anie.202004239
   
   for ALPB and GBSA implicit solvation:
   * S. Ehlert, M. Stahn, S. Spicher, S. Grimme, J. Chem. Theory Comput.,
     2021, 17, 4250-4261. DOI: 10.1021/acs.jctc.1c00471
   
   for ddCOSMO and CPCM-X implicit solvation:
   * M. Stahn, S. Ehlert, S. Grimme, J. Phys. Chem. A,
     2023, XX, XXXX-XXXX. DOI: 10.1021/acs.jpca.3c04382
   
   for DFT-D4:
   * E. Caldeweyher, C. Bannwarth and S. Grimme, J. Chem. Phys., 2017,
     147, 034112. DOI: 10.1063/1.4993215
   * E. Caldeweyher, S. Ehlert, A. Hansen, H. Neugebauer, S. Spicher,
     C. Bannwarth and S. Grimme, J. Chem. Phys., 2019, 150, 154122.
     DOI: 10.1063/1.5090222
   * E. Caldeweyher, J.-M. Mewes, S. Ehlert and S. Grimme, Phys. Chem. Chem. Phys.
     2020, 22, 8499-8512. DOI: 10.1039/D0CP00502A
   
   for sTDA-xTB:
   * S. Grimme and C. Bannwarth, J. Chem. Phys., 2016, 145, 054103.
     DOI: 10.1063/1.4959605
   
   in the mass-spec context:
   * V. Asgeirsson, C. Bauer and S. Grimme, Chem. Sci., 2017, 8, 4879.
     DOI: 10.1039/c7sc00601b
   * J. Koopman and S. Grimme, ACS Omega 2019, 4, 12, 15120-15133.
     DOI: 10.1021/acsomega.9b02011
   
   for metadynamics refer to:
   * S. Grimme, J. Chem. Theory Comput., 2019, 155, 2847-2862
     DOI: 10.1021/acs.jctc.9b00143
   
   for SPH calculations refer to:
   * S. Spicher and S. Grimme, J. Chem. Theory Comput., 2021, 17, 1701-1714
     DOI: 10.1021/acs.jctc.0c01306
   
   for ONIOM refer to:
   * C. Plett, A. Katbashev, S. Ehlert, S. Grimme, M. Bursch,
     Phys. Chem. Chem. Phys., 2023, 25, 17860-17868. DOI: 10.1039/D3CP02178E
   
   for DIPRO refer to:
   * J. Kohn, N. Gildemeister, S. Grimme, D. Fazzi, A. Hansen,
     J. Chem. Phys., 2023, just accepted.
   
   for PTB refer to:
   * S. Grimme, M. Mueller, A. Hansen, J. Chem. Phys., 2023, 158, 124111.
     DOI: 10.1063/5.0137838
   
   with help from (in alphabetical order)
   P. Atkinson, C. Bannwarth, F. Bohle, G. Brandenburg, E. Caldeweyher
   M. Checinski, S. Dohm, S. Ehlert, S. Ehrlich, I. Gerasimov, C. Hölzer
   A. Katbashev, J. Kohn, J. Koopman, C. Lavigne, S. Lehtola, F. März, M. Müller,
   F. Musil, H. Neugebauer, J. Pisarek, C. Plett, P. Pracht, F. Pultar,
   J. Seibert, P. Shushkov, S. Spicher, M. Stahn, M. Steiner, T. Strunk,
   J. Stückrath, T. Rose, and J. Unsleber
   
 * started run on 2026/03/16 at 14:19:15.670     
   ID    Z sym.   atoms
    1    6 C      1
    2    1 H      2-4
    3   53 I      5
    4   17 Cl     6

           -------------------------------------------------
          |                Calculation Setup                |
           -------------------------------------------------

          program call               : /software/orca-6.1.0-el8-x86_64/bin/otool_xtb reactant_optfreq_XTB.xyz --grad -c -1 -u 0 -P 8 --namespace reactant_optfreq --input reactant_optfreq_XTB.input.tmp --acc 0.200000
          hostname                   : midway3-login4.rcc.local
          calculation namespace      : reactant_optfreq
          coordinate file            : reactant_optfreq_XTB.xyz
          omp threads                :                     8


molecular fragmentation (1/2 indicates fragments):
111121
# atoms in fragment 1/2:     5     1
 fragment masses (1/2) :       50.49      126.90
CMA distance (Bohr)    :   8.475
constraining FC (au)   :  0.0500

           -------------------------------------------------
          |                 G F N 2 - x T B                 |
           -------------------------------------------------

        Reference                      10.1021/acs.jctc.8b01176
      * Hamiltonian:
        H0-scaling (s, p, d)           1.850000    2.230000    2.230000
        zeta-weighting                 0.500000
      * Dispersion:
        s8                             2.700000
        a1                             0.520000
        a2                             5.000000
        s9                             5.000000
      * Repulsion:
        kExp                           1.500000    1.000000
        rExp                           1.000000
      * Coulomb:
        alpha                          2.000000
        third order                    shell-resolved
        anisotropic                    true
        a3                             3.000000
        a5                             4.000000
        cn-shift                       1.200000
        cn-exp                         4.000000
        max-rad                        5.000000

q/qsh data taken from xtbrestart
CAMM data taken from xtbrestart

          ...................................................
          :                      SETUP                      :
          :.................................................:
          :  # basis functions                  27          :
          :  # atomic orbitals                  25          :
          :  # shells                           11          :
          :  # electrons                        22          :
          :  max. iterations                   250          :
          :  Hamiltonian                  GFN2-xTB          :
          :  restarted?                       true          :
          :  GBSA solvation                  false          :
          :  PC potential                    false          :
          :  electronic temp.          300.0000000     K    :
          :  accuracy                    0.2000000          :
          :  -> integral cutoff          0.3198970E+02      :
          :  -> integral neglect         0.2000000E-08      :
          :  -> SCF convergence          0.2000000E-06 Eh   :
          :  -> wf. convergence          0.2000000E-04 e    :
          :  Broyden damping             0.4000000          :
          :  net charge                         -1          :
          :  unpaired electrons                  0          :
          ...................................................

 iter      E             dE          RMSdq      gap      omega  full diag
   1    -12.3435344 -0.123435E+02  0.152E-01    3.32       0.0  T
   2    -12.3435351 -0.669033E-06  0.820E-02    3.31       1.0  T
   3    -12.3435354 -0.327655E-06  0.146E-02    3.31       2.8  T
   4    -12.3435355 -0.585668E-07  0.697E-03    3.31       5.9  T
   5    -12.3435355 -0.301211E-07  0.227E-03    3.31      18.0  T
   6    -12.3435355 -0.635526E-08  0.129E-03    3.31      31.7  T
   7    -12.3435355 -0.374135E-08  0.747E-04    3.31      54.6  T
   8    -12.3435355 -0.195164E-08  0.244E-04    3.31     167.3  T
   9    -12.3435355 -0.864144E-10  0.545E-06    3.31    7488.5  T
  10    -12.3435355 -0.355271E-13  0.487E-07    3.31   83812.9  T

   *** convergence criteria satisfied after 10 iterations ***

         #    Occupation            Energy/Eh            Energy/eV
      -------------------------------------------------------------
         1        2.0000           -0.9412656             -25.6131
       ...           ...                  ...                  ...
         5        2.0000           -0.3827424             -10.4150
         6        2.0000           -0.3775230             -10.2729
         7        2.0000           -0.3000392              -8.1645
         8        2.0000           -0.3000376              -8.1644
         9        2.0000           -0.1652440              -4.4965
        10        2.0000           -0.1613586              -4.3908
        11        2.0000           -0.1613586              -4.3908 (HOMO)
        12                         -0.0397627              -1.0820 (LUMO)
        13                          0.1389815               3.7819
        14                          0.1389826               3.7819
        15                          0.1431138               3.8943
        16                          0.1431139               3.8943
       ...                                ...                  ...
        25                          0.4338880              11.8067
      -------------------------------------------------------------
                  HL-Gap            0.1215958 Eh            3.3088 eV
             Fermi-level           -0.1005607 Eh           -2.7364 eV

 SCC (total)                   0 d,  0 h,  0 min,  0.023 sec
 SCC setup                      ...        0 min,  0.000 sec (  0.857%)
 Dispersion                     ...        0 min,  0.000 sec (  0.235%)
 classical contributions        ...        0 min,  0.000 sec (  0.133%)
 integral evaluation            ...        0 min,  0.020 sec ( 88.922%)
 iterations                     ...        0 min,  0.002 sec (  6.663%)
 molecular gradient             ...        0 min,  0.001 sec (  2.537%)
 printout                       ...        0 min,  0.000 sec (  0.590%)

         :::::::::::::::::::::::::::::::::::::::::::::::::::::
         ::                     SUMMARY                     ::
         :::::::::::::::::::::::::::::::::::::::::::::::::::::
         :: total energy             -12.286224436185 Eh    ::
         :: gradient norm              0.001170195944 Eh/a0 ::
         :: HOMO-LUMO gap              3.308791322327 eV    ::
         ::.................................................::
         :: SCC energy               -12.343536375087 Eh    ::
         :: -> isotropic ES            0.151469715007 Eh    ::
         :: -> anisotropic ES         -0.001003279244 Eh    ::
         :: -> anisotropic XC          0.001899650657 Eh    ::
         :: -> dispersion             -0.003055034228 Eh    ::
         :: repulsion energy           0.057311938902 Eh    ::
         :: add. restraining           0.000000000000 Eh    ::
         :: total charge              -1.000000000000 e     ::
         :::::::::::::::::::::::::::::::::::::::::::::::::::::


Property printout bound to 'properties.out'

           -------------------------------------------------
          | TOTAL ENERGY              -12.286224436185 Eh   |
          | GRADIENT NORM               0.001170195944 Eh/α |
          | HOMO-LUMO GAP               3.308791322327 eV   |
           -------------------------------------------------

------------------------------------------------------------------------
 * finished run on 2026/03/16 at 14:19:15.719     
------------------------------------------------------------------------
 total:
 * wall-time:     0 d,  0 h,  0 min,  0.049 sec
 *  cpu-time:     0 d,  0 h,  0 min,  0.231 sec
 * ratio c/w:     4.770 speedup
 SCF:
 * wall-time:     0 d,  0 h,  0 min,  0.023 sec
 *  cpu-time:     0 d,  0 h,  0 min,  0.163 sec
 * ratio c/w:     7.173 speedup


-------------------------   --------------------
FINAL SINGLE POINT ENERGY       -12.286224436190
-------------------------   --------------------


-------------
DIPOLE MOMENT
-------------
                                X             Y             Z
Total Dipole Moment    :     -0.00000      -0.00000      -3.87000
                        -----------------------------------------
Magnitude (a.u.)       :      3.87000
Magnitude (Debye)      :      9.83676


------------------
CARTESIAN GRADIENT
------------------

   1   C   :   -0.000003136   -0.000021321    0.000572526
   2   H   :    0.000000723   -0.000145891    0.000188622
   3   H   :   -0.000132277    0.000082367    0.000186172
   4   H   :    0.000134264    0.000082679    0.000185936
   5   I   :    0.000000009   -0.000000000   -0.000901090
   6   Cl  :    0.000000417    0.000002167   -0.000232167

Difference to translation invariance:
           :   -0.0000000000    0.0000000000    0.0000000000

Difference to rotation invariance:
           :   -0.0000000009    0.0000000007   -0.0000000000

Norm of the Cartesian gradient     ...    0.0011701959
RMS gradient                       ...    0.0002758178
MAX gradient                       ...    0.0009010898
------------------------------------------------------------------------------
                         ORCA GEOMETRY RELAXATION STEP
------------------------------------------------------------------------------

Reading the OPT-File                    .... done
Getting information on internals        .... done
Copying old internal coords+grads       .... done
Making the new internal coordinates     .... (2022 redundants) done
Validating the new internal coordinates .... (2022 redundants) done
Calculating the B-matrix                .... done
Calculating the G,G- and P matrices     .... done
Transforming gradient to internals      .... done
Projecting the internal gradient        .... done
Number of atoms                         ....   6
Number of internal coordinates          ....  17
Current Energy                          ....   -12.286224436 Eh
Current gradient norm                   ....     0.001170196 Eh/bohr
Maximum allowed component of the step   ....  0.300
Current trust radius                    ....  0.300
Updating the Hessian (BFGS)             .... done
Forming the augmented Hessian           .... done
Diagonalizing the augmented Hessian     .... done
Last element of RFO vector              ....  0.993836255
Lowest eigenvalues of augmented Hessian:
 -0.000052968  0.004240519  0.041109834  0.041115756  0.193461067
Length of the computed step             ....  0.111545544
The final length of the internal step   ....  0.111545544
Converting the step to Cartesian space:
 Initial RMS(Int)=    0.0270537682
Transforming coordinates:
 Iter   0:  RMS(Cart)=    0.0124512181 RMS(Int)=    0.0270646460
done
Storing new coordinates                 .... done
The predicted energy change is          ....    -0.000026814
Previously predicted energy change      ....    -0.000033483
Actually observed energy change         ....    -0.000051930
Ratio of predicted to observed change   ....     1.550929615
New trust radius                        ....     0.200000000

                                .--------------------.
          ----------------------|Geometry convergence|-------------------------
          Item                value                   Tolerance       Converged
          ---------------------------------------------------------------------
          Energy change      -0.0000519296            0.0000050000      NO
          RMS gradient        0.0001319120            0.0001000000      NO
          MAX gradient        0.0002496495            0.0003000000      YES
          RMS step            0.0270537682            0.0020000000      NO
          MAX step            0.0583339987            0.0040000000      NO
          -------------------------------------------------------------------------
          ........................................................
          Max(Bonds)      0.0309      Max(Angles)    0.01
          Max(Dihed)        0.00      Max(Improp)    0.00
          ---------------------------------------------------------------------

The optimization has not yet converged - more geometry cycles are needed


    ---------------------------------------------------------------------------
                         Redundant Internal Coordinates
                            (Angstroem and degrees)

        Definition                    Value    dE/dq     Step     New-Value
    ----------------------------------------------------------------------------
     1. B(H   1,C   0)                1.0826 -0.000075  0.0002    1.0828   
     2. B(H   2,C   0)                1.0825 -0.000085  0.0003    1.0828   
     3. B(H   3,C   0)                1.0825 -0.000087  0.0003    1.0828   
     4. B(I   4,H   2)                3.0879 -0.000230  0.0290    3.1169   
     5. B(I   4,H   3)                3.0879 -0.000230  0.0290    3.1169   
     6. B(I   4,H   1)                3.0879 -0.000230  0.0290    3.1170   
     7. B(I   4,C   0)                3.2515 -0.000250  0.0309    3.2824   
     8. B(Cl  5,C   0)                1.7851  0.000232 -0.0008    1.7843   
     9. A(H   1,C   0,H   3)          110.62  0.000000   -0.00    110.62   
    10. A(H   2,C   0,H   3)          110.63  0.000011   -0.01    110.62   
    11. A(H   1,C   0,Cl  5)          108.29 -0.000008    0.01    108.29   
    12. A(H   2,C   0,Cl  5)          108.29 -0.000002    0.00    108.29   
    13. A(H   3,C   0,Cl  5)          108.29 -0.000000    0.00    108.29   
    14. A(H   1,C   0,I   4)           71.71  0.000003   -0.00     71.71   
    15. A(H   2,C   0,I   4)           71.71  0.000003   -0.00     71.71   
    16. A(H   3,C   0,I   4)           71.71  0.000003   -0.00     71.71   
    17. A(H   1,C   0,H   2)          110.62 -0.000001   -0.00    110.62   
    ----------------------------------------------------------------------------

Geometry step timings:
Preparation and reading OPT file:      0.000 s ( 3.103 %)
Internal coordinates            :      0.000 s ( 3.978 %)
B/P matrices and projection     :      0.000 s (12.013 %)
Hessian update/contruction      :      0.000 s (28.878 %)
Making the step                 :      0.000 s ( 8.433 %)
Converting the step to Cartesian:      0.000 s ( 2.705 %)
Storing new data                :      0.000 s ( 6.842 %)
Checking convergence            :      0.000 s ( 7.955 %)
Final printing                  :      0.000 s (26.094 %)
Total time                      :      0.001 s

Time for energy+gradient        :      0.057 s
Time for complete geometry iter :      0.060 s

         *************************************************************
         *                GEOMETRY OPTIMIZATION CYCLE   3            *
         *************************************************************
---------------------------------
CARTESIAN COORDINATES (ANGSTROEM)
---------------------------------
  C     0.000001    0.000029   -0.442049
  H     0.000003    1.028097   -0.102190
  H     0.890348   -0.514006   -0.102170
  H    -0.890350   -0.514006   -0.102167
  I    -0.000000    0.000011    2.840343
  Cl   -0.000002    0.000008   -2.226359

----------------------------
CARTESIAN COORDINATES (A.U.)
----------------------------
  NO LB    ZA    FRAG    MASS        X           Y           Z
   0 C   6.0000    0    12.011    0.000001    0.000054   -0.835352
   1 H   1.0000    0     1.008    0.000005    1.942822   -0.193112
   2 H   1.0000    0     1.008    1.682514   -0.971330   -0.193074
   3 H   1.0000    0     1.008   -1.682517   -0.971331   -0.193068
   4 I  53.0000    0   126.900   -0.000001    0.000020    5.367470
   5 Cl 17.0000    0    35.453   -0.000004    0.000016   -4.207209

      -----------------------------------------------------------      
     |                   =====================                   |     
     |                           x T B                           |     
     |                   =====================                   |     
     |                         S. Grimme                         |     
     |          Mulliken Center for Theoretical Chemistry        |     
     |                    University of Bonn                     |     
      -----------------------------------------------------------      

   * xtb version 6.7.1 (edcfbbe) compiled by 'albert@albert-system' on 2024-07-22

   xtb is free software: you can redistribute it and/or modify it under
   the terms of the GNU Lesser General Public License as published by
   the Free Software Foundation, either version 3 of the License, or
   (at your option) any later version.
   
   xtb is distributed in the hope that it will be useful,
   but WITHOUT ANY WARRANTY; without even the implied warranty of
   MERCHANTABILITY or FITNESS FOR A PARTICULAR PURPOSE.  See the
   GNU Lesser General Public License for more details.
   
   Cite this work as:
   * C. Bannwarth, E. Caldeweyher, S. Ehlert, A. Hansen, P. Pracht,
     J. Seibert, S. Spicher, S. Grimme, WIREs Comput. Mol. Sci., 2020, 11,
     e01493. DOI: 10.1002/wcms.1493
   
   for GFN2-xTB:
   * C. Bannwarth, S. Ehlert and S. Grimme., J. Chem. Theory Comput., 2019,
     15, 1652-1671. DOI: 10.1021/acs.jctc.8b01176
   for GFN1-xTB:
   * S. Grimme, C. Bannwarth, P. Shushkov, J. Chem. Theory Comput., 2017,
     13, 1989-2009. DOI: 10.1021/acs.jctc.7b00118
   for GFN0-xTB:
   * P. Pracht, E. Caldeweyher, S. Ehlert, S. Grimme, ChemRxiv, 2019, preprint.
     DOI: 10.26434/chemrxiv.8326202.v1
   for GFN-FF:
   * S. Spicher and S. Grimme, Angew. Chem. Int. Ed., 2020, 59, 15665-15673.
     DOI: 10.1002/anie.202004239
   
   for ALPB and GBSA implicit solvation:
   * S. Ehlert, M. Stahn, S. Spicher, S. Grimme, J. Chem. Theory Comput.,
     2021, 17, 4250-4261. DOI: 10.1021/acs.jctc.1c00471
   
   for ddCOSMO and CPCM-X implicit solvation:
   * M. Stahn, S. Ehlert, S. Grimme, J. Phys. Chem. A,
     2023, XX, XXXX-XXXX. DOI: 10.1021/acs.jpca.3c04382
   
   for DFT-D4:
   * E. Caldeweyher, C. Bannwarth and S. Grimme, J. Chem. Phys., 2017,
     147, 034112. DOI: 10.1063/1.4993215
   * E. Caldeweyher, S. Ehlert, A. Hansen, H. Neugebauer, S. Spicher,
     C. Bannwarth and S. Grimme, J. Chem. Phys., 2019, 150, 154122.
     DOI: 10.1063/1.5090222
   * E. Caldeweyher, J.-M. Mewes, S. Ehlert and S. Grimme, Phys. Chem. Chem. Phys.
     2020, 22, 8499-8512. DOI: 10.1039/D0CP00502A
   
   for sTDA-xTB:
   * S. Grimme and C. Bannwarth, J. Chem. Phys., 2016, 145, 054103.
     DOI: 10.1063/1.4959605
   
   in the mass-spec context:
   * V. Asgeirsson, C. Bauer and S. Grimme, Chem. Sci., 2017, 8, 4879.
     DOI: 10.1039/c7sc00601b
   * J. Koopman and S. Grimme, ACS Omega 2019, 4, 12, 15120-15133.
     DOI: 10.1021/acsomega.9b02011
   
   for metadynamics refer to:
   * S. Grimme, J. Chem. Theory Comput., 2019, 155, 2847-2862
     DOI: 10.1021/acs.jctc.9b00143
   
   for SPH calculations refer to:
   * S. Spicher and S. Grimme, J. Chem. Theory Comput., 2021, 17, 1701-1714
     DOI: 10.1021/acs.jctc.0c01306
   
   for ONIOM refer to:
   * C. Plett, A. Katbashev, S. Ehlert, S. Grimme, M. Bursch,
     Phys. Chem. Chem. Phys., 2023, 25, 17860-17868. DOI: 10.1039/D3CP02178E
   
   for DIPRO refer to:
   * J. Kohn, N. Gildemeister, S. Grimme, D. Fazzi, A. Hansen,
     J. Chem. Phys., 2023, just accepted.
   
   for PTB refer to:
   * S. Grimme, M. Mueller, A. Hansen, J. Chem. Phys., 2023, 158, 124111.
     DOI: 10.1063/5.0137838
   
   with help from (in alphabetical order)
   P. Atkinson, C. Bannwarth, F. Bohle, G. Brandenburg, E. Caldeweyher
   M. Checinski, S. Dohm, S. Ehlert, S. Ehrlich, I. Gerasimov, C. Hölzer
   A. Katbashev, J. Kohn, J. Koopman, C. Lavigne, S. Lehtola, F. März, M. Müller,
   F. Musil, H. Neugebauer, J. Pisarek, C. Plett, P. Pracht, F. Pultar,
   J. Seibert, P. Shushkov, S. Spicher, M. Stahn, M. Steiner, T. Strunk,
   J. Stückrath, T. Rose, and J. Unsleber
   
 * started run on 2026/03/16 at 14:19:15.730     
   ID    Z sym.   atoms
    1    6 C      1
    2    1 H      2-4
    3   53 I      5
    4   17 Cl     6

           -------------------------------------------------
          |                Calculation Setup                |
           -------------------------------------------------

          program call               : /software/orca-6.1.0-el8-x86_64/bin/otool_xtb reactant_optfreq_XTB.xyz --grad -c -1 -u 0 -P 8 --namespace reactant_optfreq --input reactant_optfreq_XTB.input.tmp --acc 0.200000
          hostname                   : midway3-login4.rcc.local
          calculation namespace      : reactant_optfreq
          coordinate file            : reactant_optfreq_XTB.xyz
          omp threads                :                     8


molecular fragmentation (1/2 indicates fragments):
111121
# atoms in fragment 1/2:     5     1
 fragment masses (1/2) :       50.49      126.90
CMA distance (Bohr)    :   8.532
constraining FC (au)   :  0.0500

           -------------------------------------------------
          |                 G F N 2 - x T B                 |
           -------------------------------------------------

        Reference                      10.1021/acs.jctc.8b01176
      * Hamiltonian:
        H0-scaling (s, p, d)           1.850000    2.230000    2.230000
        zeta-weighting                 0.500000
      * Dispersion:
        s8                             2.700000
        a1                             0.520000
        a2                             5.000000
        s9                             5.000000
      * Repulsion:
        kExp                           1.500000    1.000000
        rExp                           1.000000
      * Coulomb:
        alpha                          2.000000
        third order                    shell-resolved
        anisotropic                    true
        a3                             3.000000
        a5                             4.000000
        cn-shift                       1.200000
        cn-exp                         4.000000
        max-rad                        5.000000

q/qsh data taken from xtbrestart
CAMM data taken from xtbrestart

          ...................................................
          :                      SETUP                      :
          :.................................................:
          :  # basis functions                  27          :
          :  # atomic orbitals                  25          :
          :  # shells                           11          :
          :  # electrons                        22          :
          :  max. iterations                   250          :
          :  Hamiltonian                  GFN2-xTB          :
          :  restarted?                       true          :
          :  GBSA solvation                  false          :
          :  PC potential                    false          :
          :  electronic temp.          300.0000000     K    :
          :  accuracy                    0.2000000          :
          :  -> integral cutoff          0.3198970E+02      :
          :  -> integral neglect         0.2000000E-08      :
          :  -> SCF convergence          0.2000000E-06 Eh   :
          :  -> wf. convergence          0.2000000E-04 e    :
          :  Broyden damping             0.4000000          :
          :  net charge                         -1          :
          :  unpaired electrons                  0          :
          ...................................................

 iter      E             dE          RMSdq      gap      omega  full diag
   1    -12.3434806 -0.123435E+02  0.198E-01    3.28       0.0  T
   2    -12.3434817 -0.113347E-05  0.106E-01    3.27       1.0  T
   3    -12.3434822 -0.501683E-06  0.180E-02    3.26       2.3  T
   4    -12.3434823 -0.775527E-07  0.471E-03    3.26       8.7  T
   5    -12.3434823 -0.942052E-08  0.196E-03    3.26      20.8  T
   6    -12.3434823 -0.289320E-08  0.846E-04    3.26      48.2  T
   7    -12.3434823 -0.954104E-09  0.626E-04    3.26      65.3  T
   8    -12.3434823 -0.130048E-08  0.221E-04    3.26     184.5  T
   9    -12.3434823 -0.112832E-09  0.774E-06    3.26    5277.4  T
  10    -12.3434823 -0.408562E-13  0.518E-07    3.26   78850.2  T

   *** convergence criteria satisfied after 10 iterations ***

         #    Occupation            Energy/Eh            Energy/eV
      -------------------------------------------------------------
         1        2.0000           -0.9422426             -25.6397
       ...           ...                  ...                  ...
         5        2.0000           -0.3838545             -10.4452
         6        2.0000           -0.3786202             -10.3028
         7        2.0000           -0.3009915              -8.1904
         8        2.0000           -0.3009915              -8.1904
         9        2.0000           -0.1643424              -4.4720
        10        2.0000           -0.1605572              -4.3690
        11        2.0000           -0.1605572              -4.3690 (HOMO)
        12                         -0.0407411              -1.1086 (LUMO)
        13                          0.1378340               3.7507
        14                          0.1378346               3.7507
        15                          0.1419797               3.8635
        16                          0.1419797               3.8635
       ...                                ...                  ...
        25                          0.4320348              11.7563
      -------------------------------------------------------------
                  HL-Gap            0.1198161 Eh            3.2604 eV
             Fermi-level           -0.1006492 Eh           -2.7388 eV

 SCC (total)                   0 d,  0 h,  0 min,  0.023 sec
 SCC setup                      ...        0 min,  0.000 sec (  0.912%)
 Dispersion                     ...        0 min,  0.000 sec (  0.233%)
 classical contributions        ...        0 min,  0.000 sec (  0.110%)
 integral evaluation            ...        0 min,  0.020 sec ( 86.193%)
 iterations                     ...        0 min,  0.002 sec (  7.741%)
 molecular gradient             ...        0 min,  0.001 sec (  3.765%)
 printout                       ...        0 min,  0.000 sec (  0.952%)

         :::::::::::::::::::::::::::::::::::::::::::::::::::::
         ::                     SUMMARY                     ::
         :::::::::::::::::::::::::::::::::::::::::::::::::::::
         :: total energy             -12.286254457468 Eh    ::
         :: gradient norm              0.000650395711 Eh/a0 ::
         :: HOMO-LUMO gap              3.260361925451 eV    ::
         ::.................................................::
         :: SCC energy               -12.343483184396 Eh    ::
         :: -> isotropic ES            0.152212917874 Eh    ::
         :: -> anisotropic ES         -0.000956391479 Eh    ::
         :: -> anisotropic XC          0.001953263805 Eh    ::
         :: -> dispersion             -0.003033736326 Eh    ::
         :: repulsion energy           0.057228726928 Eh    ::
         :: add. restraining           0.000000000000 Eh    ::
         :: total charge              -1.000000000000 e     ::
         :::::::::::::::::::::::::::::::::::::::::::::::::::::


Property printout bound to 'properties.out'

           -------------------------------------------------
          | TOTAL ENERGY              -12.286254457468 Eh   |
          | GRADIENT NORM               0.000650395711 Eh/α |
          | HOMO-LUMO GAP               3.260361925451 eV   |
           -------------------------------------------------

------------------------------------------------------------------------
 * finished run on 2026/03/16 at 14:19:15.773     
------------------------------------------------------------------------
 total:
 * wall-time:     0 d,  0 h,  0 min,  0.042 sec
 *  cpu-time:     0 d,  0 h,  0 min,  0.218 sec
 * ratio c/w:     5.168 speedup
 SCF:
 * wall-time:     0 d,  0 h,  0 min,  0.023 sec
 *  cpu-time:     0 d,  0 h,  0 min,  0.165 sec
 * ratio c/w:     7.181 speedup


-------------------------   --------------------
FINAL SINGLE POINT ENERGY       -12.286254457470
-------------------------   --------------------


-------------
DIPOLE MOMENT
-------------
                                X             Y             Z
Total Dipole Moment    :      0.00000      -0.00000      -3.93200
                        -----------------------------------------
Magnitude (a.u.)       :      3.93200
Magnitude (Debye)      :      9.99435


------------------
CARTESIAN GRADIENT
------------------

   1   C   :    0.000001554    0.000010422    0.000464998
   2   H   :    0.000000164   -0.000057500    0.000026827
   3   H   :   -0.000039679    0.000024178    0.000030170
   4   H   :    0.000037986    0.000023011    0.000030760
   5   I   :   -0.000000010   -0.000000084   -0.000128226
   6   Cl  :   -0.000000015   -0.000000028   -0.000424529

Difference to translation invariance:
           :    0.0000000000    0.0000000000   -0.0000000000

Difference to rotation invariance:
           :   -0.0000000005    0.0000000002    0.0000000000

Norm of the Cartesian gradient     ...    0.0006503957
RMS gradient                       ...    0.0001532997
MAX gradient                       ...    0.0004649976
------------------------------------------------------------------------------
                         ORCA GEOMETRY RELAXATION STEP
------------------------------------------------------------------------------

Reading the OPT-File                    .... done
Getting information on internals        .... done
Copying old internal coords+grads       .... done
Making the new internal coordinates     .... (2022 redundants) done
Validating the new internal coordinates .... (2022 redundants) done
Calculating the B-matrix                .... done
Calculating the G,G- and P matrices     .... done
Transforming gradient to internals      .... done
Projecting the internal gradient        .... done
Number of atoms                         ....   6
Number of internal coordinates          ....  17
Current Energy                          ....   -12.286254457 Eh
Current gradient norm                   ....     0.000650396 Eh/bohr
Maximum allowed component of the step   ....  0.300
Current trust radius                    ....  0.200
Updating the Hessian (BFGS)             .... done
Forming the augmented Hessian           .... done
Diagonalizing the augmented Hessian     .... done
Last element of RFO vector              ....  0.999778139
Lowest eigenvalues of augmented Hessian:
 -0.000002130  0.003590003  0.041109835  0.041115756  0.193471697
Length of the computed step             ....  0.021068223
The final length of the internal step   ....  0.021068223
Converting the step to Cartesian space:
 Initial RMS(Int)=    0.0051097946
Transforming coordinates:
 Iter   0:  RMS(Cart)=    0.0023048869 RMS(Int)=    0.0051101540
done
Storing new coordinates                 .... done
The predicted energy change is          ....    -0.000001066
Previously predicted energy change      ....    -0.000026814
Actually observed energy change         ....    -0.000030021
Ratio of predicted to observed change   ....     1.119626076
New trust radius                        ....     0.300000000

                                .--------------------.
          ----------------------|Geometry convergence|-------------------------
          Item                value                   Tolerance       Converged
          ---------------------------------------------------------------------
          Energy change      -0.0000300213            0.0000050000      NO
          RMS gradient        0.0001055207            0.0001000000      NO
          MAX gradient        0.0004245290            0.0003000000      NO
          RMS step            0.0051097946            0.0020000000      NO
          MAX step            0.0109299164            0.0040000000      NO
          -------------------------------------------------------------------------
          ........................................................
          Max(Bonds)      0.0058      Max(Angles)    0.00
          Max(Dihed)        0.00      Max(Improp)    0.00
          ---------------------------------------------------------------------

The optimization has not yet converged - more geometry cycles are needed


    ---------------------------------------------------------------------------
                         Redundant Internal Coordinates
                            (Angstroem and degrees)

        Definition                    Value    dE/dq     Step     New-Value
    ----------------------------------------------------------------------------
     1. B(H   1,C   0)                1.0828 -0.000046  0.0001    1.0829   
     2. B(H   2,C   0)                1.0828 -0.000034  0.0001    1.0829   
     3. B(H   3,C   0)                1.0828 -0.000032  0.0001    1.0829   
     4. B(I   4,H   2)                3.1169 -0.000036  0.0055    3.1224   
     5. B(I   4,H   3)                3.1169 -0.000036  0.0055    3.1224   
     6. B(I   4,H   1)                3.1170 -0.000036  0.0055    3.1224   
     7. B(I   4,C   0)                3.2824 -0.000026  0.0058    3.2882   
     8. B(Cl  5,C   0)                1.7843  0.000425 -0.0009    1.7834   
     9. A(H   1,C   0,H   3)          110.62 -0.000006    0.00    110.62   
    10. A(H   2,C   0,H   3)          110.62 -0.000003    0.00    110.62   
    11. A(H   1,C   0,Cl  5)          108.29  0.000005   -0.00    108.29   
    12. A(H   2,C   0,Cl  5)          108.29  0.000005   -0.00    108.29   
    13. A(H   3,C   0,Cl  5)          108.29  0.000005   -0.00    108.29   
    14. A(H   1,C   0,I   4)           71.71 -0.000005    0.00     71.71   
    15. A(H   2,C   0,I   4)           71.71 -0.000005    0.00     71.71   
    16. A(H   3,C   0,I   4)           71.71 -0.000005    0.00     71.71   
    17. A(H   1,C   0,H   2)          110.62 -0.000006    0.00    110.62   
    ----------------------------------------------------------------------------

Geometry step timings:
Preparation and reading OPT file:      0.000 s ( 3.011 %)
Internal coordinates            :      0.000 s ( 4.200 %)
B/P matrices and projection     :      0.000 s (11.490 %)
Hessian update/contruction      :      0.000 s (26.545 %)
Making the step                 :      0.000 s ( 8.954 %)
Converting the step to Cartesian:      0.000 s ( 3.487 %)
Storing new data                :      0.000 s ( 6.815 %)
Checking convergence            :      0.000 s ( 8.479 %)
Final printing                  :      0.000 s (27.021 %)
Total time                      :      0.001 s

Time for energy+gradient        :      0.051 s
Time for complete geometry iter :      0.054 s

         *************************************************************
         *                GEOMETRY OPTIMIZATION CYCLE   4            *
         *************************************************************
---------------------------------
CARTESIAN COORDINATES (ANGSTROEM)
---------------------------------
  C     0.000001    0.000030   -0.443164
  H     0.000002    1.028193   -0.103291
  H     0.890416   -0.514054   -0.103278
  H    -0.890416   -0.514053   -0.103276
  I    -0.000000    0.000011    2.845010
  Cl   -0.000003    0.000006   -2.226594

----------------------------
CARTESIAN COORDINATES (A.U.)
----------------------------
  NO LB    ZA    FRAG    MASS        X           Y           Z
   0 C   6.0000    0    12.011    0.000001    0.000056   -0.837458
   1 H   1.0000    0     1.008    0.000003    1.943003   -0.195192
   2 H   1.0000    0     1.008    1.682643   -0.971422   -0.195167
[...]
        25                          0.4316484              11.7458
      -------------------------------------------------------------
                  HL-Gap            0.1197790 Eh            3.2594 eV
             Fermi-level           -0.1004761 Eh           -2.7341 eV

 SCC (total)                   0 d,  0 h,  0 min,  0.063 sec
 SCC setup                      ...        0 min,  0.000 sec (  0.321%)
 Dispersion                     ...        0 min,  0.000 sec (  0.076%)
 classical contributions        ...        0 min,  0.000 sec (  0.051%)
 integral evaluation            ...        0 min,  0.061 sec ( 96.968%)
 iterations                     ...        0 min,  0.001 sec (  1.421%)
 molecular gradient             ...        0 min,  0.001 sec (  0.929%)
 printout                       ...        0 min,  0.000 sec (  0.205%)

         :::::::::::::::::::::::::::::::::::::::::::::::::::::
         ::                     SUMMARY                     ::
         :::::::::::::::::::::::::::::::::::::::::::::::::::::
         :: total energy             -12.286255882574 Eh    ::
         :: gradient norm              0.000200553248 Eh/a0 ::
         :: HOMO-LUMO gap              3.259352649648 eV    ::
         ::.................................................::
         :: SCC energy               -12.343475270359 Eh    ::
         :: -> isotropic ES            0.152399004032 Eh    ::
         :: -> anisotropic ES         -0.000960489910 Eh    ::
         :: -> anisotropic XC          0.001921803340 Eh    ::
         :: -> dispersion             -0.003029829686 Eh    ::
         :: repulsion energy           0.057219387785 Eh    ::
         :: add. restraining           0.000000000000 Eh    ::
         :: total charge              -1.000000000000 e     ::
         :::::::::::::::::::::::::::::::::::::::::::::::::::::

           ------------------------------------------------- 
          |                Numerical Hessian                |
           ------------------------------------------------- 
step length          :   0.00500
SCC accuracy         :   0.30000
Hessian scale factor :   1.00000
frozen atoms in %    :   0.00000    0
RMS gradient         :   0.00020
estimated CPU  time      0.00 min
estimated wall time      0.00 min

writing file <hessian>.

 projected vibrational frequencies (cm⁻¹)
eigval :       -0.00    -0.00    -0.00     0.00     0.00     0.00
eigval :       93.33    93.36    93.38   634.23   983.46   983.47
eigval :     1306.63  1438.83  1438.87  3061.25  3075.31  3075.33

Property printout bound to 'properties.out'
Molecule has the following symmetry elements: (C3) 3*(sigma) 
It seems to be the C3v point group

           -------------------------------------------------
          | TOTAL ENERGY              -12.286255882574 Eh   |
          | TOTAL ENTHALPY            -12.242909776819 Eh   |
          | TOTAL FREE ENERGY         -12.279241358895 Eh   |
          | GRADIENT NORM               0.000200560261 Eh/α |
          | HOMO-LUMO GAP               3.259352498105 eV   |
           -------------------------------------------------

------------------------------------------------------------------------
 * finished run on 2026/03/16 at 14:19:16.067     
------------------------------------------------------------------------
 total:
 * wall-time:     0 d,  0 h,  0 min,  0.089 sec
 *  cpu-time:     0 d,  0 h,  0 min,  0.354 sec
 * ratio c/w:     3.991 speedup
 SCF:
 * wall-time:     0 d,  0 h,  0 min,  0.063 sec
 *  cpu-time:     0 d,  0 h,  0 min,  0.176 sec
 * ratio c/w:     2.789 speedup
 analytical hessian:
 * wall-time:     0 d,  0 h,  0 min,  0.014 sec
 *  cpu-time:     0 d,  0 h,  0 min,  0.110 sec
 * ratio c/w:     7.897 speedup


-------------------------   --------------------
FINAL SINGLE POINT ENERGY       -12.286255882570
-------------------------   --------------------


-------------
DIPOLE MOMENT
-------------
                                X             Y             Z
Total Dipole Moment    :     -0.00000      -0.00000      -3.94600
                        -----------------------------------------
Magnitude (a.u.)       :      3.94600
Magnitude (Debye)      :     10.02993


-----------------------
VIBRATIONAL FREQUENCIES
-----------------------

Scaling factor for frequencies =  1.000000000  (already applied!)

     0:       0.00 cm**-1
     1:       0.00 cm**-1
     2:       0.00 cm**-1
     3:       0.00 cm**-1
     4:       0.00 cm**-1
     5:       0.00 cm**-1
     6:      93.33 cm**-1
     7:      93.36 cm**-1
     8:      93.38 cm**-1
     9:     634.22 cm**-1
    10:     983.44 cm**-1
    11:     983.44 cm**-1
    12:    1306.60 cm**-1
    13:    1438.79 cm**-1
    14:    1438.83 cm**-1
    15:    3061.16 cm**-1
    16:    3075.22 cm**-1
    17:    3075.24 cm**-1


------------
NORMAL MODES
------------

These modes are the Cartesian displacements weighted by the diagonal matrix
M(i,i)=1/sqrt(m[i]) where m[i] is the mass of the displaced atom
Thus, these vectors are normalized but *not* orthogonal

                  0          1          2          3          4          5    
      0       0.000000   0.000000   0.000000   0.000000   0.000000   0.000000
      1       0.000000   0.000000   0.000000   0.000000   0.000000   0.000000
      2       0.000000   0.000000   0.000000   0.000000   0.000000   0.000000
      3       0.000000   0.000000   0.000000   0.000000   0.000000   0.000000
      4       0.000000   0.000000   0.000000   0.000000   0.000000   0.000000
      5       0.000000   0.000000   0.000000   0.000000   0.000000   0.000000
      6       0.000000   0.000000   0.000000   0.000000   0.000000   0.000000
      7       0.000000   0.000000   0.000000   0.000000   0.000000   0.000000
      8       0.000000   0.000000   0.000000   0.000000   0.000000   0.000000
      9       0.000000   0.000000   0.000000   0.000000   0.000000   0.000000
     10       0.000000   0.000000   0.000000   0.000000   0.000000   0.000000
     11       0.000000   0.000000   0.000000   0.000000   0.000000   0.000000
     12       0.000000   0.000000   0.000000   0.000000   0.000000   0.000000
     13       0.000000   0.000000   0.000000   0.000000   0.000000   0.000000
     14       0.000000   0.000000   0.000000   0.000000   0.000000   0.000000
     15       0.000000   0.000000   0.000000   0.000000   0.000000   0.000000
     16       0.000000   0.000000   0.000000   0.000000   0.000000   0.000000
     17       0.000000   0.000000   0.000000   0.000000   0.000000   0.000000
                  6          7          8          9         10         11    
      0      -0.394445   0.001650   0.000794  -0.000004   0.003684   0.112439
      1      -0.000706   0.083812  -0.393996  -0.000014  -0.112441   0.003685
      2       0.000472   0.445567   0.021869  -0.642054   0.000003  -0.000001
      3      -0.484421   0.002026   0.000971  -0.000002  -0.007835  -0.239021
      4      -0.000873   0.108101  -0.489205  -0.043661   0.155527  -0.005096
      5       0.000954   0.360704   0.303390  -0.415424  -0.758881   0.024873
      6      -0.488591   0.004995   0.003541  -0.037796   0.030387  -0.177589
      7       0.001483   0.101221  -0.485364   0.021822   0.216983  -0.043293
      8       0.245325   0.449894  -0.121205  -0.415438   0.400962   0.644773
      9      -0.488609  -0.000909  -0.001573   0.037792  -0.041945  -0.175223
     10      -0.003226   0.101243  -0.485362   0.021821   0.219354   0.028994
     11      -0.244941   0.451944  -0.120217  -0.415437   0.357883  -0.669641
     12       0.018666  -0.000078  -0.000038   0.000000   0.000002   0.000060
     13       0.000033  -0.003966   0.018645   0.000000  -0.000060   0.000002
     14      -0.000185  -0.175313  -0.008602  -0.000172   0.000000   0.000000
     15       0.108376  -0.000453  -0.000218   0.000001  -0.000704  -0.021479
     16       0.000194  -0.023028   0.108252   0.000004   0.021479  -0.000704
     17       0.000464   0.440664   0.021618   0.253570  -0.000000   0.000000
                 12         13         14         15         16         17    
      0      -0.000001   0.000563   0.072041  -0.000002   0.091376  -0.001824
      1      -0.000001   0.072035  -0.000563  -0.000078   0.001824   0.091376
      2      -0.098495   0.000001  -0.000000   0.036911   0.000001   0.000033
      3       0.000003  -0.005856  -0.749425  -0.000002   0.043017  -0.000864
      4      -0.184572   0.122122  -0.000950  -0.553325  -0.015427  -0.772176
      5       0.544027  -0.294334   0.002303  -0.160948  -0.005038  -0.252178
      6      -0.159862  -0.378134  -0.092819  -0.480060  -0.560966   0.363662
      7       0.092287  -0.534481  -0.373239   0.277125   0.349574  -0.167437
      8       0.544057   0.145158  -0.256015  -0.161275  -0.215763   0.130227
      9       0.159868   0.376632  -0.098710   0.480082  -0.575014  -0.340986
     10       0.092286  -0.528587   0.381548   0.277138  -0.355958  -0.153347
     11       0.544056   0.149138   0.253717  -0.161288   0.220787   0.121516
     12      -0.000000   0.000000   0.000021   0.000000  -0.000015   0.000000
     13      -0.000000   0.000021  -0.000000   0.000000  -0.000000  -0.000015
     14      -0.000520  -0.000000  -0.000000   0.000066   0.000000   0.000000
     15      -0.000000   0.000018   0.002273  -0.000000   0.000173  -0.000003
     16       0.000000   0.002274  -0.000018  -0.000000   0.000003   0.000173
     17      -0.011176   0.000001  -0.000000   0.001007   0.000000   0.000001


The first frequency considered to be a vibration is 6
The total number of vibrations considered is 12


--------------------------
THERMOCHEMISTRY AT 298.15K
--------------------------

Temperature         ...   298.15 K
Pressure            ...     1.00 atm
Total Mass          ...   177.39 AMU
Quasi RRHO          ...     True
Cut-Off Frequency   ...     1.00 cm^-1

Throughout the following assumptions are being made:
  (1) The electronic state is orbitally nondegenerate
  (2) There are no thermally accessible electronically excited states
  (3) Hindered rotations indicated by low frequency modes are not
      treated as such but are treated as vibrations and this may
      cause some error
  (4) All equations used are the standard statistical mechanics
      equations for an ideal gas
  (5) All vibrations are strictly harmonic

freq.      93.33  E(vib)   ...       0.47 
freq.      93.36  E(vib)   ...       0.47 
freq.      93.38  E(vib)   ...       0.47 
freq.     634.22  E(vib)   ...       0.09 
freq.     983.44  E(vib)   ...       0.02 
freq.     983.44  E(vib)   ...       0.02 
freq.    1306.60  E(vib)   ...       0.01 
freq.    1438.79  E(vib)   ...       0.00 
freq.    1438.83  E(vib)   ...       0.00 
freq.    3061.16  E(vib)   ...       0.00 
freq.    3075.22  E(vib)   ...       0.00 
freq.    3075.24  E(vib)   ...       0.00 

------------
INNER ENERGY
------------

The inner energy is: U= E(el) + E(ZPE) + E(vib) + E(rot) + E(trans)
    E(el)   - is the total energy from the electronic structure calculation
              = E(kin-el) + E(nuc-el) + E(el-el) + E(nuc-nuc)
    E(ZPE)  - the the zero temperature vibrational energy from the frequency calculation
    E(vib)  - the the finite temperature correction to E(ZPE) due to population
              of excited vibrational states
    E(rot)  - is the rotational thermal energy
    E(trans)- is the translational thermal energy

Summary of contributions to the inner energy U:
Electronic energy                ...    -12.28625588 Eh
Zero point energy                ...      0.03708175 Eh      23.27 kcal/mol
Thermal vibrational correction   ...      0.00248656 Eh       1.56 kcal/mol
Thermal rotational correction    ...      0.00141627 Eh       0.89 kcal/mol
Thermal translational correction ...      0.00141627 Eh       0.89 kcal/mol
-----------------------------------------------------------------------
Total thermal energy                    -12.24385503 Eh


Summary of corrections to the electronic energy:
(perhaps to be used in another calculation)
Total thermal correction                  0.00531910 Eh       3.34 kcal/mol
Non-thermal (ZPE) correction              0.03708175 Eh      23.27 kcal/mol
-----------------------------------------------------------------------
Total correction                          0.04240085 Eh      26.61 kcal/mol


--------
ENTHALPY
--------

The enthalpy is H = U + kB*T
                kB is Boltzmann's constant
Total thermal energy              ...    -12.24385503 Eh 
Thermal Enthalpy correction       ...      0.00094421 Eh       0.59 kcal/mol
-----------------------------------------------------------------------
Total Enthalpy                    ...    -12.24291082 Eh


WARNING (ORCA/SYM): The number of Z matrix atoms does not agree with
the number of centers in the basis set. The point group will therefore
be determined without considering basis set information.


Note: Rotational entropy computed according to Herzberg 
Infrared and Raman Spectra, Chapter V,1, Van Nostrand Reinhold, 1945 
Point Group:  C3v, Symmetry Number:   3  
Rotational constants in cm-1:     5.273288     0.021717     0.021717 

Vibrational entropy computed according to the QRRHO of S. Grimme
Chem.Eur.J. 2012 18 9955 using a reference frequency of 100.0 cm-1


-------
ENTROPY
-------

The entropy contributions are T*S = T*(S(el)+S(vib)+S(rot)+S(trans))
     S(el)   - electronic entropy
     S(vib)  - vibrational entropy
     S(rot)  - rotational entropy
     S(trans)- translational entropy
The entropies will be listed as multiplied by the temperature to get
units of energy

Electronic entropy                ...      0.00000000 Eh      0.00 kcal/mol
Vibrational entropy               ...      0.00488588 Eh      3.07 kcal/mol
Rotational entropy                ...      0.01130451 Eh      7.09 kcal/mol
Translational entropy             ...      0.01968301 Eh     12.35 kcal/mol
-----------------------------------------------------------------------
Final entropy term                ...      0.03587340 Eh     22.51 kcal/mol

In case the symmetry of your molecule has not been determined correctly
or in case you have a reason to use a different symmetry number we print 
out the resulting rotational entropy values for sn=1,12:

 non-linear molecules -----------------------------------
|  sn= 1 | S(rot)=       0.01234180 Eh      7.74 kcal/mol|
|  sn= 2 | S(rot)=       0.01168734 Eh      7.33 kcal/mol|
|  sn= 3 | S(rot)=       0.01130451 Eh      7.09 kcal/mol|
|  sn= 4 | S(rot)=       0.01103289 Eh      6.92 kcal/mol|
|  sn= 5 | S(rot)=       0.01082220 Eh      6.79 kcal/mol|
|  sn= 6 | S(rot)=       0.01065005 Eh      6.68 kcal/mol|
|  sn= 7 | S(rot)=       0.01050451 Eh      6.59 kcal/mol|
|  sn= 8 | S(rot)=       0.01037843 Eh      6.51 kcal/mol|
|  sn= 9 | S(rot)=       0.01026722 Eh      6.44 kcal/mol|
|  sn=10 | S(rot)=       0.01016774 Eh      6.38 kcal/mol|
|  sn=11 | S(rot)=       0.01007775 Eh      6.32 kcal/mol|
|  sn=12 | S(rot)=       0.00999560 Eh      6.27 kcal/mol|
 linear molecules ---------------------------------------
|  Dinfh | S(rot)=       0.00894172 Eh      5.61 kcal/mol|
|  Cinfv | S(rot)=       0.00959618 Eh      6.02 kcal/mol|
 --------------------------------------------------------


-------------------
GIBBS FREE ENERGY
-------------------

The Gibbs free energy is G = H - T*S

Total enthalpy                    ...    -12.24291082 Eh 
Total entropy correction          ...     -0.03587340 Eh    -22.51 kcal/mol
-----------------------------------------------------------------------
Final Gibbs free energy         ...    -12.27878422 Eh

For completeness - the Gibbs free energy minus the electronic energy
G-E(el)                           ...      0.00747166 Eh      4.69 kcal/mol


--------------------------------
SUGGESTED CITATIONS FOR THIS RUN
--------------------------------

Below you find a list of papers that are relevant to this ORCA run
We neither can nor want to force you to cite these papers, but we appreciate if you do
You receive ORCA, which is the product of decades of hard work by many enthusiastic individuals, for free
The only thing we kindly ask in return is that you cite our papers,
We deeply appreciate it, if you show your appreciation for ORCA by not just citing the generic ORCA reference.

Please note that relegating all ORCA citations to the supporting information does *not* help us.
SI sections are not indexed - citations you put there will not count into any citation statistics
But we need these citations in order to attract the funding resources that allow us to do what we are doing

Therefore, if you are a happy ORCA user, please consider citing a few of the papers listed below in the main body of your paper

In addition to the list printed below, the program has created the file reactant_optfreq.bibtex that contains the list in bibtex format
You can import this file easily into all common literature databanks and citation aid programs


List of essential papers. We consider these as the minimum necessary citations

  1. Bannwarth, C.; Ehlert, S.; Grimme, S.
     GFN2-xTB—An Accurate and Broadly Parametrized Self-Consistent Tight-Binding Quantum Chemical Method with Multipole Electrostatics and Density-Dependent Dispersion Contributions
     J. Chem. Theory Comput. 2019 15(3), 1652-1671
     doi.org/10.1021/acs.jctc.8b01176
  2. Neese, F.
     Software update: the ORCA program system, version 6.0
     WIRES Comput. Molec. Sci. 2025 15(1), e70019
     doi.org/10.1002/wcms.7019

List of papers to cite with high priority. The work reported in these papers was absolutely
necessary for this run to complete.
Our perspective: the developers of density functionals and basis sets usually get cited in chemistry papers
Good! But without the algorithms to do something with them, the functionals or basis sets would not do anything.
Hence, in our opinion, the algorithm design and method developments papers are equally worthy of getting cited

  1. Bykov, D.; Petrenko, T.; Izsak, R.; Kossmann, S.; Becker, U.; Valeev, E.; Neese, F.
     Efficient implementation of the analytic second derivatives of Hartree-Fock and hybrid DFT energies: a detailed analysis of different approximations
     Molec. Phys. 2015 113 , 1961-1977
     doi.org/10.1080/00268976.2015.1025114
  2. Bannwarth, C.; Caldeweyher, E.; Ehlert, S.; Hansen, A.; Pracht, P.; Seibert, J.; Spicher, S.; Grimme, S.
     Extended tight-binding quantum chemistry methods
     WIRES Comput. Molec. Sci. 2020 11(2), e1493
     doi.org/10.1002/wcms.1493

List of suggested additional citations. These are papers that are important in the 'surrounding' of 
of this run, or papers that preceded the highly important papers. If you like your results we are grateful for a citation.

  1. Neese, F.
     The ORCA program system
     WIRES Comput. Molec. Sci. 2012 2(1), 73-78
     doi.org/10.1002/wcms.81
  2. Neese, F.
     Software update: the ORCA program system, version 4.0
     WIRES Comput. Molec. Sci. 2018 8(1), 1-6
     doi.org/10.1002/wcms.1327
  3. Neese, F.; Wennmohs, F.; Becker, U.; Riplinger, C.
     The ORCA quantum chemistry program package
     J. Chem. Phys. 2020 152(22), 224108
     doi.org/10.1063/5.0004608
  4. Neese, F.
     Software update: The ORCA program system—Version 5.0
     WIRES Comput. Molec. Sci. 2022 12(1), e1606
     doi.org/10.1002/wcms.1606

List of optional additional citations

  1. Neese, F.
     Approximate second-order SCF convergence for spin unrestricted wavefunctions
     Chem. Phys. Lett. 2000 325(1-3), 93-98
     doi.org/10.1016/s0009-2614(00)00662-x

Timings for individual modules:

Sum of individual times          ...        0.455 sec (=   0.008 min)
Geometry relaxation              ...        0.010 sec (=   0.000 min)   2.2 %
XTB module                       ...        0.445 sec (=   0.007 min)  97.8 %
                             ****ORCA TERMINATED NORMALLY****
TOTAL RUN TIME: 0 days 0 hours 0 minutes 0 seconds 886 msec
